<event>
 7    1  0.2686828E-009  0.1063429E+03  0.7561462E-02  0.1267496E+00
          2   -1    0    0  501    0  0.00000000000E+00  0.00000000000E+00  0.55248659258E+02  0.55248659258E+02  0.00000000000E+00 0.  1.
         -2   -1    0    0    0  501 -0.00000000000E+00 -0.00000000000E+00 -0.26295455541E+03  0.26295455541E+03  0.00000000000E+00 0. -1.
         25    2    1    2    0    0  0.48553414044E+02 -0.26248977794E+02 -0.11113627272E+03  0.17619545018E+03  0.12508845950E+03 0.  0.
          5    1    3    3  502    0 -0.22794548169E+01 -0.64082876869E+02 -0.24487781626E+02  0.68767251443E+02  0.41800000000E+01 0. -1.
         -5    1    3    3    0  502  0.50832868861E+02  0.37833899074E+02 -0.86648491093E+02  0.10742819874E+03  0.41800000000E+01 0. -1.
        -11    1    1    2    0    0 -0.64534628270E+02  0.18338223025E+02 -0.30723600293E+02  0.73789892835E+02  0.00000000000E+00 0.  1.
         11    1    1    2    0    0  0.15981214226E+02  0.79107547695E+01 -0.65846023139E+02  0.68217871650E+02  0.00000000000E+00 0. -1.
</event>
<event>
 7    1  0.2686828E-009  0.2935212E+03  0.7561462E-02  0.1088525E+00
          2   -1    0    0  501    0  0.00000000000E+00  0.00000000000E+00  0.23385913251E+03  0.23385913251E+03  0.00000000000E+00 0.  1.
         -2   -1    0    0    0  501 -0.00000000000E+00 -0.00000000000E+00 -0.42294470070E+03  0.42294470070E+03  0.00000000000E+00 0. -1.
         25    2    1    2    0    0 -0.17356656902E+03 -0.23452823943E+03 -0.14967737322E+03  0.35097043680E+03  0.12509229585E+03 0.  0.
          5    1    3    3  502    0 -0.79042438230E+02 -0.86404723792E+02 -0.12854817159E+03  0.17394133538E+03  0.41800000000E+01 0.  1.
         -5    1    3    3    0  502 -0.94524130789E+02 -0.14812351564E+03 -0.21129201627E+02  0.17702910142E+03  0.41800000000E+01 0.  1.
        -11    1    1    2    0    0  0.14308954171E+03  0.21371461217E+03 -0.79129786949E+01  0.25731530781E+03  0.00000000000E+00 0.  1.
         11    1    1    2    0    0  0.30477027307E+02  0.20813627263E+02 -0.31495216272E+02  0.48518088599E+02  0.00000000000E+00 0. -1.
</event>
<event>
 7    1  0.2686828E-009  0.1149841E+03  0.7561462E-02  0.1251609E+00
         -2   -1    0    0    0  501 -0.00000000000E+00  0.00000000000E+00  0.16020633116E+03  0.16020633116E+03  0.00000000000E+00 0.  1.
          2   -1    0    0  501    0  0.00000000000E+00 -0.00000000000E+00 -0.14063133092E+03  0.14063133092E+03  0.00000000000E+00 0. -1.
         25    2    1    2    0    0  0.96607855577E+02 -0.33089922357E+02  0.24990276148E+02  0.16339819888E+03  0.12508571771E+03 0.  0.
          5    1    3    3  502    0  0.91312429007E+02 -0.45459180080E+02  0.64969930096E+02  0.12100851607E+03  0.41800000000E+01 0.  1.
         -5    1    3    3    0  502  0.52954265699E+01  0.12369257723E+02 -0.39979653948E+02  0.42389682813E+02  0.41800000000E+01 0.  1.
        -11    1    1    2    0    0 -0.51980109186E+02 -0.86386954481E+01  0.35832096266E+02  0.63722036477E+02  0.00000000000E+00 0.  1.
         11    1    1    2    0    0 -0.44627746391E+02  0.41728617805E+02 -0.41247372173E+02  0.73717426725E+02  0.00000000000E+00 0. -1.
</event>
<event>
 7    1  0.2686828E-009  0.1039557E+03  0.7561462E-02  0.1272191E+00
          1   -1    0    0  501    0  0.00000000000E+00  0.00000000000E+00  0.12205073766E+03  0.12205073766E+03  0.00000000000E+00 0. -1.
         -1   -1    0    0    0  501 -0.00000000000E+00 -0.00000000000E+00 -0.14593574906E+03  0.14593574906E+03  0.00000000000E+00 0.  1.
         25    2    1    2    0    0  0.40288631177E+02  0.60955096819E+02  0.10279017101E+02  0.14523200063E+03  0.12509187897E+03 0.  0.
          5    1    3    3  502    0  0.75611388584E+02  0.61395807756E+02 -0.18802738362E+02  0.99285158325E+02  0.41800000000E+01 0. -1.
         -5    1    3    3    0  502 -0.35322757407E+02 -0.44071093685E+00  0.29081755463E+02  0.45946842304E+02  0.41800000000E+01 0. -1.
        -11    1    1    2    0    0 -0.13332579117E+02 -0.34904036044E+02 -0.64493214832E+02  0.74534717800E+02  0.00000000000E+00 0.  1.
         11    1    1    2    0    0 -0.26956052061E+02 -0.26051060776E+02  0.30329186330E+02  0.48219768287E+02  0.00000000000E+00 0. -1.
</event>
<event>
 7    1  0.2686828E-009  0.1000080E+03  0.7561462E-02  0.1280279E+00
          2   -1    0    0  501    0  0.00000000000E+00  0.00000000000E+00  0.32431273412E+03  0.32431273412E+03  0.00000000000E+00 0. -1.
         -2   -1    0    0    0  501 -0.00000000000E+00 -0.00000000000E+00 -0.45355517919E+02  0.45355517919E+02  0.00000000000E+00 0.  1.
         25    2    1    2    0    0  0.18238590372E+02 -0.10166603364E+01  0.24568871969E+03  0.27630451620E+03  0.12509020312E+03 0.  0.
          5    1    3    3  502    0  0.69826915085E+02  0.14496387355E+02  0.15634496537E+03  0.17189288499E+03  0.41800000000E+01 0. -1.
         -5    1    3    3    0  502 -0.51588324713E+02 -0.15513047691E+02  0.89343754321E+02  0.10441163121E+03  0.41800000000E+01 0. -1.
        -11    1    1    2    0    0 -0.46356619457E+02  0.21288218847E+01 -0.40984189960E+01  0.46586104027E+02  0.00000000000E+00 0.  1.
         11    1    1    2    0    0  0.28118029085E+02 -0.11121615484E+01  0.37366915512E+02  0.46777631810E+02  0.00000000000E+00 0. -1.
</event>
<event>
 7    1  0.2686828E-009  0.1080699E+03  0.7561462E-02  0.1264186E+00
          4   -1    0    0  501    0  0.00000000000E+00  0.00000000000E+00  0.10290153756E+03  0.10290153756E+03  0.00000000000E+00 0. -1.
         -4   -1    0    0    0  501 -0.00000000000E+00 -0.00000000000E+00 -0.24794731783E+03  0.24794731783E+03  0.00000000000E+00 0.  1.
         25    2    1    2    0    0 -0.79903149262E+02  0.55035455941E+02 -0.15089283937E+03  0.21870127491E+03  0.12509270164E+03 0.  0.
          5    1    3    3  502    0 -0.34154242595E+02 -0.13058378013E+02 -0.12835048770E+03  0.13352285803E+03  0.41800000000E+01 0. -1.
         -5    1    3    3    0  502 -0.45748906667E+02  0.68093833955E+02 -0.22542351663E+02  0.85178416881E+02  0.41800000000E+01 0. -1.
        -11    1    1    2    0    0  0.46717323195E+02 -0.35609519651E+02 -0.40929284710E+02  0.71594360974E+02  0.00000000000E+00 0.  1.
         11    1    1    2    0    0  0.33185826066E+02 -0.19425936290E+02  0.46776343810E+02  0.60553219507E+02  0.00000000000E+00 0. -1.
</event>
<event>
 7    1  0.2686828E-009  0.1285576E+03  0.7561462E-02  0.1229612E+00
         -2   -1    0    0    0  501 -0.00000000000E+00  0.00000000000E+00  0.37454945164E+03  0.37454945164E+03  0.00000000000E+00 0.  1.
          2   -1    0    0  501    0  0.00000000000E+00 -0.00000000000E+00 -0.64685227747E+02  0.64685227747E+02  0.00000000000E+00 0. -1.
         25    2    1    2    0    0  0.83253360838E+02 -0.45078694606E+02  0.81419949536E+02  0.17674552652E+03  0.12508621893E+03 0.  0.
          5    1    3    3  502    0 -0.13033732132E+02 -0.31450308923E+02 -0.17035609574E+02  0.38297317115E+02  0.41800000000E+01 0.  1.
         -5    1    3    3    0  502  0.96287092970E+02 -0.13628385683E+02  0.98455559110E+02  0.13844820941E+03  0.41800000000E+01 0.  1.
        -11    1    1    2    0    0 -0.60998379641E+02 -0.13795289005E+02  0.14547696216E+03  0.15834979898E+03  0.00000000000E+00 0.  1.
         11    1    1    2    0    0 -0.22254981197E+02  0.58873983611E+02  0.82967312199E+02  0.10413935389E+03  0.00000000000E+00 0. -1.
</event>
<event>
 7    1  0.2697489E-009  0.1187780E+03  0.7561462E-02  0.1245127E+00
         -2   -1    0    0    0  501 -0.00000000000E+00  0.00000000000E+00  0.96399646980E+01  0.96399646980E+01  0.00000000000E+00 0.  1.
          2   -1    0    0  501    0  0.00000000000E+00 -0.00000000000E+00 -0.23384518960E+04  0.23384518960E+04  0.00000000000E+00 0. -1.
         25    2    1    2    0    0  0.53878469047E+02 -0.44074020266E+02 -0.18532056739E+04  0.18587264735E+04  0.12508966778E+03 0.  0.
          5    1    3    3  502    0  0.78568257070E+02 -0.61827077188E+02 -0.10058836316E+04  0.10108486094E+04  0.41800000000E+01 0.  1.
         -5    1    3    3    0  502 -0.24689788023E+02  0.17753056922E+02 -0.84732204232E+03  0.84787786412E+03  0.41800000000E+01 0.  1.
        -11    1    1    2    0    0  0.19997651252E+02  0.21914161132E+02 -0.63301216323E+02  0.69908372186E+02  0.00000000000E+00 0.  1.
         11    1    1    2    0    0 -0.73876120300E+02  0.22159859135E+02 -0.41230504107E+03  0.41945701496E+03  0.00000000000E+00 0. -1.
</event>
<event>
 7    1  0.2686828E-009  0.9990822E+02  0.7561462E-02  0.1280489E+00
          1   -1    0    0  501    0  0.00000000000E+00  0.00000000000E+00  0.59347417784E+02  0.59347417784E+02  0.00000000000E+00 0. -1.
         -1   -1    0    0    0  501 -0.00000000000E+00 -0.00000000000E+00 -0.21896301698E+03  0.21896301698E+03  0.00000000000E+00 0.  1.
         25    2    1    2    0    0 -0.11478419085E+02  0.33893847453E+02 -0.83387477228E+02  0.15453577598E+03  0.12508911903E+03 0.  0.
          5    1    3    3  502    0  0.35097313305E+02  0.64871124799E+02 -0.43845449663E+02  0.85906810499E+02  0.41800000000E+01 0. -1.
         -5    1    3    3    0  502 -0.46575732390E+02 -0.30977277346E+02 -0.39542027565E+02  0.68628965484E+02  0.41800000000E+01 0. -1.
        -11    1    1    2    0    0  0.95194361947E+00  0.17430269128E+02  0.11985888638E+02  0.21175032585E+02  0.00000000000E+00 0. -1.
         11    1    1    2    0    0  0.10526475465E+02 -0.51324116580E+02 -0.88214010610E+02  0.10259962620E+03  0.00000000000E+00 0.  1.
</event>
<event>
 7    1  0.2686828E-009  0.6728120E+02  0.7561462E-02  0.1369590E+00
          1   -1    0    0  501    0  0.00000000000E+00  0.00000000000E+00  0.90219201172E+02  0.90219201172E+02  0.00000000000E+00 0. -1.
         -1   -1    0    0    0  501 -0.00000000000E+00 -0.00000000000E+00 -0.19290129243E+03  0.19290129243E+03  0.00000000000E+00 0.  1.
         25    2    1    2    0    0  0.47252573681E+02 -0.26810219266E+02  0.28726208554E+01  0.13640554028E+03  0.12508647366E+03 0.  0.
          5    1    3    3  502    0  0.32115877587E+02 -0.26427898935E+02 -0.59147231283E+02  0.72427417486E+02  0.41800000000E+01 0.  1.
         -5    1    3    3    0  502  0.15136696095E+02 -0.38232033172E+00  0.62019852138E+02  0.63978122798E+02  0.41800000000E+01 0.  1.
        -11    1    1    2    0    0  0.73004287184E+00  0.29011096711E+02  0.18292124416E+01  0.29077873256E+02  0.00000000000E+00 0. -1.
         11    1    1    2    0    0 -0.47982616553E+02 -0.22008774442E+01 -0.10738392455E+03  0.11763708006E+03  0.00000000000E+00 0.  1.
</event>
<event>
 7    1  0.2686828E-009  0.1246716E+03  0.7561462E-02  0.1235583E+00
          2   -1    0    0  501    0  0.00000000000E+00  0.00000000000E+00  0.47142467417E+03  0.47142467417E+03  0.00000000000E+00 0. -1.
         -2   -1    0    0    0  501 -0.00000000000E+00 -0.00000000000E+00 -0.88480131334E+02  0.88480131334E+02  0.00000000000E+00 0.  1.
         25    2    1    2    0    0  0.28298554683E+02  0.58858480914E+02 -0.19054532466E+02  0.14239308654E+03  0.12509031503E+03 0.  0.
          5    1    3    3  502    0  0.76744550617E+02  0.23013693004E+02 -0.16626735663E+02  0.81934588874E+02  0.41800000000E+01 0.  1.
         -5    1    3    3    0  502 -0.48445995934E+02  0.35844787911E+02 -0.24277968033E+01  0.60458497664E+02  0.41800000000E+01 0.  1.
        -11    1    1    2    0    0 -0.38449043496E+02  0.94920996442E+01  0.20380360279E+03  0.20761584095E+03  0.00000000000E+00 0. -1.
         11    1    1    2    0    0  0.10150488813E+02 -0.68350580558E+02  0.19819547251E+03  0.20989587802E+03  0.00000000000E+00 0.  1.
</event>
<event>
 7    1  0.2686828E-009  0.1188510E+03  0.7561462E-02  0.1245005E+00
         -1   -1    0    0    0  501 -0.00000000000E+00  0.00000000000E+00  0.21454982964E+03  0.21454982964E+03  0.00000000000E+00 0.  1.
          1   -1    0    0  501    0  0.00000000000E+00 -0.00000000000E+00 -0.89691460955E+02  0.89691460955E+02  0.00000000000E+00 0. -1.
         25    2    1    2    0    0  0.10902406867E+02  0.79432370435E+02  0.10081444894E+03  0.17955735223E+03  0.12509566609E+03 0.  0.
          5    1    3    3  502    0  0.44966613274E+02  0.64978380250E+02  0.79795422257E+01  0.79531953977E+02  0.41800000000E+01 0.  1.
         -5    1    3    3    0  502 -0.34064206408E+02  0.14453990185E+02  0.92834906712E+02  0.10002539825E+03  0.41800000000E+01 0.  1.
        -11    1    1    2    0    0  0.40193300499E+02 -0.40829350692E+02  0.19352292909E+02  0.60473535731E+02  0.00000000000E+00 0.  1.
         11    1    1    2    0    0 -0.51095707365E+02 -0.38603019743E+02  0.46916268369E+01  0.64210402637E+02  0.00000000000E+00 0. -1.
</event>
<event>
 7    1  0.2686828E-009  0.7583726E+02  0.7561462E-02  0.1341298E+00
          2   -1    0    0  501    0  0.00000000000E+00  0.00000000000E+00  0.12685458735E+03  0.12685458735E+03  0.00000000000E+00 0.  1.
         -2   -1    0    0    0  501 -0.00000000000E+00 -0.00000000000E+00 -0.12869758197E+03  0.12869758197E+03  0.00000000000E+00 0. -1.
         25    2    1    2    0    0 -0.19793379959E+02  0.35279597064E+02  0.52616493843E+02  0.14160572398E+03  0.12508899944E+03 0.  0.
          5    1    3    3  502    0 -0.13162253274E+02  0.58088804228E+02 -0.21657157870E+02  0.63514242300E+02  0.41800000000E+01 0. -1.
         -5    1    3    3    0  502 -0.66311266850E+01 -0.22809207164E+02  0.74273651712E+02  0.78091481682E+02  0.41800000000E+01 0. -1.
        -11    1    1    2    0    0 -0.84709553119E+01  0.10839609040E+02  0.18542579957E+02  0.23088557328E+02  0.00000000000E+00 0.  1.
         11    1    1    2    0    0  0.28264335271E+02 -0.46119206104E+02 -0.73002068416E+02  0.90857888006E+02  0.00000000000E+00 0. -1.
</event>
<event>
 7    1  0.2686828E-009  0.1023440E+03  0.7561462E-02  0.1275443E+00
          4   -1    0    0  501    0  0.00000000000E+00  0.00000000000E+00  0.18950354894E+03  0.18950354894E+03  0.00000000000E+00 0. -1.
         -4   -1    0    0    0  501 -0.00000000000E+00 -0.00000000000E+00 -0.80608296193E+02  0.80608296193E+02  0.00000000000E+00 0.  1.
         25    2    1    2    0    0  0.11310551129E+02  0.45260616712E+02  0.99243833961E+02  0.16635306382E+03  0.12509017256E+03 0.  0.
          5    1    3    3  502    0 -0.40536568563E+02  0.45774236616E+02  0.96432425803E+02  0.11425926341E+03  0.41800000000E+01 0.  1.
         -5    1    3    3    0  502  0.51847119692E+02 -0.51361990347E+00  0.28114081574E+01  0.52093800414E+02  0.41800000000E+01 0.  1.
        -11    1    1    2    0    0  0.29036426234E+02  0.21661783502E+01  0.26373233558E+02  0.39285542193E+02  0.00000000000E+00 0.  1.
         11    1    1    2    0    0 -0.40346977363E+02 -0.47426795062E+02 -0.16721814777E+02  0.64473239112E+02  0.00000000000E+00 0. -1.
</event>
<event>
 7    1  0.2686828E-009  0.8504155E+02  0.7561462E-02  0.1315324E+00
         -1   -1    0    0    0  501 -0.00000000000E+00  0.00000000000E+00  0.30036965891E+02  0.30036965891E+02  0.00000000000E+00 0.  1.
          1   -1    0    0  501    0  0.00000000000E+00 -0.00000000000E+00 -0.46922290358E+03  0.46922290358E+03  0.00000000000E+00 0. -1.
         25    2    1    2    0    0  0.23765045614E+02 -0.30652738231E+02 -0.17571518742E+03  0.21915469852E+03  0.12509431258E+03 0.  0.
          5    1    3    3  502    0  0.13149597583E+02  0.21494352777E+02 -0.16205302798E+03  0.16405357477E+03  0.41800000000E+01 0.  1.
         -5    1    3    3    0  502  0.10615448032E+02 -0.52147091008E+02 -0.13662159434E+02  0.55101123744E+02  0.41800000000E+01 0.  1.
        -11    1    1    2    0    0 -0.54800832963E+02  0.20413299283E+02 -0.20434770170E+03  0.21255074046E+03  0.00000000000E+00 0. -1.
         11    1    1    2    0    0  0.31035787348E+02  0.10239438947E+02 -0.59123048574E+02  0.67554430491E+02  0.00000000000E+00 0.  1.
</event>
<event>
 7    1  0.2686828E-009  0.1089676E+03  0.7561462E-02  0.1262494E+00
         -4   -1    0    0    0  501 -0.00000000000E+00  0.00000000000E+00  0.64033808582E+02  0.64033808582E+02  0.00000000000E+00 0.  1.
          4   -1    0    0  501    0  0.00000000000E+00 -0.00000000000E+00 -0.22109277772E+03  0.22109277772E+03  0.00000000000E+00 0. -1.
         25    2    1    2    0    0  0.52231661948E+02 -0.44499944677E+01 -0.97910512207E+02  0.16727554503E+03  0.12508673232E+03 0.  0.
          5    1    3    3  502    0  0.19116539515E+02  0.52731571432E+02 -0.81564507511E+02  0.99077252658E+02  0.41800000000E+01 0. -1.
         -5    1    3    3    0  502  0.33115122433E+02 -0.57181565899E+02 -0.16346004696E+02  0.68198292368E+02  0.41800000000E+01 0. -1.
        -11    1    1    2    0    0 -0.44788708338E+02 -0.34052829244E+02 -0.54550202245E+02  0.78366754042E+02  0.00000000000E+00 0.  1.
         11    1    1    2    0    0 -0.74429536102E+01  0.38502823711E+02 -0.45982546854E+01  0.39484287233E+02  0.00000000000E+00 0. -1.
</event>
<event>
 7    1  0.2686828E-009  0.7655672E+02  0.7561462E-02  0.1339117E+00
         -1   -1    0    0    0  501 -0.00000000000E+00  0.00000000000E+00  0.22696349563E+02  0.22696349563E+02  0.00000000000E+00 0.  1.
          1   -1    0    0  501    0  0.00000000000E+00 -0.00000000000E+00 -0.76891756455E+03  0.76891756455E+03  0.00000000000E+00 0. -1.
         25    2    1    2    0    0 -0.44276925575E+01 -0.16202309530E+02 -0.62999735583E+03  0.64251729471E+03  0.12509870643E+03 0.  0.
          5    1    3    3  502    0 -0.53099934113E+01  0.36878212576E+02 -0.50827606460E+03  0.50965697174E+03  0.41800000000E+01 0. -1.
         -5    1    3    3    0  502  0.88230085384E+00 -0.53080522105E+02 -0.12172129123E+03  0.13286032297E+03  0.41800000000E+01 0. -1.
        -11    1    1    2    0    0 -0.26351212412E+02 -0.23092064103E+01  0.10228388743E+01  0.26471966855E+02  0.00000000000E+00 0.  1.
         11    1    1    2    0    0  0.30778904969E+02  0.18511515940E+02 -0.11724669803E+03  0.12262465255E+03  0.00000000000E+00 0. -1.
</event>
<event>
 7    1  0.2686828E-009  0.1007768E+03  0.7561462E-02  0.1278671E+00
          1   -1    0    0  501    0  0.00000000000E+00  0.00000000000E+00  0.54953569394E+03  0.54953569394E+03  0.00000000000E+00 0. -1.
         -1   -1    0    0    0  501 -0.00000000000E+00 -0.00000000000E+00 -0.21328253283E+02  0.21328253283E+02  0.00000000000E+00 0.  1.
         25    2    1    2    0    0  0.39878744917E+00 -0.78942078728E+00  0.29025349136E+03  0.31606294383E+03  0.12509161844E+03 0.  0.
          5    1    3    3  502    0  0.50479685969E+02  0.29986519524E+02  0.19825514102E+03  0.20680900220E+03  0.41800000000E+01 0. -1.
         -5    1    3    3    0  502 -0.50080898520E+02 -0.30775940311E+02  0.91998350336E+02  0.10925394164E+03  0.41800000000E+01 0. -1.
        -11    1    1    2    0    0  0.41678959525E+02  0.30955684759E+00  0.16863213458E+03  0.17370673074E+03  0.00000000000E+00 0. -1.
         11    1    1    2    0    0 -0.42077746974E+02  0.47986393969E+00  0.69321814722E+02  0.81094272648E+02  0.00000000000E+00 0.  1.
</event>
<event>
 7    1  0.2686828E-009  0.1224126E+03  0.7561462E-02  0.1239169E+00
          1   -1    0    0  501    0  0.00000000000E+00  0.00000000000E+00  0.51741007853E+03  0.51741007853E+03  0.00000000000E+00 0. -1.
         -1   -1    0    0    0  501 -0.00000000000E+00 -0.00000000000E+00 -0.41999002710E+02  0.41999002710E+02  0.00000000000E+00 0.  1.
         25    2    1    2    0    0 -0.93593544102E+01 -0.72071264973E+02  0.14064928849E+03  0.20177514035E+03  0.12509644343E+03 0.  0.
          5    1    3    3  502    0 -0.27140504336E+02 -0.10063153503E+03  0.76973485518E+02  0.12963681071E+03  0.41800000000E+01 0.  1.
         -5    1    3    3    0  502  0.17781149926E+02  0.28560270057E+02  0.63675802976E+02  0.72138329639E+02  0.41800000000E+01 0.  1.
        -11    1    1    2    0    0 -0.31498313528E+02  0.52698671366E+02  0.27982684281E+03  0.28648273190E+03  0.00000000000E+00 0. -1.
         11    1    1    2    0    0  0.40857667938E+02  0.19372593607E+02  0.54934944519E+02  0.71151208997E+02  0.00000000000E+00 0.  1.
</event>
<event>
 7    1  0.2686828E-009  0.1014138E+03  0.7561462E-02  0.1277351E+00
         -1   -1    0    0    0  501 -0.00000000000E+00  0.00000000000E+00  0.87339618617E+02  0.87339618617E+02  0.00000000000E+00 0.  1.
          1   -1    0    0  501    0  0.00000000000E+00 -0.00000000000E+00 -0.14410863611E+03  0.14410863611E+03  0.00000000000E+00 0. -1.
         25    2    1    2    0    0 -0.24547783595E+02 -0.42938883712E+02 -0.48758427813E+02  0.14307420282E+03  0.12508597770E+03 0.  0.
          5    1    3    3  502    0  0.17070408744E+02 -0.66104469417E+02 -0.63198204370E+02  0.93127252548E+02  0.41800000000E+01 0. -1.
         -5    1    3    3    0  502 -0.41618192339E+02  0.23165585705E+02  0.14439776557E+02  0.49946950273E+02  0.41800000000E+01 0. -1.
        -11    1    1    2    0    0  0.49589252611E+02  0.33533622945E+02 -0.12755440426E+02  0.61207018411E+02  0.00000000000E+00 0.  1.
         11    1    1    2    0    0 -0.25041469016E+02  0.94052607671E+01  0.47448507407E+01  0.27167033499E+02  0.00000000000E+00 0. -1.
</event>
<event>
 7    1  0.2686828E-009  0.1147422E+03  0.7561462E-02  0.1252032E+00
          2   -1    0    0  501    0  0.00000000000E+00  0.00000000000E+00  0.46182603079E+03  0.46182603079E+03  0.00000000000E+00 0. -1.
         -2   -1    0    0    0  501 -0.00000000000E+00 -0.00000000000E+00 -0.43681188230E+02  0.43681188230E+02  0.00000000000E+00 0.  1.
         25    2    1    2    0    0 -0.24999454819E+02  0.88605664457E+02  0.21929030820E+03  0.26872224575E+03  0.12508984602E+03 0.  0.
          5    1    3    3  502    0 -0.47243112187E+02  0.74575869402E+02  0.22478268409E+03  0.24153301930E+03  0.41800000000E+01 0.  1.
         -5    1    3    3    0  502  0.22243657368E+02  0.14029795055E+02 -0.54923758843E+01  0.27189226455E+02  0.41800000000E+01 0.  1.
        -11    1    1    2    0    0 -0.75254599251E+01 -0.80639432612E+02  0.82105400215E+02  0.11532843268E+03  0.00000000000E+00 0.  1.
         11    1    1    2    0    0  0.32524914744E+02 -0.79662318452E+01  0.11674913414E+03  0.12145654059E+03  0.00000000000E+00 0. -1.
</event>
<event>
 7    1  0.2686828E-009  0.1394565E+03  0.7561462E-02  0.1214062E+00
          2   -1    0    0  501    0  0.00000000000E+00  0.00000000000E+00  0.20492209842E+03  0.20492209842E+03  0.00000000000E+00 0. -1.
         -2   -1    0    0    0  501 -0.00000000000E+00 -0.00000000000E+00 -0.18197804164E+03  0.18197804164E+03  0.00000000000E+00 0.  1.
         25    2    1    2    0    0  0.12806206965E+03  0.42485608507E+02  0.96834024018E+02  0.20791736226E+03  0.12509148936E+03 0.  0.
          5    1    3    3  502    0  0.24971549020E+02  0.62615116393E+01 -0.30462628788E+02  0.40102729846E+02  0.41800000000E+01 0. -1.
         -5    1    3    3    0  502  0.10309052063E+03  0.36224096868E+02  0.12729665281E+03  0.16781463242E+03  0.41800000000E+01 0. -1.
        -11    1    1    2    0    0 -0.11664760907E+03 -0.20117595484E+02 -0.90389708255E+02  0.14893515941E+03  0.00000000000E+00 0.  1.
         11    1    1    2    0    0 -0.11414460576E+02 -0.22368013024E+02  0.16499741013E+02  0.30047618381E+02  0.00000000000E+00 0. -1.
</event>
<event>
 7    1  0.2702514E-009  0.1827315E+03  0.7561462E-02  0.1165185E+00
         -1   -1    0    0    0  501 -0.00000000000E+00  0.00000000000E+00  0.12467488091E+03  0.12467488091E+03  0.00000000000E+00 0.  1.
          1   -1    0    0  501    0  0.00000000000E+00 -0.00000000000E+00 -0.38454510325E+03  0.38454510325E+03  0.00000000000E+00 0. -1.
         25    2    1    2    0    0  0.38932520755E+02 -0.16587585692E+03 -0.23176385773E+03  0.31367636354E+03  0.12509130350E+03 0.  0.
          5    1    3    3  502    0 -0.14542589266E+02 -0.80289781129E+02 -0.18526720576E+03  0.20248295184E+03  0.41800000000E+01 0. -1.
         -5    1    3    3    0  502  0.53475110021E+02 -0.85586075794E+02 -0.46496651977E+02  0.11119341171E+03  0.41800000000E+01 0. -1.
        -11    1    1    2    0    0  0.18843713937E+02  0.37068582325E+02  0.20339162395E+02  0.46290894110E+02  0.00000000000E+00 0. -1.
         11    1    1    2    0    0 -0.57776234691E+02  0.12880727460E+03 -0.48445527006E+02  0.14925272651E+03  0.00000000000E+00 0.  1.
</event>
<event>
 7    1  0.2686828E-009  0.1017716E+03  0.7561462E-02  0.1276614E+00
         -2   -1    0    0    0  501 -0.00000000000E+00  0.00000000000E+00  0.65245295795E+02  0.65245295795E+02  0.00000000000E+00 0.  1.
          2   -1    0    0  501    0  0.00000000000E+00 -0.00000000000E+00 -0.31301337817E+03  0.31301337817E+03  0.00000000000E+00 0. -1.
         25    2    1    2    0    0 -0.47054403288E+01 -0.76935074234E+02 -0.67739127313E+02  0.16179514688E+03  0.12509169983E+03 0.  0.
          5    1    3    3  502    0 -0.26926809629E+02 -0.32853673917E+02 -0.95785287330E+02  0.10486520221E+03  0.41800000000E+01 0. -1.
         -5    1    3    3    0  502  0.22221369301E+02 -0.44081400317E+02  0.28046160017E+02  0.56929944662E+02  0.41800000000E+01 0. -1.
        -11    1    1    2    0    0  0.13567848210E+02 -0.14265396021E+02 -0.74162355152E+01  0.21037789282E+02  0.00000000000E+00 0.  1.
         11    1    1    2    0    0 -0.88624078810E+01  0.91200470255E+02 -0.17261271955E+03  0.19542573781E+03  0.00000000000E+00 0. -1.
</event>
<event>
 7    1  0.2686828E-009  0.1860903E+03  0.7561462E-02  0.1162036E+00
         -2   -1    0    0    0  501 -0.00000000000E+00  0.00000000000E+00  0.22825492706E+03  0.22825492706E+03  0.00000000000E+00 0.  1.
          2   -1    0    0  501    0  0.00000000000E+00 -0.00000000000E+00 -0.19550617593E+03  0.19550617593E+03  0.00000000000E+00 0. -1.
         25    2    1    2    0    0  0.23206660692E+02  0.17593797048E+03  0.50343895637E+02  0.22287884082E+03  0.12509097209E+03 0.  0.
          5    1    3    3  502    0 -0.10543188601E+02  0.12099175621E+02  0.52992538731E+02  0.55526844299E+02  0.41800000000E+01 0. -1.
         -5    1    3    3    0  502  0.33749849293E+02  0.16383879486E+03 -0.26486430947E+01  0.16735199652E+03  0.41800000000E+01 0. -1.
        -11    1    1    2    0    0 -0.31683278427E+02 -0.35540194169E+02 -0.35088636685E+02  0.59145143147E+02  0.00000000000E+00 0. -1.
         11    1    1    2    0    0  0.84766177351E+01 -0.14039777631E+03  0.17493492179E+02  0.14173711903E+03  0.00000000000E+00 0.  1.
</event>
<event>
 7    1  0.2686828E-009  0.8947110E+02  0.7561462E-02  0.1304138E+00
          2   -1    0    0  501    0  0.00000000000E+00  0.00000000000E+00  0.12611672937E+03  0.12611672937E+03  0.00000000000E+00 0.  1.
         -2   -1    0    0    0  501 -0.00000000000E+00 -0.00000000000E+00 -0.10042746251E+03  0.10042746251E+03  0.00000000000E+00 0. -1.
         25    2    1    2    0    0 -0.30932763963E+02 -0.21643038891E+01  0.16265922216E+02  0.12989818188E+03  0.12508971713E+03 0.  0.
          5    1    3    3  502    0 -0.21027024920E+02 -0.59645407266E+02  0.29548551597E+02  0.69930677720E+02  0.41800000000E+01 0.  1.
         -5    1    3    3    0  502 -0.99057390435E+01  0.57481103377E+02 -0.13282629381E+02  0.59967504156E+02  0.41800000000E+01 0.  1.
        -11    1    1    2    0    0  0.43674864743E+02  0.52026286258E+01  0.42443208989E+02  0.61122721996E+02  0.00000000000E+00 0.  1.
         11    1    1    2    0    0 -0.12742100780E+02 -0.30383247367E+01 -0.33019864341E+02  0.35523288004E+02  0.00000000000E+00 0. -1.
</event>
<event>
 7    1  0.2686828E-009  0.5877683E+02  0.7561462E-02  0.1403038E+00
          2   -1    0    0  501    0  0.00000000000E+00  0.00000000000E+00  0.15081471419E+03  0.15081471419E+03  0.00000000000E+00 0.  1.
         -2   -1    0    0    0  501 -0.00000000000E+00 -0.00000000000E+00 -0.81731780619E+02  0.81731780619E+02  0.00000000000E+00 0. -1.
         25    2    1    2    0    0  0.18902200212E+02 -0.32579048452E+01  0.23798207314E+02  0.12877207673E+03  0.12509191004E+03 0.  0.
          5    1    3    3  502    0 -0.16985573250E+02  0.17084793248E+01  0.68707345590E+02  0.70919675255E+02  0.41800000000E+01 0. -1.
         -5    1    3    3    0  502  0.35887773462E+02 -0.49663841700E+01 -0.44909138277E+02  0.57852401476E+02  0.41800000000E+01 0. -1.
        -11    1    1    2    0    0 -0.40520653453E+02  0.81756805704E+01  0.63030381092E+02  0.75376349405E+02  0.00000000000E+00 0.  1.
         11    1    1    2    0    0  0.21618453240E+02 -0.49177757252E+01 -0.17745654838E+02  0.28398068670E+02  0.00000000000E+00 0. -1.
</event>
<event>
 7    1  0.2686828E-009  0.1462165E+03  0.7561462E-02  0.1205201E+00
         -2   -1    0    0    0  501 -0.00000000000E+00  0.00000000000E+00  0.29711090246E+02  0.29711090246E+02  0.00000000000E+00 0. -1.
          2   -1    0    0  501    0  0.00000000000E+00 -0.00000000000E+00 -0.87129200705E+03  0.87129200705E+03  0.00000000000E+00 0.  1.
         25    2    1    2    0    0 -0.89553658137E+02 -0.61975491240E+02 -0.58369168100E+03  0.60679666611E+03  0.12508155872E+03 0.  0.
          5    1    3    3  502    0 -0.54769147811E+02 -0.99537841249E+02 -0.42852188621E+03  0.44334627635E+03  0.41800000000E+01 0.  1.
         -5    1    3    3    0  502 -0.34784510326E+02  0.37562350009E+02 -0.15516979479E+03  0.16345038976E+03  0.41800000000E+01 0.  1.
        -11    1    1    2    0    0  0.20961467488E+02  0.54487677749E+02 -0.18431360333E+03  0.19333854897E+03  0.00000000000E+00 0.  1.
         11    1    1    2    0    0  0.68592190649E+02  0.74878134906E+01 -0.73575632473E+02  0.10086788222E+03  0.00000000000E+00 0. -1.
</event>
<event>
 7    1  0.2686828E-009  0.1237159E+03  0.7561462E-02  0.1237090E+00
         -3   -1    0    0    0  501 -0.00000000000E+00  0.00000000000E+00  0.11968004668E+03  0.11968004668E+03  0.00000000000E+00 0.  1.
          3   -1    0    0  501    0  0.00000000000E+00 -0.00000000000E+00 -0.15586938033E+03  0.15586938033E+03  0.00000000000E+00 0. -1.
         25    2    1    2    0    0  0.16035514651E+02 -0.61318388245E+02 -0.67426879008E+02  0.15559946157E+03  0.12509087082E+03 0.  0.
          5    1    3    3  502    0  0.38724647486E+02  0.23158846395E+02 -0.47781598780E+02  0.65851986085E+02  0.41800000000E+01 0.  1.
         -5    1    3    3    0  502 -0.22689132835E+02 -0.84477234640E+02 -0.19645280227E+02  0.89747475488E+02  0.41800000000E+01 0.  1.
        -11    1    1    2    0    0  0.39342396163E+02  0.37197742351E+02  0.59570003235E+01  0.54470010324E+02  0.00000000000E+00 0. -1.
         11    1    1    2    0    0 -0.55377910814E+02  0.24120645894E+02  0.25280545041E+02  0.65479955116E+02  0.00000000000E+00 0.  1.
</event>
<event>
 7    1  0.2686828E-009  0.1251704E+03  0.7561462E-02  0.1234803E+00
         -2   -1    0    0    0  501 -0.00000000000E+00  0.00000000000E+00  0.33254146935E+03  0.33254146935E+03  0.00000000000E+00 0.  1.
          2   -1    0    0  501    0  0.00000000000E+00 -0.00000000000E+00 -0.47999649796E+02  0.47999649796E+02  0.00000000000E+00 0. -1.
         25    2    1    2    0    0 -0.26072350320E+00  0.75049013491E+02  0.15282006538E+03  0.21126218489E+03  0.12508123752E+03 0.  0.
          5    1    3    3  502    0 -0.16562678010E+02 -0.31669173106E+02  0.24565281315E+02  0.43568156654E+02  0.41800000000E+01 0. -1.
         -5    1    3    3    0  502  0.16301954507E+02  0.10671818660E+03  0.12825478406E+03  0.16769402824E+03  0.41800000000E+01 0. -1.
        -11    1    1    2    0    0 -0.37356555731E+02 -0.42425861349E+02  0.70602470562E+02  0.90444318875E+02  0.00000000000E+00 0.  1.
         11    1    1    2    0    0  0.37617279235E+02 -0.32623152142E+02  0.61119283613E+02  0.78834615379E+02  0.00000000000E+00 0. -1.
</event>
<event>
 7    1  0.2686828E-009  0.1070145E+03  0.7561462E-02  0.1266201E+00
          1   -1    0    0  501    0  0.00000000000E+00  0.00000000000E+00  0.69760558634E+03  0.69760558634E+03  0.00000000000E+00 0. -1.
         -1   -1    0    0    0  501 -0.00000000000E+00 -0.00000000000E+00 -0.20901404804E+02  0.20901404804E+02  0.00000000000E+00 0.  1.
         25    2    1    2    0    0  0.24612967791E+02  0.38641473601E+02  0.45953040421E+03  0.47845036281E+03  0.12509034982E+03 0.  0.
          5    1    3    3  502    0  0.46079625648E+02  0.70399139291E+02  0.21529665722E+03  0.23119146551E+03  0.41800000000E+01 0.  1.
         -5    1    3    3    0  502 -0.21466657857E+02 -0.31757665690E+02  0.24423374699E+03  0.24725889731E+03  0.41800000000E+01 0.  1.
        -11    1    1    2    0    0  0.17069301571E+02 -0.45851320706E+02  0.16903357658E+03  0.17597174398E+03  0.00000000000E+00 0. -1.
         11    1    1    2    0    0 -0.41682269363E+02  0.72098471051E+01  0.48140200741E+02  0.64084884348E+02  0.00000000000E+00 0.  1.
</event>
<event>
 7    1  0.2686828E-009  0.1407364E+03  0.7561462E-02  0.1212342E+00
          1   -1    0    0  501    0  0.00000000000E+00  0.00000000000E+00  0.84607231003E+03  0.84607231003E+03  0.00000000000E+00 0. -1.
         -1   -1    0    0    0  501 -0.00000000000E+00 -0.00000000000E+00 -0.28688199155E+02  0.28688199155E+02  0.00000000000E+00 0.  1.
         25    2    1    2    0    0 -0.96379678548E+01  0.96358074225E+02  0.28582903631E+03  0.32668513200E+03  0.12508864290E+03 0.  0.
          5    1    3    3  502    0  0.52672980775E+02  0.29225010017E+02  0.71617884244E+02  0.93675705804E+02  0.41800000000E+01 0. -1.
         -5    1    3    3    0  502 -0.62310948630E+02  0.67133064208E+02  0.21421115206E+03  0.23300942620E+03  0.41800000000E+01 0. -1.
        -11    1    1    2    0    0  0.45797275494E+02 -0.32991063512E+02  0.30119497104E+03  0.30643794036E+03  0.00000000000E+00 0. -1.
         11    1    1    2    0    0 -0.36159307640E+02 -0.63367010712E+02  0.23036010353E+03  0.24163743683E+03  0.00000000000E+00 0.  1.
</event>
<event>
 7    1  0.2686828E-009  0.1086947E+03  0.7561462E-02  0.1263006E+00
         -4   -1    0    0    0  501 -0.00000000000E+00  0.00000000000E+00  0.17407010309E+03  0.17407010309E+03  0.00000000000E+00 0.  1.
          4   -1    0    0  501    0  0.00000000000E+00 -0.00000000000E+00 -0.72849783136E+02  0.72849783136E+02  0.00000000000E+00 0. -1.
         25    2    1    2    0    0  0.21752557892E+02  0.47035813333E+01  0.85346797282E+02  0.15306064583E+03  0.12509271779E+03 0.  0.
          5    1    3    3  502    0  0.53578981793E+02 -0.43307565729E+02  0.51540944199E+02  0.86140547179E+02  0.41800000000E+01 0. -1.
         -5    1    3    3    0  502 -0.31826423901E+02  0.48011147063E+02  0.33805853083E+02  0.66920098650E+02  0.41800000000E+01 0. -1.
        -11    1    1    2    0    0 -0.46758163483E+02  0.23991970670E+02  0.18478712702E+02  0.55708198068E+02  0.00000000000E+00 0.  1.
         11    1    1    2    0    0  0.25005605591E+02 -0.28695552003E+02 -0.26051900300E+01  0.38151042329E+02  0.00000000000E+00 0. -1.
</event>
<event>
 7    1  0.2686828E-009  0.1704867E+03  0.7561462E-02  0.1177341E+00
         -1   -1    0    0    0  501 -0.00000000000E+00  0.00000000000E+00  0.30940395349E+02  0.30940395349E+02  0.00000000000E+00 0.  1.
          1   -1    0    0  501    0  0.00000000000E+00 -0.00000000000E+00 -0.10237982081E+04  0.10237982081E+04  0.00000000000E+00 0. -1.
         25    2    1    2    0    0 -0.36573074074E+02  0.13336835103E+03 -0.49455131833E+03  0.52853835474E+03  0.12508828548E+03 0.  0.
          5    1    3    3  502    0 -0.13720040632E+01  0.13696331176E+03 -0.28803507708E+03  0.31897101623E+03  0.41800000000E+01 0. -1.
         -5    1    3    3    0  502 -0.35201070010E+02 -0.35949607281E+01 -0.20651624125E+03  0.20956733851E+03  0.41800000000E+01 0. -1.
        -11    1    1    2    0    0  0.60571561907E+02 -0.41665686717E+02 -0.19355626675E+03  0.20704823583E+03  0.00000000000E+00 0.  1.
         11    1    1    2    0    0 -0.23998487834E+02 -0.91702664312E+02 -0.30475022767E+03  0.31915201288E+03  0.00000000000E+00 0. -1.
</event>
<event>
 7    1  0.2686828E-009  0.7978847E+02  0.7561462E-02  0.1329653E+00
         -2   -1    0    0    0  501 -0.00000000000E+00  0.00000000000E+00  0.87786248509E+02  0.87786248509E+02  0.00000000000E+00 0.  1.
          2   -1    0    0  501    0  0.00000000000E+00 -0.00000000000E+00 -0.14761993356E+03  0.14761993356E+03  0.00000000000E+00 0. -1.
         25    2    1    2    0    0 -0.28255213670E+02  0.15340555192E+02 -0.40671464065E+02  0.13540866703E+03  0.12509056473E+03 0.  0.
          5    1    3    3  502    0  0.10243271869E+02 -0.18815664497E+02  0.36516033339E+02  0.42542295893E+02  0.41800000000E+01 0.  1.
         -5    1    3    3    0  502 -0.38498485539E+02  0.34156219690E+02 -0.77187497404E+02  0.92866371135E+02  0.41800000000E+01 0.  1.
        -11    1    1    2    0    0 -0.19001833732E+02  0.19633310966E+02  0.15833400632E+02  0.31578998721E+02  0.00000000000E+00 0.  1.
         11    1    1    2    0    0  0.47257047402E+02 -0.34973866158E+02 -0.34995621622E+02  0.68418516323E+02  0.00000000000E+00 0. -1.
</event>
<event>
 7    1  0.2686828E-009  0.1166215E+03  0.7561462E-02  0.1248777E+00
         -2   -1    0    0    0  501 -0.00000000000E+00  0.00000000000E+00  0.24526341325E+02  0.24526341325E+02  0.00000000000E+00 0.  1.
          2   -1    0    0  501    0  0.00000000000E+00 -0.00000000000E+00 -0.68477050386E+03  0.68477050386E+03  0.00000000000E+00 0. -1.
         25    2    1    2    0    0 -0.32357215572E+02  0.51368690896E+02 -0.26724519123E+03  0.30125326438E+03  0.12509118776E+03 0.  0.
          5    1    3    3  502    0 -0.68801121838E+02  0.12166208922E+02 -0.21590907824E+03  0.22697095293E+03  0.41800000000E+01 0. -1.
         -5    1    3    3    0  502  0.36443906265E+02  0.39202481974E+02 -0.51336112995E+02  0.74282311449E+02  0.41800000000E+01 0. -1.
        -11    1    1    2    0    0 -0.46302063173E+01  0.24618349100E+02 -0.79479797774E+02  0.83333907727E+02  0.00000000000E+00 0.  1.
         11    1    1    2    0    0  0.36987421889E+02 -0.75987039995E+02 -0.31351917352E+03  0.32470967308E+03  0.00000000000E+00 0. -1.
</event>
<event>
 7    1  0.2686828E-009  0.1503639E+03  0.7561462E-02  0.1200027E+00
         -2   -1    0    0    0  501 -0.00000000000E+00  0.00000000000E+00  0.26335891281E+03  0.26335891281E+03  0.00000000000E+00 0.  1.
          2   -1    0    0  501    0  0.00000000000E+00 -0.00000000000E+00 -0.10710306843E+03  0.10710306843E+03  0.00000000000E+00 0. -1.
         25    2    1    2    0    0 -0.99823443709E+02 -0.64535346841E+02  0.32834675861E+02  0.17565059377E+03  0.12508191015E+03 0.  0.
          5    1    3    3  502    0 -0.91747195861E+02 -0.98240181559E+02  0.12054641099E+02  0.13502395340E+03  0.41800000000E+01 0.  1.
         -5    1    3    3    0  502 -0.80762478485E+01  0.33704834718E+02  0.20780034762E+02  0.40626640365E+02  0.41800000000E+01 0.  1.
        -11    1    1    2    0    0  0.33085026242E+02 -0.66595025748E+01  0.82236414739E+02  0.88892046017E+02  0.00000000000E+00 0.  1.
         11    1    1    2    0    0  0.66738417468E+02  0.71194849415E+02  0.41184753789E+02  0.10591934145E+03  0.00000000000E+00 0. -1.
</event>
<event>
 7    1  0.2686828E-009  0.1123421E+03  0.7561462E-02  0.1256293E+00
          3   -1    0    0  501    0  0.00000000000E+00  0.00000000000E+00  0.84840995914E+03  0.84840995914E+03  0.00000000000E+00 0. -1.
         -3   -1    0    0    0  501 -0.00000000000E+00 -0.00000000000E+00 -0.20351155974E+02  0.20351155974E+02  0.00000000000E+00 0.  1.
         25    2    1    2    0    0  0.45496574295E+01  0.35232441397E+02  0.67410633523E+03  0.68653429798E+03  0.12509183341E+03 0.  0.
          5    1    3    3  502    0 -0.51830828656E+02  0.46249044707E+02  0.29629922466E+03  0.30436181080E+03  0.41800000000E+01 0. -1.
         -5    1    3    3    0  502  0.56380486086E+02 -0.11016603310E+02  0.37780711057E+03  0.38217248718E+03  0.41800000000E+01 0. -1.
        -11    1    1    2    0    0 -0.46342462029E+02 -0.30399634579E+02  0.87391450566E+02  0.10348442975E+03  0.00000000000E+00 0.  1.
         11    1    1    2    0    0  0.41792804599E+02 -0.48328068179E+01  0.66561017367E+02  0.78742387384E+02  0.00000000000E+00 0. -1.
</event>
<event>
 7    1  0.2686828E-009  0.1040533E+03  0.7561462E-02  0.1271996E+00
         -2   -1    0    0    0  501 -0.00000000000E+00  0.00000000000E+00  0.62626328057E+02  0.62626328057E+02  0.00000000000E+00 0.  1.
          2   -1    0    0  501    0  0.00000000000E+00 -0.00000000000E+00 -0.22826702630E+03  0.22826702630E+03  0.00000000000E+00 0. -1.
         25    2    1    2    0    0 -0.43700091935E+02 -0.20669650856E+02 -0.11502170503E+03  0.17667437837E+03  0.12508761266E+03 0.  0.
          5    1    3    3  502    0  0.67101877912E+01 -0.48107427043E+02 -0.10826232017E+03  0.11873311891E+03  0.41800000000E+01 0. -1.
         -5    1    3    3    0  502 -0.50410279726E+02  0.27437776187E+02 -0.67593848603E+01  0.57941259460E+02  0.41800000000E+01 0. -1.
        -11    1    1    2    0    0 -0.23774275321E+02 -0.12235577945E+02 -0.80719100908E+01  0.27929934966E+02  0.00000000000E+00 0.  1.
         11    1    1    2    0    0  0.67474367256E+02  0.32905228801E+02 -0.42547083125E+02  0.86289041027E+02  0.00000000000E+00 0. -1.
</event>
<event>
 7    1  0.2686828E-009  0.3392023E+03  0.7561462E-02  0.1067136E+00
         -2   -1    0    0    0  501 -0.00000000000E+00  0.00000000000E+00  0.35003060092E+03  0.35003060092E+03  0.00000000000E+00 0.  1.
          2   -1    0    0  501    0  0.00000000000E+00 -0.00000000000E+00 -0.38473250671E+03  0.38473250671E+03  0.00000000000E+00 0. -1.
         25    2    1    2    0    0  0.30604386651E+03  0.11605777969E+03 -0.14303446175E+03  0.37847095149E+03  0.12509655238E+03 0.  0.
          5    1    3    3  502    0  0.28261099560E+03  0.61843594186E+02 -0.10353576513E+03  0.30729583797E+03  0.41800000000E+01 0.  1.
         -5    1    3    3    0  502  0.23432870915E+02  0.54214185506E+02 -0.39498696620E+02  0.71175113516E+02  0.41800000000E+01 0.  1.
        -11    1    1    2    0    0 -0.93828164331E+02 -0.15758533458E+02  0.70780637762E+02  0.11858311212E+03  0.00000000000E+00 0. -1.
         11    1    1    2    0    0 -0.21221570218E+03 -0.10029924623E+03  0.37551918194E+02  0.23770904402E+03  0.00000000000E+00 0.  1.
</event>
<event>
 7    1  0.2686828E-009  0.1007306E+03  0.7561462E-02  0.1278767E+00
          2   -1    0    0  501    0  0.00000000000E+00  0.00000000000E+00  0.47494192372E+02  0.47494192372E+02  0.00000000000E+00 0.  1.
         -2   -1    0    0    0  501 -0.00000000000E+00 -0.00000000000E+00 -0.32314176929E+03  0.32314176929E+03  0.00000000000E+00 0. -1.
         25    2    1    2    0    0 -0.29411505801E+00  0.45448234375E+02 -0.93380852949E+02  0.16259521492E+03  0.12510632161E+03 0.  0.
          5    1    3    3  502    0 -0.43903765297E+02  0.42831822040E+02 -0.10081592514E+03  0.11808229650E+03  0.41800000000E+01 0. -1.
         -5    1    3    3    0  502  0.43609650239E+02  0.26164123353E+01  0.74350721867E+01  0.44512918416E+02  0.41800000000E+01 0. -1.
        -11    1    1    2    0    0 -0.42161723001E+02 -0.24313311615E+02 -0.62421506838E+02  0.79152969143E+02  0.00000000000E+00 0.  1.
         11    1    1    2    0    0  0.42455838059E+02 -0.21134922760E+02 -0.11984521713E+03  0.12888777760E+03  0.00000000000E+00 0. -1.
</event>
<event>
 7    1  0.2686828E-009  0.1052329E+03  0.7561462E-02  0.1269661E+00
          1   -1    0    0  501    0  0.00000000000E+00  0.00000000000E+00  0.53538160706E+03  0.53538160706E+03  0.00000000000E+00 0. -1.
         -1   -1    0    0    0  501 -0.00000000000E+00 -0.00000000000E+00 -0.22558271422E+02  0.22558271422E+02  0.00000000000E+00 0.  1.
         25    2    1    2    0    0  0.15292065487E+01 -0.15293432380E+02  0.33022703292E+03  0.35345974150E+03  0.12509063931E+03 0.  0.
          5    1    3    3  502    0  0.60617038960E+01  0.54055529083E+02  0.11567731789E+03  0.12789628123E+03  0.41800000000E+01 0. -1.
         -5    1    3    3    0  502 -0.45324973473E+01 -0.69348961463E+02  0.21454971503E+03  0.22556346027E+03  0.41800000000E+01 0. -1.
        -11    1    1    2    0    0  0.20971956412E+02  0.44632720787E+02  0.13801855405E+03  0.14656406102E+03  0.00000000000E+00 0. -1.
         11    1    1    2    0    0 -0.22501162960E+02 -0.29339288407E+02  0.44577748670E+02  0.57916075966E+02  0.00000000000E+00 0.  1.
</event>
<event>
 7    1  0.2686828E-009  0.1015031E+03  0.7561462E-02  0.1277167E+00
         -4   -1    0    0    0  501 -0.00000000000E+00  0.00000000000E+00  0.48698645572E+02  0.48698645572E+02  0.00000000000E+00 0.  1.
          4   -1    0    0  501    0  0.00000000000E+00 -0.00000000000E+00 -0.29414511070E+03  0.29414511070E+03  0.00000000000E+00 0. -1.
         25    2    1    2    0    0 -0.21391262505E+02  0.59606936490E+02 -0.10673273345E+03  0.17621168898E+03  0.12509240566E+03 0.  0.
          5    1    3    3  502    0  0.38442586455E+02  0.68675664068E+02 -0.69167177796E+02  0.10486062260E+03  0.41800000000E+01 0. -1.
         -5    1    3    3    0  502 -0.59833848960E+02 -0.90687275784E+01 -0.37565555651E+02  0.71351066374E+02  0.41800000000E+01 0. -1.
        -11    1    1    2    0    0  0.14129516058E+02 -0.31922655813E+02 -0.12291457785E+02  0.37010527052E+02  0.00000000000E+00 0.  1.
         11    1    1    2    0    0  0.72617464470E+01 -0.27684280677E+02 -0.12642227389E+03  0.12962154024E+03  0.00000000000E+00 0. -1.
</event>
<event>
 7    1  0.2686828E-009  0.1528689E+03  0.7561462E-02  0.1196991E+00
          2   -1    0    0  501    0  0.00000000000E+00  0.00000000000E+00  0.10119271208E+03  0.10119271208E+03  0.00000000000E+00 0. -1.
         -2   -1    0    0    0  501 -0.00000000000E+00 -0.00000000000E+00 -0.28919226163E+03  0.28919226163E+03  0.00000000000E+00 0.  1.
         25    2    1    2    0    0 -0.11698396656E+03  0.53062776103E+02 -0.67881722839E+02  0.19171854034E+03  0.12508862369E+03 0.  0.
          5    1    3    3  502    0 -0.14251181672E+03  0.50635061276E+02 -0.47134608391E+02  0.15846977959E+03  0.41800000000E+01 0.  1.
         -5    1    3    3    0  502  0.25527850167E+02  0.24277148268E+01 -0.20747114448E+02  0.33248760749E+02  0.41800000000E+01 0.  1.
        -11    1    1    2    0    0  0.10304573949E+03 -0.46442293640E+02 -0.13578813985E+03  0.17667407843E+03  0.00000000000E+00 0.  1.
         11    1    1    2    0    0  0.13938227069E+02 -0.66204824622E+01  0.15670313144E+02  0.21992354942E+02  0.00000000000E+00 0. -1.
</event>
<event>
 7    1  0.2686828E-009  0.1421262E+03  0.7561462E-02  0.1210496E+00
          2   -1    0    0  501    0  0.00000000000E+00  0.00000000000E+00  0.35627211510E+03  0.35627211510E+03  0.00000000000E+00 0. -1.
         -2   -1    0    0    0  501 -0.00000000000E+00 -0.00000000000E+00 -0.78002443325E+02  0.78002443325E+02  0.00000000000E+00 0.  1.
         25    2    1    2    0    0 -0.12493119877E+03 -0.16508401041E+02  0.11747274900E+03  0.21290204814E+03  0.12508838320E+03 0.  0.
          5    1    3    3  502    0 -0.55841710117E+02 -0.29385460738E+02 -0.13077685467E+02  0.64577861134E+02  0.41800000000E+01 0. -1.
         -5    1    3    3    0  502 -0.69089488657E+02  0.12877059696E+02  0.13055043447E+03  0.14832418700E+03  0.41800000000E+01 0. -1.
        -11    1    1    2    0    0  0.48063303381E+02  0.47642965710E+02  0.56775266852E+02  0.88336652867E+02  0.00000000000E+00 0.  1.
         11    1    1    2    0    0  0.76867895392E+02 -0.31134564669E+02  0.10402165591E+03  0.13303585742E+03  0.00000000000E+00 0. -1.
</event>
<event>
 7    1  0.2686828E-009  0.8919575E+02  0.7561462E-02  0.1304811E+00
          2   -1    0    0  501    0  0.00000000000E+00  0.00000000000E+00  0.21138252632E+03  0.21138252632E+03  0.00000000000E+00 0. -1.
         -2   -1    0    0    0  501 -0.00000000000E+00 -0.00000000000E+00 -0.65652560755E+02  0.65652560755E+02  0.00000000000E+00 0.  1.
         25    2    1    2    0    0 -0.77953219985E+01 -0.38161005091E+02  0.10658891209E+03  0.16889378782E+03  0.12508751349E+03 0.  0.
          5    1    3    3  502    0 -0.26263753401E+02 -0.49886195575E+02  0.12679192001E+03  0.13882391952E+03  0.41800000000E+01 0. -1.
         -5    1    3    3    0  502  0.18468431402E+02  0.11725190484E+02 -0.20203007924E+02  0.30069868299E+02  0.41800000000E+01 0. -1.
        -11    1    1    2    0    0  0.22364259714E+02 -0.25710035798E+02  0.21516308556E+02  0.40300342271E+02  0.00000000000E+00 0.  1.
         11    1    1    2    0    0 -0.14568937715E+02  0.63871040889E+02  0.17624744920E+02  0.67840956979E+02  0.00000000000E+00 0. -1.
</event>
<event>
 7    1  0.2686828E-009  0.8843752E+02  0.7561462E-02  0.1306680E+00
         -1   -1    0    0    0  501 -0.00000000000E+00  0.00000000000E+00  0.51783383679E+02  0.51783383679E+02  0.00000000000E+00 0.  1.
          1   -1    0    0  501    0  0.00000000000E+00 -0.00000000000E+00 -0.31856410867E+03  0.31856410867E+03  0.00000000000E+00 0. -1.
         25    2    1    2    0    0  0.10605395770E+02  0.70552645001E+02 -0.15388202731E+03  0.21074995535E+03  0.12508283342E+03 0.  0.
          5    1    3    3  502    0  0.28336683017E+02  0.49438526986E+02 -0.28958886938E+01  0.57210087627E+02  0.41800000000E+01 0. -1.
         -5    1    3    3    0  502 -0.17731287247E+02  0.21114118015E+02 -0.15098613861E+03  0.15353986772E+03  0.41800000000E+01 0. -1.
        -11    1    1    2    0    0 -0.33861875125E+02 -0.52220920278E+02 -0.25397311756E+02  0.67221087064E+02  0.00000000000E+00 0.  1.
         11    1    1    2    0    0  0.23256479355E+02 -0.18331724724E+02 -0.87501385933E+02  0.92376449940E+02  0.00000000000E+00 0. -1.
</event>
<event>
 7    1  0.2686828E-009  0.1542209E+03  0.7561462E-02  0.1195380E+00
          1   -1    0    0  501    0  0.00000000000E+00  0.00000000000E+00  0.36894778671E+02  0.36894778671E+02  0.00000000000E+00 0. -1.
         -1   -1    0    0    0  501 -0.00000000000E+00 -0.00000000000E+00 -0.76893578726E+03  0.76893578726E+03  0.00000000000E+00 0.  1.
         25    2    1    2    0    0 -0.10702408792E+03 -0.70455470052E+02 -0.36792880056E+03  0.40918998112E+03  0.12508680870E+03 0.  0.
          5    1    3    3  502    0  0.13618090609E+02 -0.53047060221E+01 -0.15601438085E+03  0.15675315540E+03  0.41800000000E+01 0. -1.
         -5    1    3    3    0  502 -0.12064217853E+03 -0.65150764030E+02 -0.21191441972E+03  0.25243682572E+03  0.41800000000E+01 0. -1.
        -11    1    1    2    0    0  0.50833491659E+02  0.84076619058E+02 -0.20444697899E+03  0.22682920659E+03  0.00000000000E+00 0. -1.
         11    1    1    2    0    0  0.56190596263E+02 -0.13621149006E+02 -0.15966522904E+03  0.16981137822E+03  0.00000000000E+00 0.  1.
</event>
<event>
 7    1  0.2686828E-009  0.8998478E+02  0.7561462E-02  0.1302889E+00
          2   -1    0    0  501    0  0.00000000000E+00  0.00000000000E+00  0.89261861271E+03  0.89261861271E+03  0.00000000000E+00 0.  1.
         -2   -1    0    0    0  501 -0.00000000000E+00 -0.00000000000E+00 -0.17241396712E+02  0.17241396712E+02  0.00000000000E+00 0. -1.
         25    2    1    2    0    0 -0.15254520621E+02 -0.57667221816E+02  0.45366135752E+03  0.47435482238E+03  0.12508261805E+03 0.  0.
          5    1    3    3  502    0  0.45598787471E+01  0.59432741452E+01 -0.56148110389E+01  0.10252487735E+02  0.41800000000E+01 0.  1.
         -5    1    3    3    0  502 -0.19814399368E+02 -0.63610495961E+02  0.45927616856E+03  0.46410233465E+03  0.41800000000E+01 0.  1.
        -11    1    1    2    0    0 -0.35300136680E+02  0.14514661829E+02  0.10093207079E+03  0.10790763630E+03  0.00000000000E+00 0. -1.
         11    1    1    2    0    0  0.50554657301E+02  0.43152559987E+02  0.32078378769E+03  0.32759755075E+03  0.00000000000E+00 0.  1.
</event>
<event>
 7    1  0.2686828E-009  0.1723683E+03  0.7561462E-02  0.1175400E+00
         -1   -1    0    0    0  501 -0.00000000000E+00  0.00000000000E+00  0.29787507841E+03  0.29787507841E+03  0.00000000000E+00 0.  1.
          1   -1    0    0  501    0  0.00000000000E+00 -0.00000000000E+00 -0.10912071413E+03  0.10912071413E+03  0.00000000000E+00 0. -1.
         25    2    1    2    0    0  0.11185650775E+03 -0.76369182874E+02  0.46062686390E+02  0.19003466312E+03  0.12508905503E+03 0.  0.
          5    1    3    3  502    0  0.13628282250E+03 -0.78340720211E+02  0.29051032290E+02  0.15991157253E+03  0.41800000000E+01 0. -1.
         -5    1    3    3    0  502 -0.24426314743E+02  0.19715373369E+01  0.17011654101E+02  0.30123090589E+02  0.41800000000E+01 0. -1.
        -11    1    1    2    0    0 -0.32700465989E+02 -0.19677829473E+02  0.43017607437E+02  0.57506973475E+02  0.00000000000E+00 0.  1.
         11    1    1    2    0    0 -0.79156041765E+02  0.96047012347E+02  0.99674070453E+02  0.15945415595E+03  0.00000000000E+00 0. -1.
</event>
<event>
 7    1  0.2686828E-009  0.1026388E+03  0.7561462E-02  0.1274843E+00
         -2   -1    0    0    0  501 -0.00000000000E+00  0.00000000000E+00  0.10645760797E+03  0.10645760797E+03  0.00000000000E+00 0.  1.
          2   -1    0    0  501    0  0.00000000000E+00 -0.00000000000E+00 -0.12783331666E+03  0.12783331666E+03  0.00000000000E+00 0. -1.
         25    2    1    2    0    0  0.18008103936E+02 -0.38523722665E+02 -0.24764305612E+02  0.13442245083E+03  0.12509098865E+03 0.  0.
          5    1    3    3  502    0 -0.29284679006E+02 -0.66707221369E+02 -0.30135104481E+02  0.78949621464E+02  0.41800000000E+01 0. -1.
         -5    1    3    3    0  502  0.47292782942E+02  0.28183498705E+02  0.53707988695E+01  0.55472829369E+02  0.41800000000E+01 0. -1.
        -11    1    1    2    0    0 -0.27186157488E+02 -0.90418991509E+01  0.32520385956E+02  0.43340726827E+02  0.00000000000E+00 0.  1.
         11    1    1    2    0    0  0.91780535514E+01  0.47565621816E+02 -0.29131789033E+02  0.56527746974E+02  0.00000000000E+00 0. -1.
</event>
<event>
 7    1  0.2686828E-009  0.8704807E+02  0.7561462E-02  0.1310162E+00
          2   -1    0    0  501    0  0.00000000000E+00  0.00000000000E+00  0.12901196782E+04  0.12901196782E+04  0.00000000000E+00 0. -1.
         -2   -1    0    0    0  501 -0.00000000000E+00 -0.00000000000E+00 -0.21446225969E+02  0.21446225969E+02  0.00000000000E+00 0.  1.
         25    2    1    2    0    0 -0.32993104411E+02  0.59475568939E+02  0.10987595940E+04  0.11079465634E+04  0.12508818302E+03 0.  0.
          5    1    3    3  502    0 -0.92487910847E+01  0.75236231351E+02  0.10372745843E+04  0.10400490692E+04  0.41800000000E+01 0. -1.
         -5    1    3    3    0  502 -0.23744313326E+02 -0.15760662412E+02  0.61485009739E+02  0.67897494193E+02  0.41800000000E+01 0. -1.
        -11    1    1    2    0    0  0.18114973588E+02 -0.45452473037E+02  0.17568816815E+03  0.18237437320E+03  0.00000000000E+00 0. -1.
         11    1    1    2    0    0  0.14878130823E+02 -0.14023095902E+02 -0.57743099136E+01  0.21244967650E+02  0.00000000000E+00 0.  1.
</event>
<event>
 7    1  0.2686828E-009  0.1030105E+03  0.7561462E-02  0.1274090E+00
         -1   -1    0    0    0  501 -0.00000000000E+00  0.00000000000E+00  0.44639507966E+02  0.44639507966E+02  0.00000000000E+00 0.  1.
          1   -1    0    0  501    0  0.00000000000E+00 -0.00000000000E+00 -0.32143442549E+03  0.32143442549E+03  0.00000000000E+00 0. -1.
         25    2    1    2    0    0 -0.12059258498E+01 -0.34621059878E+02 -0.10830097575E+03  0.16904654427E+03  0.12509021040E+03 0.  0.
          5    1    3    3  502    0 -0.23182407650E+02 -0.68907663787E+02 -0.26358286359E+02  0.77446251122E+02  0.41800000000E+01 0. -1.
         -5    1    3    3    0  502  0.21976481801E+02  0.34286603909E+02 -0.81942689395E+02  0.91600293151E+02  0.41800000000E+01 0. -1.
        -11    1    1    2    0    0 -0.32856120160E+02 -0.11599369447E+02 -0.26225671845E+02  0.43610272497E+02  0.00000000000E+00 0.  1.
         11    1    1    2    0    0  0.34062046009E+02  0.46220429325E+02 -0.14226826992E+03  0.15341711668E+03  0.00000000000E+00 0. -1.
</event>
<event>
 7    1  0.2686828E-009  0.1235625E+03  0.7561462E-02  0.1237333E+00
         -2   -1    0    0    0  501 -0.00000000000E+00  0.00000000000E+00  0.60846604868E+03  0.60846604868E+03  0.00000000000E+00 0.  1.
          2   -1    0    0  501    0  0.00000000000E+00 -0.00000000000E+00 -0.38282715974E+02  0.38282715974E+02  0.00000000000E+00 0. -1.
         25    2    1    2    0    0  0.70201997033E+02  0.75182226870E+02  0.24694749277E+03  0.29531108013E+03  0.12507950366E+03 0.  0.
          5    1    3    3  502    0  0.22633180772E+02  0.21805585394E+01 -0.90743807955E+01  0.24836112704E+02  0.41800000000E+01 0.  1.
         -5    1    3    3    0  502  0.47568816261E+02  0.73001668330E+02  0.25602187357E+03  0.27047496743E+03  0.41800000000E+01 0.  1.
        -11    1    1    2    0    0 -0.46896627345E+02  0.10432824515E+02  0.92572322640E+02  0.10429655988E+03  0.00000000000E+00 0.  1.
         11    1    1    2    0    0 -0.23305369688E+02 -0.85615051384E+02  0.23066351729E+03  0.24714112464E+03  0.00000000000E+00 0. -1.
</event>
<event>
 7    1  0.2686828E-009  0.2734362E+03  0.7561462E-02  0.1099329E+00
         -2   -1    0    0    0  501 -0.00000000000E+00  0.00000000000E+00  0.48673533631E+03  0.48673533631E+03  0.00000000000E+00 0.  1.
          2   -1    0    0  501    0  0.00000000000E+00 -0.00000000000E+00 -0.18861920220E+03  0.18861920220E+03  0.00000000000E+00 0. -1.
         25    2    1    2    0    0 -0.10820405736E+03  0.22692320055E+03  0.77539938039E+01  0.28090786914E+03  0.12508736766E+03 0.  0.
          5    1    3    3  502    0 -0.73501773091E+02  0.27922721035E+02  0.82348325898E+00  0.78742234679E+02  0.41800000000E+01 0.  1.
         -5    1    3    3    0  502 -0.34702284264E+02  0.19900047952E+03  0.69305105449E+01  0.20216563446E+03  0.41800000000E+01 0.  1.
        -11    1    1    2    0    0  0.32584362186E+01 -0.10569263451E+03  0.13135461122E+03  0.16862853936E+03  0.00000000000E+00 0.  1.
         11    1    1    2    0    0  0.10494562114E+03 -0.12123056604E+03  0.15900752908E+03  0.22581813001E+03  0.00000000000E+00 0. -1.
</event>
<event>
 7    1  0.2686828E-009  0.5525448E+02  0.7561462E-02  0.1418899E+00
         -1   -1    0    0    0  501 -0.00000000000E+00  0.00000000000E+00  0.40183538116E+03  0.40183538116E+03  0.00000000000E+00 0.  1.
          1   -1    0    0  501    0  0.00000000000E+00 -0.00000000000E+00 -0.31775157220E+02  0.31775157220E+02  0.00000000000E+00 0. -1.
         25    2    1    2    0    0 -0.19889195304E+02  0.19383493136E+02  0.24723623715E+03  0.27847593790E+03  0.12510711865E+03 0.  0.
          5    1    3    3  502    0 -0.75301067279E+01  0.31592030645E+02  0.25633957778E+03  0.25842254245E+03  0.41800000000E+01 0. -1.
         -5    1    3    3    0  502 -0.12359088576E+02 -0.12208537509E+02 -0.91033406348E+01  0.20053395454E+02  0.41800000000E+01 0. -1.
        -11    1    1    2    0    0  0.47097101379E+01  0.18497050456E+02 -0.59947187991E+01  0.20006471419E+02  0.00000000000E+00 0. -1.
         11    1    1    2    0    0  0.15179485166E+02 -0.37880543592E+02  0.12881870559E+03  0.13512812906E+03  0.00000000000E+00 0.  1.
</event>
<event>
 7    1  0.2686828E-009  0.1197971E+03  0.7561462E-02  0.1243432E+00
         -2   -1    0    0    0  501 -0.00000000000E+00  0.00000000000E+00  0.52766094577E+02  0.52766094577E+02  0.00000000000E+00 0.  1.
          2   -1    0    0  501    0  0.00000000000E+00 -0.00000000000E+00 -0.29032395968E+03  0.29032395968E+03  0.00000000000E+00 0. -1.
         25    2    1    2    0    0  0.50294819110E+02 -0.10852568701E+01 -0.90204715830E+02  0.16221515362E+03  0.12508444625E+03 0.  0.
          5    1    3    3  502    0 -0.15171107424E+02 -0.50344591875E+02 -0.37233684909E+02  0.64564387424E+02  0.41800000000E+01 0.  1.
         -5    1    3    3    0  502  0.65465926533E+02  0.49259335005E+02 -0.52971030922E+02  0.97650766198E+02  0.41800000000E+01 0.  1.
        -11    1    1    2    0    0 -0.76440035288E+02  0.10214038256E+02 -0.11151235369E+03  0.13558174876E+03  0.00000000000E+00 0.  1.
         11    1    1    2    0    0  0.26145216178E+02 -0.91287813854E+01 -0.35840795585E+02  0.45293151875E+02  0.00000000000E+00 0. -1.
</event>
<event>
 7    1  0.2686828E-009  0.9210754E+02  0.7561462E-02  0.1297827E+00
          1   -1    0    0  501    0  0.00000000000E+00  0.00000000000E+00  0.62464211068E+02  0.62464211068E+02  0.00000000000E+00 0. -1.
         -1   -1    0    0    0  501 -0.00000000000E+00 -0.00000000000E+00 -0.27421484807E+03  0.27421484807E+03  0.00000000000E+00 0.  1.
         25    2    1    2    0    0 -0.15281708228E+02 -0.56632638171E+02 -0.17350093074E+03  0.22179724281E+03  0.12510258846E+03 0.  0.
          5    1    3    3  502    0 -0.39531501672E+02  0.14256668612E+02 -0.12298501269E+02  0.43985426653E+02  0.41800000000E+01 0.  1.
         -5    1    3    3    0  502  0.24249793444E+02 -0.70889306782E+02 -0.16120242947E+03  0.17781181616E+03  0.41800000000E+01 0.  1.
        -11    1    1    2    0    0  0.12005795233E+02  0.19483277009E+01  0.27042396563E+02  0.29651750570E+02  0.00000000000E+00 0. -1.
         11    1    1    2    0    0  0.32759129950E+01  0.54684310470E+02 -0.65292102822E+02  0.85230065754E+02  0.00000000000E+00 0.  1.
</event>
<event>
 7    1  0.2686828E-009  0.2743076E+03  0.7561462E-02  0.1098839E+00
          1   -1    0    0  501    0  0.00000000000E+00  0.00000000000E+00  0.13799673297E+03  0.13799673297E+03  0.00000000000E+00 0. -1.
         -1   -1    0    0    0  501 -0.00000000000E+00 -0.00000000000E+00 -0.61572483298E+03  0.61572483298E+03  0.00000000000E+00 0.  1.
         25    2    1    2    0    0 -0.71071395970E+02  0.25859180286E+03 -0.19909451596E+03  0.35665958736E+03  0.12508625480E+03 0.  0.
          5    1    3    3  502    0 -0.23441575989E+02  0.53367336758E+02 -0.11649020214E+03  0.13032658866E+03  0.41800000000E+01 0.  1.
         -5    1    3    3    0  502 -0.47629819981E+02  0.20522446610E+03 -0.82604313818E+02  0.22633299870E+03  0.41800000000E+01 0.  1.
        -11    1    1    2    0    0  0.78129549905E+02 -0.13740738034E+03 -0.18769916364E+03  0.24538946753E+03  0.00000000000E+00 0.  1.
         11    1    1    2    0    0 -0.70581539353E+01 -0.12118442252E+03 -0.90934420407E+02  0.15167251107E+03  0.00000000000E+00 0. -1.
</event>
<event>
 7    1  0.2686828E-009  0.9618343E+02  0.7561462E-02  0.1288533E+00
         -2   -1    0    0    0  501 -0.00000000000E+00  0.00000000000E+00  0.52082099401E+02  0.52082099401E+02  0.00000000000E+00 0.  1.
          2   -1    0    0  501    0  0.00000000000E+00 -0.00000000000E+00 -0.33404131787E+03  0.33404131787E+03  0.00000000000E+00 0. -1.
         25    2    1    2    0    0 -0.23715443150E+02  0.61923375331E+01 -0.26017368398E+03  0.28972100688E+03  0.12508856344E+03 0.  0.
          5    1    3    3  502    0 -0.16054705760E+02 -0.55132450693E+02 -0.17623630894E+03  0.18540239935E+03  0.41800000000E+01 0.  1.
         -5    1    3    3    0  502 -0.76607373901E+01  0.61324788226E+02 -0.83937375044E+02  0.10431860753E+03  0.41800000000E+01 0.  1.
        -11    1    1    2    0    0 -0.15822766336E+02  0.19940695784E+02  0.20656383277E+02  0.32782273456E+02  0.00000000000E+00 0.  1.
         11    1    1    2    0    0  0.39538209486E+02 -0.26133033317E+02 -0.42441917763E+02  0.63620136931E+02  0.00000000000E+00 0. -1.
</event>
<event>
 7    1  0.2686828E-009  0.1626802E+03  0.7561462E-02  0.1185704E+00
         -2   -1    0    0    0  501 -0.00000000000E+00  0.00000000000E+00  0.50024406559E+02  0.50024406559E+02  0.00000000000E+00 0.  1.
          2   -1    0    0  501    0  0.00000000000E+00 -0.00000000000E+00 -0.69113872802E+03  0.69113872802E+03  0.00000000000E+00 0. -1.
         25    2    1    2    0    0  0.13521370790E+03  0.65781073070E+02 -0.30410602060E+03  0.36157586717E+03  0.12508692809E+03 0.  0.
          5    1    3    3  502    0  0.51997727484E+02  0.22610589790E+02 -0.24307267091E+03  0.24963332746E+03  0.41800000000E+01 0. -1.
         -5    1    3    3    0  502  0.83215980411E+02  0.43170483280E+02 -0.61033349683E+02  0.11194253971E+03  0.41800000000E+01 0. -1.
        -11    1    1    2    0    0 -0.10727337321E+03 -0.45610228090E+01 -0.20502218293E+03  0.23143568226E+03  0.00000000000E+00 0.  1.
         11    1    1    2    0    0 -0.27940334689E+02 -0.61220050262E+02 -0.13198611793E+03  0.14815158515E+03  0.00000000000E+00 0. -1.
</event>
<event>
 7    1  0.2686828E-009  0.1088079E+03  0.7561462E-02  0.1262793E+00
         -1   -1    0    0    0  501 -0.00000000000E+00  0.00000000000E+00  0.20755205993E+02  0.20755205993E+02  0.00000000000E+00 0.  1.
          1   -1    0    0  501    0  0.00000000000E+00 -0.00000000000E+00 -0.10626246541E+04  0.10626246541E+04  0.00000000000E+00 0. -1.
         25    2    1    2    0    0 -0.30782993647E+02 -0.85819859508E+02 -0.40212474542E+03  0.43088772669E+03  0.12508909286E+03 0.  0.
          5    1    3    3  502    0 -0.18626345376E+02 -0.38370048201E+02 -0.36929439717E+03  0.37177281439E+03  0.41800000000E+01 0.  1.
         -5    1    3    3    0  502 -0.12156648271E+02 -0.47449811307E+02 -0.32830348255E+02  0.59114912305E+02  0.41800000000E+01 0.  1.
        -11    1    1    2    0    0  0.60992251136E+02  0.51034620983E+02 -0.46628288169E+03  0.47301618682E+03  0.00000000000E+00 0. -1.
         11    1    1    2    0    0 -0.30209257489E+02  0.34785238526E+02 -0.17346182104E+03  0.17947594662E+03  0.00000000000E+00 0.  1.
</event>
<event>
 7    1  0.2686828E-009  0.1105046E+03  0.7561462E-02  0.1259638E+00
         -1   -1    0    0    0  501 -0.00000000000E+00  0.00000000000E+00  0.82703042895E+03  0.82703042895E+03  0.00000000000E+00 0.  1.
          1   -1    0    0  501    0  0.00000000000E+00 -0.00000000000E+00 -0.17760345024E+02  0.17760345024E+02  0.00000000000E+00 0. -1.
         25    2    1    2    0    0 -0.42779218582E+02 -0.31817861916E+01  0.54991790487E+03  0.56559606260E+03  0.12509603762E+03 0.  0.
          5    1    3    3  502    0 -0.77627107932E+02 -0.27213986403E+02  0.44178569599E+03  0.44939808914E+03  0.41800000000E+01 0.  1.
         -5    1    3    3    0  502  0.34847889349E+02  0.24032200211E+02  0.10813220888E+03  0.11619797346E+03  0.41800000000E+01 0.  1.
        -11    1    1    2    0    0 -0.25499314174E+02  0.10210541972E+02  0.34498311559E+02  0.44097660835E+02  0.00000000000E+00 0. -1.
         11    1    1    2    0    0  0.68278532757E+02 -0.70287557804E+01  0.22485386750E+03  0.23509705054E+03  0.00000000000E+00 0.  1.
</event>
<event>
 7    1  0.2686828E-009  0.1053681E+03  0.7561462E-02  0.1269396E+00
          2   -1    0    0  501    0  0.00000000000E+00  0.00000000000E+00  0.64298768904E+03  0.64298768904E+03  0.00000000000E+00 0. -1.
         -2   -1    0    0    0  501 -0.00000000000E+00 -0.00000000000E+00 -0.32525411411E+02  0.32525411411E+02  0.00000000000E+00 0.  1.
         25    2    1    2    0    0  0.36759901930E+02  0.73534151597E+02  0.21805578137E+03  0.26448692246E+03  0.12508575669E+03 0.  0.
          5    1    3    3  502    0  0.37837474438E+02  0.39101275153E+02  0.22286844532E+03  0.22945239268E+03  0.41800000000E+01 0. -1.
         -5    1    3    3    0  502 -0.10775725077E+01  0.34432876443E+02 -0.48126639487E+01  0.35034529781E+02  0.41800000000E+01 0. -1.
        -11    1    1    2    0    0 -0.24302943144E+02  0.17265775698E+02  0.11852921651E+03  0.12222076429E+03  0.00000000000E+00 0. -1.
         11    1    1    2    0    0 -0.12456958786E+02 -0.90799927295E+02  0.27387727975E+03  0.28880541370E+03  0.00000000000E+00 0.  1.
</event>
<event>
 7    1  0.2686828E-009  0.1116929E+03  0.7561462E-02  0.1257467E+00
          1   -1    0    0  501    0  0.00000000000E+00  0.00000000000E+00  0.32916521702E+02  0.32916521702E+02  0.00000000000E+00 0. -1.
         -1   -1    0    0    0  501 -0.00000000000E+00 -0.00000000000E+00 -0.61792624803E+03  0.61792624803E+03  0.00000000000E+00 0.  1.
         25    2    1    2    0    0  0.85330983175E+02 -0.30414572382E+02 -0.30903549905E+03  0.34548030907E+03  0.12508909379E+03 0.  0.
          5    1    3    3  502    0 -0.15964753121E+02  0.14121189959E+02 -0.15075045352E+03  0.15230710090E+03  0.41800000000E+01 0. -1.
         -5    1    3    3    0  502  0.10129573630E+03 -0.44535762342E+02 -0.15828504552E+03  0.19317320817E+03  0.41800000000E+01 0. -1.
        -11    1    1    2    0    0 -0.46836414211E+02  0.20853512046E+02 -0.25575303468E+03  0.26084120344E+03  0.00000000000E+00 0.  1.
         11    1    1    2    0    0 -0.38494568964E+02  0.95610603362E+01 -0.20221192600E+02  0.44521257222E+02  0.00000000000E+00 0. -1.
</event>
<event>
 7    1  0.2686828E-009  0.1277199E+03  0.7561462E-02  0.1230879E+00
         -2   -1    0    0    0  501 -0.00000000000E+00  0.00000000000E+00  0.43521908671E+02  0.43521908671E+02  0.00000000000E+00 0.  1.
          2   -1    0    0  501    0  0.00000000000E+00 -0.00000000000E+00 -0.52548182780E+03  0.52548182780E+03  0.00000000000E+00 0. -1.
         25    2    1    2    0    0  0.96546535126E+02  0.45070132087E+01 -0.17917262655E+03  0.23894017611E+03  0.12509209024E+03 0.  0.
          5    1    3    3  502    0  0.40697431770E+02  0.40600243444E+02 -0.15930735859E+03  0.16941359928E+03  0.41800000000E+01 0.  1.
         -5    1    3    3    0  502  0.55849103356E+02 -0.36093230236E+02 -0.19865267964E+02  0.69526576831E+02  0.41800000000E+01 0.  1.
        -11    1    1    2    0    0 -0.15252553574E+02  0.36909941714E+02 -0.10097515355E+03  0.10858621377E+03  0.00000000000E+00 0. -1.
         11    1    1    2    0    0 -0.81293981552E+02 -0.41416954923E+02 -0.20181213903E+03  0.22147734659E+03  0.00000000000E+00 0.  1.
</event>
<event>
 7    1  0.2686828E-009  0.8184142E+02  0.7561462E-02  0.1323905E+00
         -3   -1    0    0    0  501 -0.00000000000E+00  0.00000000000E+00  0.40509923840E+03  0.40509923840E+03  0.00000000000E+00 0.  1.
          3   -1    0    0  501    0  0.00000000000E+00 -0.00000000000E+00 -0.35274159605E+02  0.35274159605E+02  0.00000000000E+00 0. -1.
         25    2    1    2    0    0  0.52476768642E+00 -0.22792220154E+01  0.11665143959E+03  0.17106140495E+03  0.12509586592E+03 0.  0.
          5    1    3    3  502    0 -0.38166298233E+02  0.17837567607E+02 -0.41722836245E+01  0.42540868463E+02  0.41800000000E+01 0.  1.
         -5    1    3    3    0  502  0.38691065920E+02 -0.20116789622E+02  0.12082372322E+03  0.12852053649E+03  0.41800000000E+01 0.  1.
        -11    1    1    2    0    0  0.16765941300E+02  0.35961501135E+02  0.56580552499E+02  0.69106333086E+02  0.00000000000E+00 0. -1.
         11    1    1    2    0    0 -0.17290708986E+02 -0.33682279119E+02  0.19659308671E+03  0.20020565997E+03  0.00000000000E+00 0.  1.
</event>
<event>
 7    1  0.2686828E-009  0.1120928E+03  0.7561462E-02  0.1256743E+00
          2   -1    0    0  501    0  0.00000000000E+00  0.00000000000E+00  0.24449379229E+03  0.24449379229E+03  0.00000000000E+00 0.  1.
         -2   -1    0    0    0  501 -0.00000000000E+00 -0.00000000000E+00 -0.60680897518E+02  0.60680897518E+02  0.00000000000E+00 0. -1.
         25    2    1    2    0    0 -0.18385369474E+01 -0.51174884464E+02  0.11585317401E+03  0.17803178841E+03  0.12510439935E+03 0.  0.
          5    1    3    3  502    0 -0.45303635918E+02 -0.58762508261E+02  0.27601636155E+02  0.79276569824E+02  0.41800000000E+01 0. -1.
         -5    1    3    3    0  502  0.43465098971E+02  0.75876237976E+01  0.88251537856E+02  0.98755218583E+02  0.41800000000E+01 0. -1.
        -11    1    1    2    0    0 -0.35291432294E+02 -0.75317890374E+01  0.34945853845E+02  0.50233711195E+02  0.00000000000E+00 0.  1.
         11    1    1    2    0    0  0.37129969241E+02  0.58706673501E+02  0.33013866916E+02  0.76909190206E+02  0.00000000000E+00 0. -1.
</event>
<event>
 7    1  0.2686828E-009  0.1402343E+03  0.7561462E-02  0.1213014E+00
         -2   -1    0    0    0  501 -0.00000000000E+00  0.00000000000E+00  0.65114381578E+02  0.65114381578E+02  0.00000000000E+00 0.  1.
          2   -1    0    0  501    0  0.00000000000E+00 -0.00000000000E+00 -0.54280375273E+03  0.54280375273E+03  0.00000000000E+00 0. -1.
         25    2    1    2    0    0  0.99024278901E+02 -0.50355581855E+02 -0.80366446490E+02  0.18559229700E+03  0.12507694651E+03 0.  0.
          5    1    3    3  502    0  0.67133132613E+02  0.16463737600E+02 -0.86935028209E+02  0.11114442712E+03  0.41800000000E+01 0. -1.
         -5    1    3    3    0  502  0.31891146287E+02 -0.66819319455E+02  0.65685817182E+01  0.74447869880E+02  0.41800000000E+01 0. -1.
        -11    1    1    2    0    0 -0.10741292178E+03  0.24901381784E+02 -0.35907394645E+03  0.37562176934E+03  0.00000000000E+00 0.  1.
         11    1    1    2    0    0  0.83886428822E+01  0.25454200071E+02 -0.38248978209E+02  0.46704067967E+02  0.00000000000E+00 0. -1.
</event>
<event>
 7    1  0.2686828E-009  0.1436295E+03  0.7561462E-02  0.1208527E+00
         -1   -1    0    0    0  501 -0.00000000000E+00  0.00000000000E+00  0.43518172765E+03  0.43518172765E+03  0.00000000000E+00 0.  1.
          1   -1    0    0  501    0  0.00000000000E+00 -0.00000000000E+00 -0.65185398853E+02  0.65185398853E+02  0.00000000000E+00 0. -1.
         25    2    1    2    0    0 -0.33278660115E+02  0.12402307114E+03  0.19019258598E+03  0.26136449570E+03  0.12509591704E+03 0.  0.
          5    1    3    3  502    0 -0.92841333936E+01  0.15200418466E+02  0.13627730243E+03  0.13749990331E+03  0.41800000000E+01 0.  1.
         -5    1    3    3    0  502 -0.23994526722E+02  0.10882265267E+03  0.53915283552E+02  0.12386459239E+03  0.41800000000E+01 0.  1.
        -11    1    1    2    0    0 -0.31837661284E+02 -0.42937323870E+02  0.62250279478E+02  0.82050885140E+02  0.00000000000E+00 0.  1.
         11    1    1    2    0    0  0.65116321399E+02 -0.81085747268E+02  0.11755346334E+03  0.15695174566E+03  0.00000000000E+00 0. -1.
</event>
<event>
 7    1  0.2686828E-009  0.9998340E+02  0.7561462E-02  0.1280331E+00
          1   -1    0    0  501    0  0.00000000000E+00  0.00000000000E+00  0.79593358235E+02  0.79593358235E+02  0.00000000000E+00 0. -1.
         -1   -1    0    0    0  501 -0.00000000000E+00 -0.00000000000E+00 -0.24131891918E+03  0.24131891918E+03  0.00000000000E+00 0.  1.
         25    2    1    2    0    0 -0.53607453024E+02  0.10881560892E+02 -0.16504454039E+03  0.21419619446E+03  0.12509253384E+03 0.  0.
          5    1    3    3  502    0 -0.72556551590E+02  0.16421203725E+01 -0.31999857197E+02  0.79426777591E+02  0.41800000000E+01 0.  1.
         -5    1    3    3    0  502  0.18949098566E+02  0.92394405195E+01 -0.13304468319E+03  0.13476941687E+03  0.41800000000E+01 0.  1.
        -11    1    1    2    0    0 -0.18009200682E+02 -0.26920219681E+02  0.73594528926E+01  0.33214320462E+02  0.00000000000E+00 0.  1.
         11    1    1    2    0    0  0.71616653706E+02  0.16038658789E+02 -0.40404734478E+01  0.73501762492E+02  0.00000000000E+00 0. -1.
</event>
<event>
 7    1  0.2950370E-009  0.1354425E+03  0.7561462E-02  0.1219596E+00
         -1   -1    0    0    0  501 -0.00000000000E+00  0.00000000000E+00  0.89160558233E+02  0.89160558233E+02  0.00000000000E+00 0.  1.
          1   -1    0    0  501    0  0.00000000000E+00 -0.00000000000E+00 -0.30576663878E+03  0.30576663878E+03  0.00000000000E+00 0. -1.
         25    2    1    2    0    0  0.12127652538E+03 -0.23020449276E+02 -0.11990944156E+03  0.21275389915E+03  0.12509200908E+03 0.  0.
          5    1    3    3  502    0  0.12612886725E+03 -0.31869416352E+02 -0.46011812636E+02  0.13805328737E+03  0.41800000000E+01 0.  1.
         -5    1    3    3    0  502 -0.48523418691E+01  0.88489670763E+01 -0.73897628928E+02  0.74700611785E+02  0.41800000000E+01 0.  1.
        -11    1    1    2    0    0 -0.91558024053E+02  0.34640582832E+02 -0.21131166172E+02  0.10014673200E+03  0.00000000000E+00 0.  1.
         11    1    1    2    0    0 -0.29718501323E+02 -0.11620133556E+02 -0.75565472807E+02  0.82026565851E+02  0.00000000000E+00 0. -1.
</event>
<event>
 7    1  0.2686828E-009  0.1145405E+03  0.7561462E-02  0.1252385E+00
         -1   -1    0    0    0  501 -0.00000000000E+00  0.00000000000E+00  0.19971671344E+02  0.19971671344E+02  0.00000000000E+00 0.  1.
          1   -1    0    0  501    0  0.00000000000E+00 -0.00000000000E+00 -0.86867916046E+03  0.86867916046E+03  0.00000000000E+00 0. -1.
         25    2    1    2    0    0  0.70611627749E+02 -0.16975534123E+02 -0.50460423088E+03  0.52492461662E+03  0.12508498144E+03 0.  0.
          5    1    3    3  502    0  0.53679364121E+02 -0.58057942043E+02 -0.43564639589E+03  0.44278375469E+03  0.41800000000E+01 0.  1.
         -5    1    3    3    0  502  0.16932263628E+02  0.41082407920E+02 -0.68957834987E+02  0.82140861927E+02  0.41800000000E+01 0.  1.
        -11    1    1    2    0    0 -0.73758418882E+00 -0.24169233161E+02 -0.26237247864E+02  0.35680373281E+02  0.00000000000E+00 0.  1.
         11    1    1    2    0    0 -0.69874043560E+02  0.41144767284E+02 -0.31786601037E+03  0.32804584190E+03  0.00000000000E+00 0. -1.
</event>
<event>
 7    1  0.2686828E-009  0.1698185E+03  0.7561462E-02  0.1178037E+00
          2   -1    0    0  501    0  0.00000000000E+00  0.00000000000E+00  0.73826090822E+03  0.73826090822E+03  0.00000000000E+00 0. -1.
         -2   -1    0    0    0  501 -0.00000000000E+00 -0.00000000000E+00 -0.40048109861E+02  0.40048109861E+02  0.00000000000E+00 0.  1.
         25    2    1    2    0    0  0.48663860109E+01  0.13132734494E+03  0.32692246989E+03  0.37389413580E+03  0.12509184716E+03 0.  0.
          5    1    3    3  502    0  0.63100546066E+02  0.77356902473E+02  0.20922224374E+03  0.23185596595E+03  0.41800000000E+01 0.  1.
         -5    1    3    3    0  502 -0.58234160055E+02  0.53970442468E+02  0.11770022615E+03  0.14203816985E+03  0.41800000000E+01 0.  1.
        -11    1    1    2    0    0 -0.45875210650E+02 -0.43212544814E+02  0.13972550160E+03  0.15328103203E+03  0.00000000000E+00 0. -1.
         11    1    1    2    0    0  0.41008824639E+02 -0.88114800128E+02  0.23156482686E+03  0.25113385025E+03  0.00000000000E+00 0.  1.
</event>
<event>
 7    1  0.2686828E-009  0.1220187E+03  0.7561462E-02  0.1239804E+00
         -2   -1    0    0    0  501 -0.00000000000E+00  0.00000000000E+00  0.10564264281E+03  0.10564264281E+03  0.00000000000E+00 0.  1.
          2   -1    0    0  501    0  0.00000000000E+00 -0.00000000000E+00 -0.21802038216E+03  0.21802038216E+03  0.00000000000E+00 0. -1.
         25    2    1    2    0    0  0.26948198500E+02  0.95406143549E+02 -0.10395497426E+03  0.19047781855E+03  0.12508647033E+03 0.  0.
          5    1    3    3  502    0  0.37935912739E+02  0.98663953067E+02 -0.22551541760E+02  0.10816539902E+03  0.41800000000E+01 0.  1.
         -5    1    3    3    0  502 -0.10987714240E+02 -0.32578095179E+01 -0.81403432495E+02  0.82312419531E+02  0.41800000000E+01 0.  1.
        -11    1    1    2    0    0 -0.50090029763E+02 -0.34299410817E+02  0.17044947035E+02  0.63055458792E+02  0.00000000000E+00 0.  1.
         11    1    1    2    0    0  0.23141831263E+02 -0.61106732732E+02 -0.25467712130E+02  0.70129747615E+02  0.00000000000E+00 0. -1.
</event>
<event>
 7    1  0.2686828E-009  0.1365961E+03  0.7561462E-02  0.1217984E+00
          1   -1    0    0  501    0  0.00000000000E+00  0.00000000000E+00  0.93282520281E+03  0.93282520281E+03  0.00000000000E+00 0. -1.
         -1   -1    0    0    0  501 -0.00000000000E+00 -0.00000000000E+00 -0.28567167062E+02  0.28567167062E+02  0.00000000000E+00 0.  1.
         25    2    1    2    0    0 -0.15079022790E+02 -0.11418852043E+03  0.35248693244E+03  0.39135642961E+03  0.12508565998E+03 0.  0.
          5    1    3    3  502    0  0.85115282745E+01 -0.11246245045E+03  0.34935499704E+03  0.36713299393E+03  0.41800000000E+01 0. -1.
         -5    1    3    3    0  502 -0.23590551064E+02 -0.17260699825E+01  0.31319353998E+01  0.24223435686E+02  0.41800000000E+01 0. -1.
        -11    1    1    2    0    0  0.42474587797E+02  0.44920654039E+02  0.33929507275E+03  0.34488128706E+03  0.00000000000E+00 0. -1.
         11    1    1    2    0    0 -0.27395565007E+02  0.69267866395E+02  0.21247603056E+03  0.22515465320E+03  0.00000000000E+00 0.  1.
</event>
<event>
 7    1  0.2686828E-009  0.9694719E+02  0.7561462E-02  0.1286850E+00
          2   -1    0    0  501    0  0.00000000000E+00  0.00000000000E+00  0.10851112354E+04  0.10851112354E+04  0.00000000000E+00 0.  1.
         -2   -1    0    0    0  501 -0.00000000000E+00 -0.00000000000E+00 -0.14842812841E+02  0.14842812841E+02  0.00000000000E+00 0. -1.
         25    2    1    2    0    0  0.52192662007E+02  0.33743982745E+02  0.69099527524E+03  0.70497141092E+03  0.12508992553E+03 0.  0.
          5    1    3    3  502    0  0.39473245295E+02  0.52720824018E+02  0.15488245843E+03  0.16835578608E+03  0.41800000000E+01 0.  1.
         -5    1    3    3    0  502  0.12719416711E+02 -0.18976841273E+02  0.53611281681E+03  0.53661562484E+03  0.41800000000E+01 0.  1.
        -11    1    1    2    0    0 -0.74767834736E+02 -0.17288140323E+02  0.32505132303E+03  0.33398723255E+03  0.00000000000E+00 0.  1.
         11    1    1    2    0    0  0.22575172730E+02 -0.16455842422E+02  0.54221824302E+02  0.60995404780E+02  0.00000000000E+00 0. -1.
</event>
<event>
 7    1  0.2686828E-009  0.9764636E+02  0.7561462E-02  0.1285325E+00
          2   -1    0    0  501    0  0.00000000000E+00  0.00000000000E+00  0.82242950735E+02  0.82242950735E+02  0.00000000000E+00 0.  1.
         -2   -1    0    0    0  501 -0.00000000000E+00 -0.00000000000E+00 -0.20325728084E+03  0.20325728084E+03  0.00000000000E+00 0. -1.
         25    2    1    2    0    0  0.56563907817E+02  0.10447938377E+02 -0.11011188717E+03  0.17629692267E+03  0.12508933673E+03 0.  0.
          5    1    3    3  502    0  0.60558135702E+02 -0.26626188812E+02 -0.71002533161E+01  0.66664291247E+02  0.41800000000E+01 0. -1.
         -5    1    3    3    0  502 -0.39942278843E+01  0.37074127189E+02 -0.10301163386E+03  0.10963263142E+03  0.41800000000E+01 0. -1.
        -11    1    1    2    0    0 -0.64064604660E+02 -0.29854820269E+02  0.18615346876E+02  0.73089773586E+02  0.00000000000E+00 0.  1.
         11    1    1    2    0    0  0.75006968431E+01  0.19406881891E+02 -0.29517789803E+02  0.36113535312E+02  0.00000000000E+00 0. -1.
</event>
<event>
 7    1  0.2686828E-009  0.1127443E+03  0.7561462E-02  0.1255571E+00
          2   -1    0    0  501    0  0.00000000000E+00  0.00000000000E+00  0.20925955038E+03  0.20925955038E+03  0.00000000000E+00 0. -1.
         -2   -1    0    0    0  501 -0.00000000000E+00 -0.00000000000E+00 -0.78897340412E+02  0.78897340412E+02  0.00000000000E+00 0.  1.
         25    2    1    2    0    0 -0.15256251439E+02 -0.28867456891E+02  0.14097779500E+03  0.19127898179E+03  0.12508727720E+03 0.  0.
          5    1    3    3  502    0  0.38622635635E+02  0.30208699311E+02  0.53122468204E+02  0.72413690180E+02  0.41800000000E+01 0.  1.
         -5    1    3    3    0  502 -0.53878887074E+02 -0.59076156202E+02  0.87855326794E+02  0.11886529161E+03  0.41800000000E+01 0.  1.
        -11    1    1    2    0    0 -0.36919368557E+02  0.71536563349E+00 -0.60226227242E+01  0.37414215308E+02  0.00000000000E+00 0.  1.
         11    1    1    2    0    0  0.52175619996E+02  0.28152091258E+02 -0.45929623102E+01  0.59463693687E+02  0.00000000000E+00 0. -1.
</event>
<event>
 7    1  0.2686828E-009  0.1724530E+03  0.7561462E-02  0.1175314E+00
         -2   -1    0    0    0  501 -0.00000000000E+00  0.00000000000E+00  0.88178073965E+02  0.88178073965E+02  0.00000000000E+00 0.  1.
          2   -1    0    0  501    0  0.00000000000E+00 -0.00000000000E+00 -0.36004807100E+03  0.36004807100E+03  0.00000000000E+00 0. -1.
         25    2    1    2    0    0  0.12715779022E+03 -0.55610587498E+02 -0.17511203712E+03  0.25607334523E+03  0.12509073323E+03 0.  0.
          5    1    3    3  502    0  0.97224385986E+02 -0.94138131674E+02 -0.14594180374E+03  0.19907549208E+03  0.41800000000E+01 0.  1.
         -5    1    3    3    0  502  0.29933404234E+02  0.38527544177E+02 -0.29170233375E+02  0.56997853157E+02  0.41800000000E+01 0.  1.
        -11    1    1    2    0    0 -0.79117884207E+02 -0.94361702010E+01 -0.72507545194E+02  0.10773126296E+03  0.00000000000E+00 0. -1.
         11    1    1    2    0    0 -0.48039906012E+02  0.65046757699E+02 -0.24250414726E+02  0.84421536773E+02  0.00000000000E+00 0.  1.
</event>
<event>
 7    1  0.2686828E-009  0.1337229E+03  0.7561462E-02  0.1222034E+00
         -1   -1    0    0    0  501 -0.00000000000E+00  0.00000000000E+00  0.18805000314E+03  0.18805000314E+03  0.00000000000E+00 0.  1.
          1   -1    0    0  501    0  0.00000000000E+00 -0.00000000000E+00 -0.12176305101E+03  0.12176305101E+03  0.00000000000E+00 0. -1.
         25    2    1    2    0    0 -0.21031814412E+02  0.84122000994E+02  0.96961906503E+02  0.18046500637E+03  0.12508860438E+03 0.  0.
          5    1    3    3  502    0 -0.13925936924E+02  0.11309600848E+03  0.49628472452E+02  0.12435874127E+03  0.41800000000E+01 0. -1.
         -5    1    3    3    0  502 -0.71058774877E+01 -0.28974007486E+02  0.47333434050E+02  0.56106265102E+02  0.41800000000E+01 0. -1.
        -11    1    1    2    0    0 -0.14307367507E+02  0.13378358302E+02 -0.14537063630E+02  0.24392774644E+02  0.00000000000E+00 0. -1.
         11    1    1    2    0    0  0.35339181919E+02 -0.97500359295E+02 -0.16137890736E+02  0.10495527313E+03  0.00000000000E+00 0.  1.
</event>
<event>
 7    1  0.2686828E-009  0.1738190E+03  0.7561462E-02  0.1173923E+00
          1   -1    0    0  501    0  0.00000000000E+00  0.00000000000E+00  0.26914761707E+03  0.26914761707E+03  0.00000000000E+00 0. -1.
         -1   -1    0    0    0  501 -0.00000000000E+00 -0.00000000000E+00 -0.15241675495E+03  0.15241675495E+03  0.00000000000E+00 0.  1.
         25    2    1    2    0    0  0.13555979082E+03 -0.90907695927E+02  0.10330802273E+02  0.20590147464E+03  0.12509206896E+03 0.  0.
          5    1    3    3  502    0 -0.39991041287E+01  0.30237697611E+01  0.35196660607E+02  0.35796834152E+02  0.41800000000E+01 0. -1.
         -5    1    3    3    0  502  0.13955889495E+03 -0.93931465688E+02 -0.24865858334E+02  0.17010464049E+03  0.41800000000E+01 0. -1.
        -11    1    1    2    0    0 -0.10195088786E+03  0.35359046351E+02  0.10523605190E+03  0.15072780870E+03  0.00000000000E+00 0.  1.
         11    1    1    2    0    0 -0.33608902956E+02  0.55548649576E+02  0.11640079420E+01  0.64935088682E+02  0.00000000000E+00 0. -1.
</event>
<event>
 7    1  0.2686828E-009  0.1135238E+03  0.7561462E-02  0.1254180E+00
          2   -1    0    0  501    0  0.00000000000E+00  0.00000000000E+00  0.98332363229E+02  0.98332363229E+02  0.00000000000E+00 0. -1.
         -2   -1    0    0    0  501 -0.00000000000E+00 -0.00000000000E+00 -0.18834935496E+03  0.18834935496E+03  0.00000000000E+00 0.  1.
         25    2    1    2    0    0  0.49932603986E+02 -0.60222782645E+02 -0.22307266562E+02  0.14921308953E+03  0.12508750320E+03 0.  0.
          5    1    3    3  502    0 -0.27987834699E+01 -0.80116934471E+02  0.14769566884E+02  0.81622110264E+02  0.41800000000E+01 0. -1.
         -5    1    3    3    0  502  0.52731387456E+02  0.19894151827E+02 -0.37076833446E+02  0.67590979267E+02  0.41800000000E+01 0. -1.
        -11    1    1    2    0    0 -0.57947210691E+02  0.46212253296E+02 -0.85696132446E+02  0.11330171533E+03  0.00000000000E+00 0.  1.
         11    1    1    2    0    0  0.80146067046E+01  0.14010529348E+02  0.17986407272E+02  0.24166913328E+02  0.00000000000E+00 0. -1.
</event>
<event>
 7    1  0.2686828E-009  0.1182630E+03  0.7561462E-02  0.1245990E+00
         -2   -1    0    0    0  501 -0.00000000000E+00  0.00000000000E+00  0.34377428626E+02  0.34377428626E+02  0.00000000000E+00 0.  1.
          2   -1    0    0  501    0  0.00000000000E+00 -0.00000000000E+00 -0.52865836035E+03  0.52865836035E+03  0.00000000000E+00 0. -1.
         25    2    1    2    0    0  0.40175444971E+02 -0.38960466926E+02 -0.15413566844E+03  0.20624557162E+03  0.12508975644E+03 0.  0.
          5    1    3    3  502    0  0.80943370680E+02 -0.82583083175E+00 -0.90526962882E+02  0.12151178816E+03  0.41800000000E+01 0.  1.
         -5    1    3    3    0  502 -0.40767925709E+02 -0.38134636095E+02 -0.63608705557E+02  0.84733783459E+02  0.41800000000E+01 0.  1.
        -11    1    1    2    0    0 -0.43413415901E+02 -0.14622599643E+02 -0.22674262799E+03  0.23132393834E+03  0.00000000000E+00 0. -1.
         11    1    1    2    0    0  0.32379709297E+01  0.53583066569E+02 -0.11340263530E+03  0.12546627902E+03  0.00000000000E+00 0.  1.
</event>
<event>
 7    1  0.2686828E-009  0.1683523E+03  0.7561462E-02  0.1179577E+00
          2   -1    0    0  501    0  0.00000000000E+00  0.00000000000E+00  0.33509033759E+03  0.33509033759E+03  0.00000000000E+00 0. -1.
         -2   -1    0    0    0  501 -0.00000000000E+00 -0.00000000000E+00 -0.11342674912E+03  0.11342674912E+03  0.00000000000E+00 0.  1.
         25    2    1    2    0    0  0.11394557068E+03  0.76211337380E+02  0.21491881686E+03  0.28395281754E+03  0.12508934297E+03 0.  0.
          5    1    3    3  502    0  0.14109512526E+03  0.67003761308E+02  0.18739841744E+03  0.24399380660E+03  0.41800000000E+01 0. -1.
         -5    1    3    3    0  502 -0.27149554579E+02  0.92075760720E+01  0.27520399426E+02  0.39959010942E+02  0.41800000000E+01 0. -1.
        -11    1    1    2    0    0 -0.48448220020E+01 -0.34246544299E+02 -0.25886471598E+02  0.43201938712E+02  0.00000000000E+00 0.  1.
         11    1    1    2    0    0 -0.10910074868E+03 -0.41964793081E+02  0.32631243201E+02  0.12136233046E+03  0.00000000000E+00 0. -1.
</event>
<event>
 7    1  0.2686828E-009  0.1284903E+03  0.7561462E-02  0.1229713E+00
          4   -1    0    0  501    0  0.00000000000E+00  0.00000000000E+00  0.82243427534E+03  0.82243427534E+03  0.00000000000E+00 0. -1.
         -4   -1    0    0    0  501 -0.00000000000E+00 -0.00000000000E+00 -0.20894062606E+02  0.20894062606E+02  0.00000000000E+00 0.  1.
         25    2    1    2    0    0  0.64025639013E+02 -0.35301857948E+02  0.48738317732E+03  0.50846377046E+03  0.12509013032E+03 0.  0.
          5    1    3    3  502    0  0.10002311407E+03 -0.32262848451E+02  0.40453935106E+03  0.41798932246E+03  0.41800000000E+01 0.  1.
         -5    1    3    3    0  502 -0.35997475060E+02 -0.30390094973E+01  0.82843826270E+02  0.90474447997E+02  0.41800000000E+01 0.  1.
        -11    1    1    2    0    0  0.22506470241E+02  0.15776007109E+01  0.74523210430E+02  0.77863591746E+02  0.00000000000E+00 0. -1.
         11    1    1    2    0    0 -0.86532109254E+02  0.33724257237E+02  0.23963382498E+03  0.25700097575E+03  0.00000000000E+00 0.  1.
</event>
<event>
 7    1  0.2686828E-009  0.9878234E+02  0.7561462E-02  0.1282878E+00
         -1   -1    0    0    0  501 -0.00000000000E+00  0.00000000000E+00  0.16336127472E+02  0.16336127472E+02  0.00000000000E+00 0.  1.
          1   -1    0    0  501    0  0.00000000000E+00 -0.00000000000E+00 -0.86209570340E+03  0.86209570340E+03  0.00000000000E+00 0. -1.
         25    2    1    2    0    0  0.12024580862E+01  0.50650599597E+02 -0.51266354312E+03  0.53013010735E+03  0.12508834131E+03 0.  0.
          5    1    3    3  502    0  0.40311978028E+02  0.39741387300E+01 -0.55110347327E+02  0.68523515188E+02  0.41800000000E+01 0. -1.
         -5    1    3    3    0  502 -0.39109519942E+02  0.46676460867E+02 -0.45755319580E+03  0.46160659217E+03  0.41800000000E+01 0. -1.
        -11    1    1    2    0    0 -0.40995054271E+02 -0.20229387919E+02 -0.10102498533E+03  0.11088674525E+03  0.00000000000E+00 0.  1.
         11    1    1    2    0    0  0.39792596185E+02 -0.30421211679E+02 -0.23207104748E+03  0.23741497827E+03  0.00000000000E+00 0. -1.
</event>
<event>
 7    1  0.2686828E-009  0.9646497E+02  0.7561462E-02  0.1287910E+00
          1   -1    0    0  501    0  0.00000000000E+00  0.00000000000E+00  0.86286378022E+02  0.86286378022E+02  0.00000000000E+00 0. -1.
         -1   -1    0    0    0  501 -0.00000000000E+00 -0.00000000000E+00 -0.14035111688E+03  0.14035111688E+03  0.00000000000E+00 0.  1.
         25    2    1    2    0    0 -0.27751504083E+02 -0.55319732536E+01 -0.37845529695E+02  0.13371980048E+03  0.12509177517E+03 0.  0.
          5    1    3    3  502    0 -0.25905455875E+02 -0.52750592754E+02 -0.57541637780E+02  0.82354296539E+02  0.41800000000E+01 0. -1.
         -5    1    3    3    0  502 -0.18460482073E+01  0.47218619500E+02  0.19696108085E+02  0.51365503942E+02  0.41800000000E+01 0. -1.
        -11    1    1    2    0    0 -0.21390885719E+02 -0.21633152392E+02 -0.20371252248E+02  0.36613538376E+02  0.00000000000E+00 0.  1.
         11    1    1    2    0    0  0.49142389802E+02  0.27165125645E+02  0.41520430805E+01  0.56304156050E+02  0.00000000000E+00 0. -1.
</event>
<event>
 7    1  0.2686828E-009  0.1931083E+03  0.7561462E-02  0.1155687E+00
          1   -1    0    0  501    0  0.00000000000E+00  0.00000000000E+00  0.70235418008E+03  0.70235418008E+03  0.00000000000E+00 0. -1.
         -1   -1    0    0    0  501 -0.00000000000E+00 -0.00000000000E+00 -0.57283278581E+02  0.57283278581E+02  0.00000000000E+00 0.  1.
         25    2    1    2    0    0 -0.13933473412E+03 -0.85205921324E+02  0.40989943768E+03  0.45862561915E+03  0.12508274210E+03 0.  0.
          5    1    3    3  502    0 -0.67661037892E+02  0.26574728308E+02  0.15016627058E+03  0.16688802669E+03  0.41800000000E+01 0. -1.
         -5    1    3    3    0  502 -0.71673696228E+02 -0.11178064963E+03  0.25973316710E+03  0.29173759246E+03  0.41800000000E+01 0. -1.
        -11    1    1    2    0    0  0.86732754840E+02  0.93236888302E+02  0.12389566174E+03  0.17766773230E+03  0.00000000000E+00 0.  1.
         11    1    1    2    0    0  0.52601979280E+02 -0.80309669786E+01  0.11127580209E+03  0.12334410722E+03  0.00000000000E+00 0. -1.
</event>
<event>
 7    1  0.2686828E-009  0.9754271E+02  0.7561462E-02  0.1285550E+00
         -1   -1    0    0    0  501 -0.00000000000E+00  0.00000000000E+00  0.44734965320E+03  0.44734965320E+03  0.00000000000E+00 0.  1.
          1   -1    0    0  501    0  0.00000000000E+00 -0.00000000000E+00 -0.37813037880E+02  0.37813037880E+02  0.00000000000E+00 0. -1.
         25    2    1    2    0    0 -0.26430607834E+02  0.49274703238E+02  0.14263056396E+03  0.19778142332E+03  0.12508972870E+03 0.  0.
          5    1    3    3  502    0 -0.50843425981E+02  0.29684801066E+02  0.80784567267E+01  0.59573276248E+02  0.41800000000E+01 0.  1.
         -5    1    3    3    0  502  0.24412818147E+02  0.19589902171E+02  0.13455210723E+03  0.13820814707E+03  0.41800000000E+01 0.  1.
        -11    1    1    2    0    0  0.57696132999E+02 -0.18440550666E+02  0.18162070396E+03  0.19145489750E+03  0.00000000000E+00 0.  1.
         11    1    1    2    0    0 -0.31265525166E+02 -0.30834152572E+02  0.85285347403E+02  0.95926370255E+02  0.00000000000E+00 0. -1.
</event>
<event>
 7    1  0.2686828E-009  0.2178024E+03  0.7561462E-02  0.1135532E+00
         -1   -1    0    0    0  501 -0.00000000000E+00  0.00000000000E+00  0.27893033789E+03  0.27893033789E+03  0.00000000000E+00 0.  1.
          1   -1    0    0  501    0  0.00000000000E+00 -0.00000000000E+00 -0.23901643247E+03  0.23901643247E+03  0.00000000000E+00 0. -1.
         25    2    1    2    0    0 -0.10914411904E+03  0.15979255974E+03 -0.11148743436E+03  0.25597533945E+03  0.12509126875E+03 0.  0.
          5    1    3    3  502    0 -0.52084337602E+02  0.15601427055E+03 -0.11129346435E+03  0.19863770651E+03  0.41800000000E+01 0.  1.
         -5    1    3    3    0  502 -0.57059781438E+02  0.37782891838E+01 -0.19397001255E+00  0.57337632941E+02  0.41800000000E+01 0.  1.
        -11    1    1    2    0    0  0.12103035992E+03 -0.11343685259E+03  0.11997030541E+03  0.20471722382E+03  0.00000000000E+00 0. -1.
         11    1    1    2    0    0 -0.11886240885E+02 -0.46355707150E+02  0.31431034378E+02  0.57254207093E+02  0.00000000000E+00 0.  1.
</event>
<event>
 7    1  0.2686828E-009  0.1649427E+03  0.7561462E-02  0.1183227E+00
         -1   -1    0    0    0  501 -0.00000000000E+00  0.00000000000E+00  0.51628857331E+02  0.51628857331E+02  0.00000000000E+00 0.  1.
          1   -1    0    0  501    0  0.00000000000E+00 -0.00000000000E+00 -0.74741172225E+03  0.74741172225E+03  0.00000000000E+00 0. -1.
         25    2    1    2    0    0  0.10496156447E+03  0.12003741552E+03 -0.43047091199E+03  0.47579310639E+03  0.12509181781E+03 0.  0.
          5    1    3    3  502    0  0.10241868178E+03  0.10742738041E+03 -0.43644108757E+03  0.46100816019E+03  0.41800000000E+01 0.  1.
         -5    1    3    3    0  502  0.25428826811E+01  0.12610035115E+02  0.59701755793E+01  0.14784946208E+02  0.41800000000E+01 0.  1.
        -11    1    1    2    0    0 -0.36609922826E+02 -0.81648544126E+02 -0.20709931476E+03  0.22560340729E+03  0.00000000000E+00 0. -1.
         11    1    1    2    0    0 -0.68351641640E+02 -0.38388871399E+02 -0.58212638174E+02  0.97644065899E+02  0.00000000000E+00 0.  1.
</event>
<event>
 7    1  0.2686828E-009  0.1786309E+03  0.7561462E-02  0.1169135E+00
          2   -1    0    0  501    0  0.00000000000E+00  0.00000000000E+00  0.86789936011E+03  0.86789936011E+03  0.00000000000E+00 0. -1.
         -2   -1    0    0    0  501 -0.00000000000E+00 -0.00000000000E+00 -0.53775677939E+02  0.53775677939E+02  0.00000000000E+00 0.  1.
         25    2    1    2    0    0 -0.55570628774E+02 -0.16672233416E+03  0.28225076111E+03  0.35524321545E+03  0.12509124065E+03 0.  0.
          5    1    3    3  502    0 -0.44779378534E+01 -0.80028780256E+02  0.22611899076E+03  0.23994150949E+03  0.41800000000E+01 0.  1.
         -5    1    3    3    0  502 -0.51092690921E+02 -0.86693553904E+02  0.56131770351E+02  0.11530170596E+03  0.41800000000E+01 0.  1.
        -11    1    1    2    0    0  0.15402488650E+02  0.67569313794E+02  0.10109351300E+03  0.12256731699E+03  0.00000000000E+00 0.  1.
         11    1    1    2    0    0  0.40168140124E+02  0.99153020366E+02  0.43077940807E+03  0.44386450561E+03  0.00000000000E+00 0. -1.
</event>
<event>
 7    1  0.2686828E-009  0.8174103E+02  0.7561462E-02  0.1324182E+00
         -3   -1    0    0    0  501 -0.00000000000E+00  0.00000000000E+00  0.47074451880E+03  0.47074451880E+03  0.00000000000E+00 0.  1.
          3   -1    0    0  501    0  0.00000000000E+00 -0.00000000000E+00 -0.20709983030E+02  0.20709983030E+02  0.00000000000E+00 0. -1.
         25    2    1    2    0    0  0.53204021303E+01  0.86683595487E+01  0.28595257622E+03  0.31228107732E+03  0.12508856169E+03 0.  0.
          5    1    3    3  502    0  0.51479020103E+02  0.38575983084E-01  0.50782883221E+02  0.72432483232E+02  0.41800000000E+01 0. -1.
         -5    1    3    3    0  502 -0.46158617973E+02  0.86297835656E+01  0.23516969300E+03  0.23984859408E+03  0.41800000000E+01 0. -1.
        -11    1    1    2    0    0  0.11600346691E+02  0.24693183199E+02  0.32785887290E+02  0.42652499871E+02  0.00000000000E+00 0. -1.
         11    1    1    2    0    0 -0.16920748821E+02 -0.33361542747E+02  0.13129607226E+03  0.13652092464E+03  0.00000000000E+00 0.  1.
</event>
<event>
 7    1  0.2686828E-009  0.1152446E+03  0.7561462E-02  0.1251155E+00
         -2   -1    0    0    0  501 -0.00000000000E+00  0.00000000000E+00  0.24256192701E+02  0.24256192701E+02  0.00000000000E+00 0.  1.
          2   -1    0    0  501    0  0.00000000000E+00 -0.00000000000E+00 -0.97058861108E+03  0.97058861108E+03  0.00000000000E+00 0. -1.
         25    2    1    2    0    0  0.47949474490E+02  0.65771365832E+02 -0.75607801230E+03  0.77066644519E+03  0.12509110431E+03 0.  0.
          5    1    3    3  502    0  0.73835365541E+02  0.79718408074E+02 -0.44167093358E+03  0.45485972756E+03  0.41800000000E+01 0. -1.
         -5    1    3    3    0  502 -0.25885891051E+02 -0.13947042242E+02 -0.31440707873E+03  0.31580671762E+03  0.41800000000E+01 0. -1.
        -11    1    1    2    0    0 -0.41100745582E+02 -0.19889254648E+02 -0.24020968348E+02  0.51593222987E+02  0.00000000000E+00 0.  1.
         11    1    1    2    0    0 -0.68487289086E+01 -0.45882111184E+02 -0.16623343773E+03  0.17258513561E+03  0.00000000000E+00 0. -1.
</event>
<event>
 7    1  0.2686828E-009  0.8818751E+02  0.7561462E-02  0.1307301E+00
         -1   -1    0    0    0  501 -0.00000000000E+00  0.00000000000E+00  0.45634208345E+02  0.45634208345E+02  0.00000000000E+00 0.  1.
          1   -1    0    0  501    0  0.00000000000E+00 -0.00000000000E+00 -0.42928078476E+03  0.42928078476E+03  0.00000000000E+00 0. -1.
         25    2    1    2    0    0 -0.18467716089E+01  0.29250214170E+02 -0.35221823541E+03  0.37491866522E+03  0.12508930641E+03 0.  0.
          5    1    3    3  502    0 -0.21604279915E+02 -0.22613621541E+02 -0.28889315726E+03  0.29061116548E+03  0.41800000000E+01 0. -1.
         -5    1    3    3    0  502  0.19757508306E+02  0.51863835711E+02 -0.63325078154E+02  0.84307499739E+02  0.41800000000E+01 0. -1.
        -11    1    1    2    0    0 -0.11653667854E+02 -0.57067292657E+02 -0.35321901067E+01  0.58352037091E+02  0.00000000000E+00 0.  1.
         11    1    1    2    0    0  0.13500439462E+02  0.27817078488E+02 -0.27896150901E+02  0.41644290802E+02  0.00000000000E+00 0. -1.
</event>
<event>
 7    1  0.2686828E-009  0.9513929E+02  0.7561462E-02  0.1290863E+00
         -1   -1    0    0    0  501 -0.00000000000E+00  0.00000000000E+00  0.95696803563E+02  0.95696803563E+02  0.00000000000E+00 0.  1.
          1   -1    0    0  501    0  0.00000000000E+00 -0.00000000000E+00 -0.17993637657E+03  0.17993637657E+03  0.00000000000E+00 0. -1.
         25    2    1    2    0    0  0.69621201229E+02  0.99324457593E+00 -0.63891698972E+02  0.15676930161E+03  0.12508543695E+03 0.  0.
          5    1    3    3  502    0  0.29052037719E+02 -0.14534529033E+02 -0.96749182783E+02  0.10214279318E+03  0.41800000000E+01 0. -1.
         -5    1    3    3    0  502  0.40569163509E+02  0.15527773609E+02  0.32857483811E+02  0.54626508432E+02  0.41800000000E+01 0. -1.
        -11    1    1    2    0    0 -0.62685014334E+02 -0.39939039448E+02 -0.26334995100E+02  0.78854738989E+02  0.00000000000E+00 0.  1.
         11    1    1    2    0    0 -0.69361868946E+01  0.38945794872E+02  0.59871210682E+01  0.40009139525E+02  0.00000000000E+00 0. -1.
</event>
<event>
 7    1  0.2686828E-009  0.1097792E+03  0.7561462E-02  0.1260979E+00
          1   -1    0    0  501    0  0.00000000000E+00  0.00000000000E+00  0.56511417626E+02  0.56511417626E+02  0.00000000000E+00 0. -1.
         -1   -1    0    0    0  501 -0.00000000000E+00 -0.00000000000E+00 -0.25516227050E+03  0.25516227050E+03  0.00000000000E+00 0.  1.
         25    2    1    2    0    0  0.10996997629E+01 -0.40235926973E+02 -0.15632104156E+03  0.20421302963E+03  0.12508618740E+03 0.  0.
          5    1    3    3  502    0 -0.59224749933E+02 -0.14279583158E+02 -0.10200929663E+03  0.11889006055E+03  0.41800000000E+01 0. -1.
         -5    1    3    3    0  502  0.60324449695E+02 -0.25956343816E+02 -0.54311744932E+02  0.85322969082E+02  0.41800000000E+01 0. -1.
        -11    1    1    2    0    0 -0.34580036180E+02 -0.65123922108E+01 -0.34763810476E+02  0.49464256523E+02  0.00000000000E+00 0.  1.
         11    1    1    2    0    0  0.33480336418E+02  0.46748319184E+02 -0.75660008431E+01  0.57996401974E+02  0.00000000000E+00 0. -1.
</event>
<event>
 7    1  0.2686828E-009  0.7388006E+02  0.7561462E-02  0.1347375E+00
         -2   -1    0    0    0  501 -0.00000000000E+00  0.00000000000E+00  0.63076080276E+02  0.63076080276E+02  0.00000000000E+00 0.  1.
          2   -1    0    0  501    0  0.00000000000E+00 -0.00000000000E+00 -0.23081446138E+03  0.23081446138E+03  0.00000000000E+00 0. -1.
         25    2    1    2    0    0 -0.13875113071E+02  0.47109984259E+02 -0.11674553192E+03  0.17801279460E+03  0.12508863433E+03 0.  0.
          5    1    3    3  502    0 -0.27083813320E+01 -0.54850355431E+00  0.26296438670E+02  0.26769596043E+02  0.41800000000E+01 0.  1.
         -5    1    3    3    0  502 -0.11166731739E+02  0.47658487813E+02 -0.14304197059E+03  0.15124319856E+03  0.41800000000E+01 0.  1.
        -11    1    1    2    0    0 -0.16080495262E+02 -0.59180153676E+02 -0.76140602925E+01  0.61796818940E+02  0.00000000000E+00 0.  1.
         11    1    1    2    0    0  0.29955608334E+02  0.12070169417E+02 -0.43378788887E+02  0.54080928114E+02  0.00000000000E+00 0. -1.
</event>
<event>
 7    1  0.2686828E-009  0.8208892E+02  0.7561462E-02  0.1323226E+00
          4   -1    0    0  501    0  0.00000000000E+00  0.00000000000E+00  0.10214070784E+03  0.10214070784E+03  0.00000000000E+00 0. -1.
         -4   -1    0    0    0  501 -0.00000000000E+00 -0.00000000000E+00 -0.13862305741E+03  0.13862305741E+03  0.00000000000E+00 0.  1.
         25    2    1    2    0    0  0.16226554672E+02  0.94075150856E+01 -0.59932721687E+02  0.13996675567E+03  0.12508780575E+03 0.  0.
          5    1    3    3  502    0 -0.47635126819E+02  0.18670143434E+02 -0.54815852466E+02  0.75099465008E+02  0.41800000000E+01 0. -1.
         -5    1    3    3    0  502  0.63861681491E+02 -0.92626283486E+01 -0.51168692217E+01  0.64867290659E+02  0.41800000000E+01 0. -1.
        -11    1    1    2    0    0 -0.10395464552E+02 -0.27378493216E+02 -0.31308511923E+02  0.42870391797E+02  0.00000000000E+00 0.  1.
         11    1    1    2    0    0 -0.58310901195E+01  0.17970978131E+02  0.54758884040E+02  0.57926617787E+02  0.00000000000E+00 0. -1.
</event>
<event>
 7    1  0.2686828E-009  0.1035111E+03  0.7561462E-02  0.1273081E+00
          2   -1    0    0  501    0  0.00000000000E+00  0.00000000000E+00  0.37870643930E+03  0.37870643930E+03  0.00000000000E+00 0. -1.
         -2   -1    0    0    0  501 -0.00000000000E+00 -0.00000000000E+00 -0.91344310815E+02  0.91344310815E+02  0.00000000000E+00 0.  1.
         25    2    1    2    0    0 -0.96813927352E+02  0.24868806917E+01 -0.36613108707E+01  0.15823623284E+03  0.12508468763E+03 0.  0.
          5    1    3    3  502    0 -0.71675180450E+02  0.22980522117E+01 -0.61798740042E+02  0.94758478287E+02  0.41800000000E+01 0.  1.
         -5    1    3    3    0  502 -0.25138746903E+02  0.18882847995E+00  0.58137429171E+02  0.63477754549E+02  0.41800000000E+01 0.  1.
        -11    1    1    2    0    0  0.15440175124E+02 -0.21180175654E+02  0.99274787905E+02  0.10267659111E+03  0.00000000000E+00 0.  1.
         11    1    1    2    0    0  0.81373752229E+02  0.18693294962E+02  0.19174865145E+03  0.20913792617E+03  0.00000000000E+00 0. -1.
</event>
<event>
 7    1  0.2686828E-009  0.9179024E+02  0.7561462E-02  0.1298573E+00
          1   -1    0    0  501    0  0.00000000000E+00  0.00000000000E+00  0.58772598027E+03  0.58772598027E+03  0.00000000000E+00 0. -1.
         -1   -1    0    0    0  501 -0.00000000000E+00 -0.00000000000E+00 -0.27933639783E+02  0.27933639783E+02  0.00000000000E+00 0.  1.
         25    2    1    2    0    0  0.68289255644E+02  0.71579248847E+01  0.31058733013E+03  0.34179871147E+03  0.12508881325E+03 0.  0.
          5    1    3    3  502    0  0.59159247881E+02 -0.14090959231E+01  0.32008592278E+03  0.32553689886E+03  0.41800000000E+01 0.  1.
         -5    1    3    3    0  502  0.91300077628E+01  0.85670208078E+01 -0.94985926406E+01  0.16261812612E+02  0.41800000000E+01 0.  1.
        -11    1    1    2    0    0  0.19547801712E+02  0.93726493354E+01  0.74927569530E+02  0.78000665273E+02  0.00000000000E+00 0.  1.
         11    1    1    2    0    0 -0.87837057356E+02 -0.16530574220E+02  0.17427744082E+03  0.19586024331E+03  0.00000000000E+00 0. -1.
</event>
<event>
 7    1  0.2686828E-009  0.3149611E+03  0.7561462E-02  0.1077992E+00
          1   -1    0    0  501    0  0.00000000000E+00  0.00000000000E+00  0.39441833802E+03  0.39441833802E+03  0.00000000000E+00 0. -1.
         -1   -1    0    0    0  501 -0.00000000000E+00 -0.00000000000E+00 -0.31018715984E+03  0.31018715984E+03  0.00000000000E+00 0.  1.
         25    2    1    2    0    0  0.28401730331E+03  0.95316541119E+02 -0.86485388624E+02  0.33597349570E+03  0.12508955103E+03 0.  0.
          5    1    3    3  502    0  0.72603601207E+02  0.76680167867E+02  0.27204799921E+01  0.10571662340E+03  0.41800000000E+01 0.  1.
         -5    1    3    3    0  502  0.21141370210E+03  0.18636373251E+02 -0.89205868616E+02  0.23025687230E+03  0.41800000000E+01 0.  1.
        -11    1    1    2    0    0 -0.12408481619E+03  0.31996651080E+01  0.12317411923E+03  0.17486893125E+03  0.00000000000E+00 0. -1.
         11    1    1    2    0    0 -0.15993248712E+03 -0.98516206227E+02  0.47542447572E+02  0.19376307090E+03  0.00000000000E+00 0.  1.
</event>
<event>
 7    1  0.2686828E-009  0.9500123E+02  0.7561462E-02  0.1291173E+00
          1   -1    0    0  501    0  0.00000000000E+00  0.00000000000E+00  0.53488291105E+03  0.53488291105E+03  0.00000000000E+00 0. -1.
         -1   -1    0    0    0  501 -0.00000000000E+00 -0.00000000000E+00 -0.24323819016E+02  0.24323819016E+02  0.00000000000E+00 0.  1.
         25    2    1    2    0    0 -0.28116074557E+02 -0.26224739955E+02  0.30149037188E+03  0.32866752728E+03  0.12509056126E+03 0.  0.
          5    1    3    3  502    0 -0.71943306453E+02  0.48653997044E+01  0.12770015808E+03  0.14671167040E+03  0.41800000000E+01 0. -1.
         -5    1    3    3    0  502  0.43827231896E+02 -0.31090139659E+02  0.17379021380E+03  0.18195585688E+03  0.41800000000E+01 0. -1.
        -11    1    1    2    0    0  0.10936635660E+02  0.40243627099E+02  0.20342919588E+03  0.20765981137E+03  0.00000000000E+00 0. -1.
         11    1    1    2    0    0  0.17179438897E+02 -0.14018887144E+02  0.56395242720E+01  0.22879391417E+02  0.00000000000E+00 0.  1.
</event>
<event>
 7    1  0.2686828E-009  0.9041887E+02  0.7561462E-02  0.1301841E+00
         -2   -1    0    0    0  501 -0.00000000000E+00  0.00000000000E+00  0.11390661743E+02  0.11390661743E+02  0.00000000000E+00 0. -1.
          2   -1    0    0  501    0  0.00000000000E+00 -0.00000000000E+00 -0.11499486674E+04  0.11499486674E+04  0.00000000000E+00 0.  1.
         25    2    1    2    0    0 -0.21890579427E+02 -0.21915358829E+00 -0.74449830241E+03  0.75525165981E+03  0.12509237328E+03 0.  0.
          5    1    3    3  502    0  0.31370697531E+02  0.82987927597E+00 -0.60563703934E+03  0.60646393560E+03  0.41800000000E+01 0. -1.
         -5    1    3    3    0  502 -0.53261276958E+02 -0.10490328643E+01 -0.13886126307E+03  0.14878772421E+03  0.41800000000E+01 0. -1.
        -11    1    1    2    0    0  0.48791761961E+02  0.28667455967E+02 -0.18765234193E+03  0.19599964413E+03  0.00000000000E+00 0. -1.
         11    1    1    2    0    0 -0.26901182534E+02 -0.28448302379E+02 -0.20640736135E+03  0.21008802524E+03  0.00000000000E+00 0.  1.
</event>
<event>
 7    1  0.2686828E-009  0.8387724E+02  0.7561462E-02  0.1318395E+00
         -2   -1    0    0    0  501 -0.00000000000E+00  0.00000000000E+00  0.48846243515E+02  0.48846243515E+02  0.00000000000E+00 0.  1.
          2   -1    0    0  501    0  0.00000000000E+00 -0.00000000000E+00 -0.34701095902E+03  0.34701095902E+03  0.00000000000E+00 0. -1.
         25    2    1    2    0    0  0.66010601543E+01  0.28476413757E+02 -0.26426297140E+03  0.29383249918E+03  0.12509252330E+03 0.  0.
          5    1    3    3  502    0  0.35914821943E+02  0.53740461010E+02 -0.23853939774E+03  0.24717691692E+03  0.41800000000E+01 0. -1.
         -5    1    3    3    0  502 -0.29313761788E+02 -0.25264047253E+02 -0.25723573658E+02  0.46655582254E+02  0.41800000000E+01 0. -1.
        -11    1    1    2    0    0  0.53773983295E+01  0.16583879870E+02 -0.49800025426E+02  0.52763472372E+02  0.00000000000E+00 0. -1.
         11    1    1    2    0    0 -0.11978458484E+02 -0.45060293627E+02  0.15898281319E+02  0.49261230987E+02  0.00000000000E+00 0.  1.
</event>
<event>
 7    1  0.2686828E-009  0.8905011E+02  0.7561462E-02  0.1305168E+00
         -2   -1    0    0    0  501 -0.00000000000E+00  0.00000000000E+00  0.12758469200E+03  0.12758469200E+03  0.00000000000E+00 0.  1.
          2   -1    0    0  501    0  0.00000000000E+00 -0.00000000000E+00 -0.97864230326E+02  0.97864230326E+02  0.00000000000E+00 0. -1.
         25    2    1    2    0    0  0.11941340992E+02  0.25163249294E+01  0.21243579548E+01  0.12569916072E+03  0.12508732387E+03 0.  0.
          5    1    3    3  502    0 -0.55301729383E+02  0.14324856338E+02  0.64258065505E+00  0.57283226967E+02  0.41800000000E+01 0.  1.
         -5    1    3    3    0  502  0.67243070375E+02 -0.11808531408E+02  0.14817772997E+01  0.68415933754E+02  0.41800000000E+01 0.  1.
        -11    1    1    2    0    0 -0.23299402765E+02 -0.20577318960E+02 -0.26974161299E+02  0.41156938693E+02  0.00000000000E+00 0. -1.
         11    1    1    2    0    0  0.11358061773E+02  0.18060994030E+02  0.54570265016E+02  0.58592822910E+02  0.00000000000E+00 0.  1.
</event>
<event>
 7    1  0.2686828E-009  0.4343986E+03  0.7561462E-02  0.1032479E+00
         -3   -1    0    0    0  501 -0.00000000000E+00  0.00000000000E+00  0.45789362676E+03  0.45789362676E+03  0.00000000000E+00 0.  1.
          3   -1    0    0  501    0  0.00000000000E+00 -0.00000000000E+00 -0.42617461809E+03  0.42617461809E+03  0.00000000000E+00 0. -1.
         25    2    1    2    0    0 -0.42050735245E+03  0.58523403355E+02 -0.35766970445E+02  0.44404692118E+03  0.12508784845E+03 0.  0.
          5    1    3    3  502    0 -0.36796321400E+03  0.93076320464E+02 -0.30135808222E+02  0.38076996681E+03  0.41800000000E+01 0. -1.
         -5    1    3    3    0  502 -0.52544138454E+02 -0.34552917109E+02 -0.56311622230E+01  0.63276954372E+02  0.41800000000E+01 0. -1.
        -11    1    1    2    0    0  0.31723495693E+03 -0.60265998304E+02  0.12827385242E+02  0.32316334920E+03  0.00000000000E+00 0.  1.
         11    1    1    2    0    0  0.10327239552E+03  0.17425949490E+01  0.54658593876E+02  0.11685797447E+03  0.00000000000E+00 0. -1.
</event>
<event>
 7    1  0.2686828E-009  0.1291213E+03  0.7561462E-02  0.1228765E+00
          3   -1    0    0  501    0  0.00000000000E+00  0.00000000000E+00  0.12905131906E+03  0.12905131906E+03  0.00000000000E+00 0. -1.
         -3   -1    0    0    0  501 -0.00000000000E+00 -0.00000000000E+00 -0.14727307049E+03  0.14727307049E+03  0.00000000000E+00 0.  1.
         25    2    1    2    0    0 -0.73451822291E+02  0.91733972578E+01  0.28812837074E+02  0.14817933813E+03  0.12509042830E+03 0.  0.
          5    1    3    3  502    0  0.90221919786E+01 -0.42707693003E+02  0.25226812249E+02  0.50588649379E+02  0.41800000000E+01 0. -1.
         -5    1    3    3    0  502 -0.82474014270E+02  0.51881090261E+02  0.35860248247E+01  0.97590688749E+02  0.41800000000E+01 0. -1.
        -11    1    1    2    0    0  0.68301635550E+02  0.31962830768E+02 -0.17992188791E+02  0.77527123170E+02  0.00000000000E+00 0. -1.
         11    1    1    2    0    0  0.51501867414E+01 -0.41136228026E+02 -0.29042399713E+02  0.50617928255E+02  0.00000000000E+00 0.  1.
</event>
<event>
 7    1  0.2686828E-009  0.1106239E+03  0.7561462E-02  0.1259419E+00
         -1   -1    0    0    0  501 -0.00000000000E+00  0.00000000000E+00  0.71045671976E+03  0.71045671976E+03  0.00000000000E+00 0.  1.
          1   -1    0    0  501    0  0.00000000000E+00 -0.00000000000E+00 -0.22933537517E+02  0.22933537517E+02  0.00000000000E+00 0. -1.
         25    2    1    2    0    0  0.31282665081E+02 -0.59840817776E+02  0.42329037858E+03  0.44652170501E+03  0.12508940736E+03 0.  0.
          5    1    3    3  502    0 -0.31219361869E+02 -0.27759782870E+02  0.31222536764E+03  0.31503556418E+03  0.41800000000E+01 0. -1.
         -5    1    3    3    0  502  0.62502026950E+02 -0.32081034905E+02  0.11106501095E+03  0.13148614083E+03  0.41800000000E+01 0. -1.
        -11    1    1    2    0    0 -0.60850150105E+02  0.45753032002E+02  0.15270211865E+03  0.17062830289E+03  0.00000000000E+00 0.  1.
         11    1    1    2    0    0  0.29567485024E+02  0.14087785774E+02  0.11153068501E+03  0.11624024938E+03  0.00000000000E+00 0. -1.
</event>
<event>
 7    1  0.2686828E-009  0.1271010E+03  0.7561462E-02  0.1231822E+00
         -1   -1    0    0    0  501 -0.00000000000E+00  0.00000000000E+00  0.61173265335E+02  0.61173265335E+02  0.00000000000E+00 0.  1.
          1   -1    0    0  501    0  0.00000000000E+00 -0.00000000000E+00 -0.36097087855E+03  0.36097087855E+03  0.00000000000E+00 0. -1.
         25    2    1    2    0    0 -0.84447346501E+02  0.49853385742E+02 -0.12228791786E+03  0.20054632358E+03  0.12509108139E+03 0.  0.
          5    1    3    3  502    0 -0.37794557804E+02  0.87706726975E+02 -0.55177623799E+02  0.11037636126E+03  0.41800000000E+01 0.  1.
         -5    1    3    3    0  502 -0.46652788697E+02 -0.37853341233E+02 -0.67110294063E+02  0.90169962321E+02  0.41800000000E+01 0.  1.
        -11    1    1    2    0    0  0.66165014662E+02 -0.35146689226E+02 -0.18278951058E+03  0.19754772615E+03  0.00000000000E+00 0. -1.
         11    1    1    2    0    0  0.18282331839E+02 -0.14706696516E+02  0.52798152330E+01  0.24050094153E+02  0.00000000000E+00 0.  1.
</event>
<event>
 7    1  0.2686828E-009  0.2365956E+03  0.7561462E-02  0.1122082E+00
          2   -1    0    0  501    0  0.00000000000E+00  0.00000000000E+00  0.47452663412E+03  0.47452663412E+03  0.00000000000E+00 0.  1.
         -2   -1    0    0    0  501 -0.00000000000E+00 -0.00000000000E+00 -0.13761564170E+03  0.13761564170E+03  0.00000000000E+00 0. -1.
         25    2    1    2    0    0  0.12083495716E+03  0.17562127844E+03  0.66227491978E+02  0.25589282460E+03  0.12510450303E+03 0.  0.
          5    1    3    3  502    0  0.13207257363E+03  0.88748394637E+02  0.36625078956E+02  0.16333496583E+03  0.41800000000E+01 0. -1.
         -5    1    3    3    0  502 -0.11237616464E+02  0.86872883800E+02  0.29602413022E+02  0.92557858771E+02  0.41800000000E+01 0. -1.
        -11    1    1    2    0    0 -0.11545344925E+03 -0.10676303492E+03  0.15068260672E+03  0.21779139683E+03  0.00000000000E+00 0.  1.
         11    1    1    2    0    0 -0.53815079172E+01 -0.68858243519E+02  0.12000089373E+03  0.13845805438E+03  0.00000000000E+00 0. -1.
</event>
<event>
 7    1  0.3211468E-009  0.9063266E+02  0.7561462E-02  0.1301327E+00
         -1   -1    0    0    0  501 -0.00000000000E+00  0.00000000000E+00  0.47435929154E+02  0.47435929154E+02  0.00000000000E+00 0.  1.
          1   -1    0    0  501    0  0.00000000000E+00 -0.00000000000E+00 -0.32230567526E+03  0.32230567526E+03  0.00000000000E+00 0. -1.
         25    2    1    2    0    0 -0.44718693105E+02 -0.36983199675E+02 -0.13356580106E+03  0.19198469973E+03  0.12510309008E+03 0.  0.
          5    1    3    3  502    0  0.87356084810E+00 -0.47692620852E+02 -0.13671709490E+03  0.14485988275E+03  0.41800000000E+01 0. -1.
         -5    1    3    3    0  502 -0.45592253953E+02  0.10709421177E+02  0.31512938449E+01  0.47124816980E+02  0.41800000000E+01 0. -1.
        -11    1    1    2    0    0  0.28095731531E+02  0.55054209870E+02 -0.40241333591E+02  0.73754329255E+02  0.00000000000E+00 0. -1.
         11    1    1    2    0    0  0.16622961575E+02 -0.18071010195E+02 -0.10106261146E+03  0.10400257543E+03  0.00000000000E+00 0.  1.
</event>
<event>
 7    1  0.2686828E-009  0.6743200E+02  0.7561462E-02  0.1369050E+00
         -2   -1    0    0    0  501 -0.00000000000E+00  0.00000000000E+00  0.30038011620E+02  0.30038011620E+02  0.00000000000E+00 0.  1.
          2   -1    0    0  501    0  0.00000000000E+00 -0.00000000000E+00 -0.51659064182E+03  0.51659064182E+03  0.00000000000E+00 0. -1.
         25    2    1    2    0    0  0.31863849470E+02  0.33366335818E+02 -0.35273770998E+03  0.37709408366E+03  0.12508972226E+03 0.  0.
          5    1    3    3  502    0  0.26734679045E+02  0.10665521243E+02 -0.61853143327E+01  0.29735953329E+02  0.41800000000E+01 0.  1.
         -5    1    3    3    0  502  0.51291704249E+01  0.22700814575E+02 -0.34655239565E+03  0.34735813033E+03  0.41800000000E+01 0.  1.
        -11    1    1    2    0    0 -0.45096640710E+02  0.12080257638E+01 -0.12293147201E+03  0.13094774966E+03  0.00000000000E+00 0. -1.
         11    1    1    2    0    0  0.13232791241E+02 -0.34574361582E+02 -0.10883448206E+02  0.38586820129E+02  0.00000000000E+00 0.  1.
</event>
<event>
 7    1  0.2686828E-009  0.9988632E+02  0.7561462E-02  0.1280535E+00
         -2   -1    0    0    0  501 -0.00000000000E+00  0.00000000000E+00  0.22005340986E+02  0.22005340986E+02  0.00000000000E+00 0.  1.
          2   -1    0    0  501    0  0.00000000000E+00 -0.00000000000E+00 -0.57038950580E+03  0.57038950580E+03  0.00000000000E+00 0. -1.
         25    2    1    2    0    0  0.19738762518E+02 -0.10932172192E+02 -0.26122433533E+03  0.29050864171E+03  0.12509191183E+03 0.  0.
          5    1    3    3  502    0 -0.52013067854E+01 -0.63155582981E+02 -0.93475048752E+02  0.11300769174E+03  0.41800000000E+01 0.  1.
         -5    1    3    3    0  502  0.24940069303E+02  0.52223410789E+02 -0.16774928658E+03  0.17750094996E+03  0.41800000000E+01 0.  1.
        -11    1    1    2    0    0 -0.45721444479E+02 -0.75708470928E+01 -0.24318089558E+03  0.24755750077E+03  0.00000000000E+00 0. -1.
         11    1    1    2    0    0  0.25982681961E+02  0.18503019284E+02 -0.43978933899E+02  0.54328704305E+02  0.00000000000E+00 0.  1.
</event>
<event>
 7    1  0.2686828E-009  0.1200538E+03  0.7561462E-02  0.1243008E+00
         -2   -1    0    0    0  501 -0.00000000000E+00  0.00000000000E+00  0.38327480928E+02  0.38327480928E+02  0.00000000000E+00 0.  1.
          2   -1    0    0  501    0  0.00000000000E+00 -0.00000000000E+00 -0.54533928021E+03  0.54533928021E+03  0.00000000000E+00 0. -1.
         25    2    1    2    0    0 -0.89960823041E+02 -0.11473254574E+02 -0.33354522588E+03  0.36759393648E+03  0.12509316198E+03 0.  0.
          5    1    3    3  502    0 -0.86452279569E+01  0.27471575039E+02 -0.22295998298E+03  0.22485118148E+03  0.41800000000E+01 0. -1.
         -5    1    3    3    0  502 -0.81315595084E+02 -0.38944829612E+02 -0.11058524290E+03  0.14274275500E+03  0.41800000000E+01 0. -1.
        -11    1    1    2    0    0  0.64417169788E+02  0.45015700366E+02 -0.14584077955E+03  0.16566688873E+03  0.00000000000E+00 0. -1.
         11    1    1    2    0    0  0.25543653253E+02 -0.33542445792E+02 -0.27625793860E+02  0.50405935936E+02  0.00000000000E+00 0.  1.
</event>
<event>
 7    1  0.2979245E-009  0.8733205E+02  0.7561462E-02  0.1309444E+00
          2   -1    0    0  501    0  0.00000000000E+00  0.00000000000E+00  0.75066738851E+03  0.75066738851E+03  0.00000000000E+00 0. -1.
         -2   -1    0    0    0  501 -0.00000000000E+00 -0.00000000000E+00 -0.25813416179E+02  0.25813416179E+02  0.00000000000E+00 0.  1.
         25    2    1    2    0    0  0.11431199601E+02  0.33614347015E+02  0.61975113479E+03  0.63324666483E+03  0.12509705352E+03 0.  0.
          5    1    3    3  502    0  0.47627904498E+02  0.53691837409E+02  0.22258685040E+03  0.23390940353E+03  0.41800000000E+01 0. -1.
         -5    1    3    3    0  502 -0.36196704897E+02 -0.20077490394E+02  0.39716428439E+03  0.39933726130E+03  0.41800000000E+01 0. -1.
        -11    1    1    2    0    0 -0.27459163608E+02 -0.43499012726E+01 -0.49461513257E+01  0.28238125293E+02  0.00000000000E+00 0.  1.
         11    1    1    2    0    0  0.16027964007E+02 -0.29264445743E+02  0.11004898887E+03  0.11499601456E+03  0.00000000000E+00 0. -1.
</event>
<event>
 7    1  0.2686828E-009  0.1715543E+03  0.7561462E-02  0.1176237E+00
          2   -1    0    0  501    0  0.00000000000E+00  0.00000000000E+00  0.13382789095E+03  0.13382789095E+03  0.00000000000E+00 0. -1.
         -2   -1    0    0    0  501 -0.00000000000E+00 -0.00000000000E+00 -0.29440099968E+03  0.29440099968E+03  0.00000000000E+00 0.  1.
         25    2    1    2    0    0 -0.13039056985E+02  0.14360530140E+03  0.48607419509E+01  0.19095443459E+03  0.12508984642E+03 0.  0.
          5    1    3    3  502    0  0.10869682086E+02 -0.19854228068E+02  0.11164862287E+02  0.25582550903E+02  0.41800000000E+01 0.  1.
         -5    1    3    3    0  502 -0.23908739072E+02  0.16345952947E+03 -0.63041203364E+01  0.16537188368E+03  0.41800000000E+01 0.  1.
        -11    1    1    2    0    0  0.30496431259E+02 -0.12747020550E+03 -0.92118382309E+02  0.16020137942E+03  0.00000000000E+00 0.  1.
         11    1    1    2    0    0 -0.17457374273E+02 -0.16135095909E+02 -0.73315468377E+02  0.77073076621E+02  0.00000000000E+00 0. -1.
</event>
<event>
 7    1  0.2686828E-009  0.1121240E+03  0.7561462E-02  0.1256686E+00
          1   -1    0    0  501    0  0.00000000000E+00  0.00000000000E+00  0.52892416586E+02  0.52892416586E+02  0.00000000000E+00 0. -1.
         -1   -1    0    0    0  501 -0.00000000000E+00 -0.00000000000E+00 -0.24617463889E+03  0.24617463889E+03  0.00000000000E+00 0.  1.
         25    2    1    2    0    0 -0.38324764858E+02  0.38598223479E+01 -0.12223562744E+03  0.17908797517E+03  0.12508904191E+03 0.  0.
          5    1    3    3  502    0  0.28228003092E+02  0.43542970958E+02 -0.61299692773E+02  0.80423474263E+02  0.41800000000E+01 0. -1.
         -5    1    3    3    0  502 -0.66552767950E+02 -0.39683148610E+02 -0.60935934667E+02  0.98664500907E+02  0.41800000000E+01 0. -1.
        -11    1    1    2    0    0  0.18095393939E+02  0.41308397216E+02 -0.21543737251E+02  0.49979591606E+02  0.00000000000E+00 0. -1.
         11    1    1    2    0    0  0.20229370919E+02 -0.45168219564E+02 -0.49502857613E+02  0.69999488700E+02  0.00000000000E+00 0.  1.
</event>
<event>
 7    1  0.3246544E-009  0.5146591E+02  0.7561462E-02  0.1437592E+00
         -4   -1    0    0    0  501 -0.00000000000E+00  0.00000000000E+00  0.97082208644E+02  0.97082208644E+02  0.00000000000E+00 0.  1.
          4   -1    0    0  501    0  0.00000000000E+00 -0.00000000000E+00 -0.14636379838E+03  0.14636379838E+03  0.00000000000E+00 0. -1.
         25    2    1    2    0    0 -0.12841213169E+02  0.45056432346E+02 -0.11420651477E+02  0.13406228181E+03  0.12508910933E+03 0.  0.
          5    1    3    3  502    0  0.39746839663E+01  0.21503783066E+02 -0.67358840163E+02  0.70942910476E+02  0.41800000000E+01 0. -1.
         -5    1    3    3    0  502 -0.16815897135E+02  0.23552649280E+02  0.55938188685E+02  0.63119371337E+02  0.41800000000E+01 0. -1.
        -11    1    1    2    0    0  0.14870458751E+02 -0.14385464996E+02 -0.65102733612E+02  0.68311331933E+02  0.00000000000E+00 0. -1.
         11    1    1    2    0    0 -0.20292455823E+01 -0.30670967350E+02  0.27241795351E+02  0.41072393280E+02  0.00000000000E+00 0.  1.
</event>
<event>
 7    1  0.2686828E-009  0.1275537E+03  0.7561462E-02  0.1231131E+00
         -2   -1    0    0    0  501 -0.00000000000E+00  0.00000000000E+00  0.44349072210E+02  0.44349072210E+02  0.00000000000E+00 0.  1.
          2   -1    0    0  501    0  0.00000000000E+00 -0.00000000000E+00 -0.43883262106E+03  0.43883262106E+03  0.00000000000E+00 0. -1.
         25    2    1    2    0    0  0.67791020167E+02 -0.20743747959E+02 -0.17895743959E+03  0.22956229202E+03  0.12508858956E+03 0.  0.
          5    1    3    3  502    0  0.43470127708E+02 -0.70230790156E+02 -0.74215546446E+02  0.11111901558E+03  0.41800000000E+01 0.  1.
         -5    1    3    3    0  502  0.24320892460E+02  0.49487042197E+02 -0.10474189314E+03  0.11844327644E+03  0.41800000000E+01 0.  1.
        -11    1    1    2    0    0 -0.44449299216E+02  0.58042373316E+02 -0.18801030762E+03  0.20172390307E+03  0.00000000000E+00 0. -1.
         11    1    1    2    0    0 -0.23341720951E+02 -0.37298625357E+02 -0.27515801642E+02  0.51895498172E+02  0.00000000000E+00 0.  1.
</event>
<event>
 7    1  0.2686828E-009  0.1241963E+03  0.7561462E-02  0.1236331E+00
         -2   -1    0    0    0  501 -0.00000000000E+00  0.00000000000E+00  0.50551115626E+02  0.50551115626E+02  0.00000000000E+00 0.  1.
          2   -1    0    0  501    0  0.00000000000E+00 -0.00000000000E+00 -0.50175354620E+03  0.50175354620E+03  0.00000000000E+00 0. -1.
         25    2    1    2    0    0 -0.89264447746E+02  0.54544063262E+02 -0.15541002628E+03  0.22526199977E+03  0.12508995085E+03 0.  0.
          5    1    3    3  502    0 -0.52978852268E+02  0.10992896257E+02 -0.15929863404E+03  0.16828882839E+03  0.41800000000E+01 0. -1.
         -5    1    3    3    0  502 -0.36285595478E+02  0.43551167005E+02  0.38886077587E+01  0.56973171379E+02  0.41800000000E+01 0. -1.
        -11    1    1    2    0    0 -0.16000119183E+02  0.44600294536E+01 -0.58732369804E+02  0.61035947928E+02  0.00000000000E+00 0.  1.
         11    1    1    2    0    0  0.10526456693E+03 -0.59004092715E+02 -0.23706003449E+03  0.26600671413E+03  0.00000000000E+00 0. -1.
</event>
<event>
 7    1  0.2686828E-009  0.1320527E+03  0.7561462E-02  0.1224441E+00
         -2   -1    0    0    0  501 -0.00000000000E+00  0.00000000000E+00  0.63314780753E+02  0.63314780753E+02  0.00000000000E+00 0.  1.
          2   -1    0    0  501    0  0.00000000000E+00 -0.00000000000E+00 -0.60655959419E+03  0.60655959419E+03  0.00000000000E+00 0. -1.
         25    2    1    2    0    0 -0.11366596858E+03 -0.38453820013E+02 -0.96179612107E+02  0.19823260514E+03  0.12508796611E+03 0.  0.
          5    1    3    3  502    0 -0.50992907987E+02  0.20344328151E+02  0.15550433268E+02  0.57214130490E+02  0.41800000000E+01 0.  1.
         -5    1    3    3    0  502 -0.62673060594E+02 -0.58798148165E+02 -0.11173004537E+03  0.14101847465E+03  0.41800000000E+01 0.  1.
        -11    1    1    2    0    0  0.73777785585E+02  0.38281076302E+02 -0.40589297409E+03  0.41431595294E+03  0.00000000000E+00 0. -1.
         11    1    1    2    0    0  0.39888182997E+02  0.17274371178E+00 -0.41172227244E+02  0.57325816867E+02  0.00000000000E+00 0.  1.
</event>
<event>
 7    1  0.2686828E-009  0.1377979E+03  0.7561462E-02  0.1216323E+00
         -1   -1    0    0    0  501 -0.00000000000E+00  0.00000000000E+00  0.10423979801E+03  0.10423979801E+03  0.00000000000E+00 0.  1.
          1   -1    0    0  501    0  0.00000000000E+00 -0.00000000000E+00 -0.26772329840E+03  0.26772329840E+03  0.00000000000E+00 0. -1.
         25    2    1    2    0    0 -0.64810883377E+02  0.73683710108E+02 -0.17664664174E+03  0.23765856223E+03  0.12509123241E+03 0.  0.
          5    1    3    3  502    0 -0.80699083557E+02  0.90653741480E+02 -0.17624779852E+03  0.21403551531E+03  0.41800000000E+01 0. -1.
         -5    1    3    3    0  502  0.15888200180E+02 -0.16970031372E+02 -0.39884321531E+00  0.23623046917E+02  0.41800000000E+01 0. -1.
        -11    1    1    2    0    0  0.55659419272E+01 -0.71012233591E+02  0.21528465791E+02  0.74412309926E+02  0.00000000000E+00 0.  1.
         11    1    1    2    0    0  0.59244941450E+02 -0.26714765162E+01 -0.83653244441E+01  0.59892224263E+02  0.00000000000E+00 0. -1.
</event>
<event>
 7    1  0.2686828E-009  0.9105706E+02  0.7561462E-02  0.1300312E+00
          1   -1    0    0  501    0  0.00000000000E+00  0.00000000000E+00  0.15930357794E+03  0.15930357794E+03  0.00000000000E+00 0. -1.
         -1   -1    0    0    0  501 -0.00000000000E+00 -0.00000000000E+00 -0.96347276445E+02  0.96347276445E+02  0.00000000000E+00 0.  1.
         25    2    1    2    0    0  0.41492027909E+02  0.66071839029E+01  0.81886743899E+02  0.15530081251E+03  0.12509060828E+03 0.  0.
          5    1    3    3  502    0 -0.52294937500E+01 -0.43034713849E+02  0.74905179144E+02  0.86646364398E+02  0.41800000000E+01 0.  1.
         -5    1    3    3    0  502  0.46721521659E+02  0.49641897751E+02  0.69815647555E+01  0.68654448108E+02  0.41800000000E+01 0.  1.
        -11    1    1    2    0    0 -0.55160982540E+02 -0.10277116904E+02  0.19495476060E+02  0.59400561558E+02  0.00000000000E+00 0. -1.
         11    1    1    2    0    0  0.13668954631E+02  0.36699330013E+01 -0.38425918463E+02  0.40949480322E+02  0.00000000000E+00 0.  1.
</event>
<event>
 7    1  0.2686828E-009  0.5042986E+02  0.7561462E-02  0.1443037E+00
         -2   -1    0    0    0  501 -0.00000000000E+00  0.00000000000E+00  0.38994517735E+02  0.38994517735E+02  0.00000000000E+00 0.  1.
          2   -1    0    0  501    0  0.00000000000E+00 -0.00000000000E+00 -0.31341014234E+03  0.31341014234E+03  0.00000000000E+00 0. -1.
         25    2    1    2    0    0  0.12317393768E+02  0.47556667007E+00 -0.17322650067E+03  0.21402541252E+03  0.12509001686E+03 0.  0.
          5    1    3    3  502    0  0.39352870335E+01 -0.54261493283E+01  0.19469823716E+02  0.21011330660E+02  0.41800000000E+01 0.  1.
         -5    1    3    3    0  502  0.83821067340E+01  0.59017159984E+01 -0.19269632438E+03  0.19301408186E+03  0.41800000000E+01 0.  1.
        -11    1    1    2    0    0  0.24713528413E+02 -0.26799865038E+02 -0.12164963619E+02  0.38431466177E+02  0.00000000000E+00 0.  1.
         11    1    1    2    0    0 -0.37030922180E+02  0.26324298368E+02 -0.89024160316E+02  0.99947781376E+02  0.00000000000E+00 0. -1.
</event>
<event>
 7    1  0.2686828E-009  0.1868793E+03  0.7561462E-02  0.1161307E+00
         -2   -1    0    0    0  501 -0.00000000000E+00  0.00000000000E+00  0.28859106578E+03  0.28859106578E+03  0.00000000000E+00 0. -1.
          2   -1    0    0  501    0  0.00000000000E+00 -0.00000000000E+00 -0.16817376171E+03  0.16817376171E+03  0.00000000000E+00 0.  1.
         25    2    1    2    0    0  0.15429217071E+03 -0.26975604666E+02 -0.50645270693E+02  0.20675079073E+03  0.12508872385E+03 0.  0.
          5    1    3    3  502    0  0.43169701319E+02 -0.68210495404E+02 -0.10346911884E+02  0.81491261990E+02  0.41800000000E+01 0. -1.
         -5    1    3    3    0  502  0.11112246939E+03  0.41234890738E+02 -0.40298358809E+02  0.12525952874E+03  0.41800000000E+01 0. -1.
        -11    1    1    2    0    0 -0.10342754377E+03  0.54056650888E+02  0.77371840508E+02  0.14002064140E+03  0.00000000000E+00 0.  1.
         11    1    1    2    0    0 -0.50864626940E+02 -0.27081046222E+02  0.93690734254E+02  0.10999339536E+03  0.00000000000E+00 0. -1.
</event>
<event>
 7    1  0.2686828E-009  0.1043994E+03  0.7561462E-02  0.1271307E+00
         -1   -1    0    0    0  501 -0.00000000000E+00  0.00000000000E+00  0.82377227931E+02  0.82377227931E+02  0.00000000000E+00 0.  1.
          1   -1    0    0  501    0  0.00000000000E+00 -0.00000000000E+00 -0.18413274568E+03  0.18413274568E+03  0.00000000000E+00 0. -1.
         25    2    1    2    0    0  0.12433094557E+02 -0.51928910339E+02 -0.58631245272E+02  0.14810798560E+03  0.12508860423E+03 0.  0.
          5    1    3    3  502    0  0.51384769322E+02 -0.29701580111E+02 -0.78814337091E+02  0.98750951947E+02  0.41800000000E+01 0. -1.
         -5    1    3    3    0  502 -0.38951674765E+02 -0.22227330228E+02  0.20183091818E+02  0.49357033657E+02  0.41800000000E+01 0. -1.
        -11    1    1    2    0    0 -0.25675764336E+01  0.77141766877E+02 -0.47999567267E+02  0.90892260965E+02  0.00000000000E+00 0. -1.
         11    1    1    2    0    0 -0.98655181237E+01 -0.25212856538E+02  0.48752947896E+01  0.27509727042E+02  0.00000000000E+00 0.  1.
</event>
<event>
 7    1  0.2686828E-009  0.1910663E+03  0.7561462E-02  0.1157503E+00
          2   -1    0    0  501    0  0.00000000000E+00  0.00000000000E+00  0.76662422740E+03  0.76662422740E+03  0.00000000000E+00 0. -1.
         -2   -1    0    0    0  501 -0.00000000000E+00 -0.00000000000E+00 -0.12612662815E+03  0.12612662815E+03  0.00000000000E+00 0.  1.
         25    2    1    2    0    0  0.16147776909E+03  0.19951058143E+01 -0.20348068467E+02  0.20528056222E+03  0.12508802890E+03 0.  0.
          5    1    3    3  502    0  0.17496535028E+03  0.17488589762E+02  0.25634556971E+00  0.17588707367E+03  0.41800000000E+01 0. -1.
         -5    1    3    3    0  502 -0.13487581188E+02 -0.15493483947E+02 -0.20604414036E+02  0.29393488546E+02  0.41800000000E+01 0. -1.
        -11    1    1    2    0    0 -0.16016938963E+03 -0.25114619655E+02  0.61626466475E+03  0.63723395587E+03  0.00000000000E+00 0. -1.
         11    1    1    2    0    0 -0.13083794678E+01  0.23119513841E+02  0.44581002960E+02  0.50236337466E+02  0.00000000000E+00 0.  1.
</event>
<event>
 7    1  0.2686828E-009  0.1047884E+03  0.7561462E-02  0.1270537E+00
          4   -1    0    0  501    0  0.00000000000E+00  0.00000000000E+00  0.37692914022E+03  0.37692914022E+03  0.00000000000E+00 0. -1.
         -4   -1    0    0    0  501 -0.00000000000E+00 -0.00000000000E+00 -0.48825427109E+02  0.48825427109E+02  0.00000000000E+00 0.  1.
         25    2    1    2    0    0  0.11472032945E+02 -0.21105511744E+02  0.57506961802E+02  0.13975582041E+03  0.12509032143E+03 0.  0.
          5    1    3    3  502    0  0.57595213627E+02 -0.44400502979E+02  0.19298934271E+02  0.75356051924E+02  0.41800000000E+01 0. -1.
         -5    1    3    3    0  502 -0.46123180682E+02  0.23294991236E+02  0.38208027530E+02  0.64399768483E+02  0.41800000000E+01 0. -1.
        -11    1    1    2    0    0 -0.44154653774E+02  0.26896006724E+02  0.10417088739E+03  0.11629532410E+03  0.00000000000E+00 0.  1.
         11    1    1    2    0    0  0.32682620829E+02 -0.57904949801E+01  0.16642586392E+03  0.16970342282E+03  0.00000000000E+00 0. -1.
</event>
<event>
 7    1  0.2686828E-009  0.1327119E+03  0.7561462E-02  0.1223486E+00
          2   -1    0    0  501    0  0.00000000000E+00  0.00000000000E+00  0.85452508307E+02  0.85452508307E+02  0.00000000000E+00 0. -1.
         -2   -1    0    0    0  501 -0.00000000000E+00 -0.00000000000E+00 -0.26336260896E+03  0.26336260896E+03  0.00000000000E+00 0.  1.
         25    2    1    2    0    0  0.80434257566E+02 -0.63977627753E+02 -0.85725413397E+02  0.18319335571E+03  0.12509257545E+03 0.  0.
          5    1    3    3  502    0  0.60924847651E+02 -0.10141810486E+03 -0.53474720452E+02  0.12990183672E+03  0.41800000000E+01 0. -1.
         -5    1    3    3    0  502  0.19509409915E+02  0.37440477110E+02 -0.32250692945E+02  0.53291518996E+02  0.41800000000E+01 0. -1.
        -11    1    1    2    0    0 -0.38642927404E+02  0.43137848376E+02 -0.10256136261E+03  0.11778362747E+03  0.00000000000E+00 0.  1.
         11    1    1    2    0    0 -0.41791330162E+02  0.20839779377E+02  0.10376675349E+02  0.47838134083E+02  0.00000000000E+00 0. -1.
</event>
<event>
 7    1  0.2686828E-009  0.1394985E+03  0.7561462E-02  0.1214005E+00
          1   -1    0    0  501    0  0.00000000000E+00  0.00000000000E+00  0.10878965674E+04  0.10878965674E+04  0.00000000000E+00 0. -1.
         -1   -1    0    0    0  501 -0.00000000000E+00 -0.00000000000E+00 -0.19141506254E+02  0.19141506254E+02  0.00000000000E+00 0.  1.
         25    2    1    2    0    0 -0.79054145344E+02  0.48825500811E+02  0.51676658494E+03  0.53974840252E+03  0.12508855780E+03 0.  0.
          5    1    3    3  502    0 -0.63771516008E+02 -0.29645240288E+02  0.17322490113E+03  0.18700263446E+03  0.41800000000E+01 0.  1.
         -5    1    3    3    0  502 -0.15282629335E+02  0.78470741099E+02  0.34354168381E+03  0.35274576806E+03  0.41800000000E+01 0.  1.
        -11    1    1    2    0    0  0.13832186059E+02 -0.60650775141E+02  0.32130816944E+03  0.32727478614E+03  0.00000000000E+00 0. -1.
         11    1    1    2    0    0  0.65221959284E+02  0.11825274330E+02  0.23068030682E+03  0.24001488504E+03  0.00000000000E+00 0.  1.
</event>
<event>
 7    1  0.2686828E-009  0.1228965E+03  0.7561462E-02  0.1238394E+00
         -1   -1    0    0    0  501 -0.00000000000E+00  0.00000000000E+00  0.22148994311E+03  0.22148994311E+03  0.00000000000E+00 0.  1.
          1   -1    0    0  501    0  0.00000000000E+00 -0.00000000000E+00 -0.85220640241E+02  0.85220640241E+02  0.00000000000E+00 0. -1.
         25    2    1    2    0    0  0.80047923154E+02 -0.26802289187E+02  0.64078830695E+02  0.16394933097E+03  0.12508898383E+03 0.  0.
          5    1    3    3  502    0  0.88821573499E+02 -0.52774993197E+02  0.81098881226E+02  0.13141146359E+03  0.41800000000E+01 0. -1.
         -5    1    3    3    0  502 -0.87736503446E+01  0.25972704010E+02 -0.17020050532E+02  0.32537867387E+02  0.41800000000E+01 0. -1.
        -11    1    1    2    0    0  0.60887300394E+01 -0.16977146046E+02  0.34722302693E+02  0.39127157137E+02  0.00000000000E+00 0. -1.
         11    1    1    2    0    0 -0.86136653194E+02  0.43779435232E+02  0.37468169486E+02  0.10363409525E+03  0.00000000000E+00 0.  1.
</event>
<event>
 7    1  0.2686828E-009  0.1126251E+03  0.7561462E-02  0.1255784E+00
         -2   -1    0    0    0  501 -0.00000000000E+00  0.00000000000E+00  0.28693397073E+02  0.28693397073E+02  0.00000000000E+00 0. -1.
          2   -1    0    0  501    0  0.00000000000E+00 -0.00000000000E+00 -0.68261708546E+03  0.68261708546E+03  0.00000000000E+00 0.  1.
         25    2    1    2    0    0  0.36966000913E+02 -0.31862994276E+01 -0.15149204786E+03  0.19993774535E+03  0.12509445919E+03 0.  0.
          5    1    3    3  502    0  0.50265765541E+02 -0.56241613286E+02 -0.91167165014E+02  0.11840055163E+03  0.41800000000E+01 0.  1.
         -5    1    3    3    0  502 -0.13299764628E+02  0.53055313859E+02 -0.60324882847E+02  0.81537193712E+02  0.41800000000E+01 0.  1.
        -11    1    1    2    0    0 -0.55890741752E+02 -0.24732954655E+02 -0.30192913239E+03  0.30805307180E+03  0.00000000000E+00 0. -1.
         11    1    1    2    0    0  0.18924740839E+02  0.27919254083E+02 -0.20050250813E+03  0.20331966538E+03  0.00000000000E+00 0.  1.
</event>
<event>
 7    1  0.2686828E-009  0.2933080E+03  0.7561462E-02  0.1088635E+00
         -2   -1    0    0    0  501 -0.00000000000E+00  0.00000000000E+00  0.13361586547E+04  0.13361586547E+04  0.00000000000E+00 0.  1.
          2   -1    0    0  501    0  0.00000000000E+00 -0.00000000000E+00 -0.67738309697E+02  0.67738309697E+02  0.00000000000E+00 0. -1.
         25    2    1    2    0    0 -0.27856150291E+03  0.22798819194E+01  0.55033848998E+03  0.62938235193E+03  0.12509189664E+03 0.  0.
          5    1    3    3  502    0 -0.46596310440E+02 -0.48962397940E+02  0.12702460394E+03  0.14394879286E+03  0.41800000000E+01 0. -1.
         -5    1    3    3    0  502 -0.23196519247E+03  0.51242279859E+02  0.42331388603E+03  0.48543355907E+03  0.41800000000E+01 0. -1.
        -11    1    1    2    0    0  0.23201589927E+03  0.12815043794E+02  0.50514602759E+03  0.55602887699E+03  0.00000000000E+00 0. -1.
         11    1    1    2    0    0  0.46545603642E+02 -0.15094925713E+02  0.21293582741E+03  0.21848573545E+03  0.00000000000E+00 0.  1.
</event>
<event>
 7    1  0.2686828E-009  0.1628769E+03  0.7561462E-02  0.1185486E+00
         -2   -1    0    0    0  501 -0.00000000000E+00  0.00000000000E+00  0.16920286637E+02  0.16920286637E+02  0.00000000000E+00 0.  1.
          2   -1    0    0  501    0  0.00000000000E+00 -0.00000000000E+00 -0.17475615083E+04  0.17475615083E+04  0.00000000000E+00 0. -1.
         25    2    1    2    0    0 -0.11044880724E+03 -0.68635998699E+02 -0.10605499748E+04  0.10757908074E+04  0.12509905191E+03 0.  0.
          5    1    3    3  502    0 -0.70961182804E-01  0.30755829308E+02 -0.14768912718E+03  0.15091546229E+03  0.41800000000E+01 0. -1.
         -5    1    3    3    0  502 -0.11037784606E+03 -0.99391828007E+02 -0.91286084765E+03  0.92487534509E+03  0.41800000000E+01 0. -1.
        -11    1    1    2    0    0  0.51857597240E+02  0.70481361787E+02 -0.52437057774E+03  0.53162142126E+03  0.00000000000E+00 0.  1.
         11    1    1    2    0    0  0.58591210000E+02 -0.18453630878E+01 -0.14572066910E+03  0.15706956630E+03  0.00000000000E+00 0. -1.
</event>
<event>
 7    1  0.2686828E-009  0.1351474E+03  0.7561462E-02  0.1220012E+00
         -2   -1    0    0    0  501 -0.00000000000E+00  0.00000000000E+00  0.84429253729E+02  0.84429253729E+02  0.00000000000E+00 0. -1.
          2   -1    0    0  501    0  0.00000000000E+00 -0.00000000000E+00 -0.34742794215E+03  0.34742794215E+03  0.00000000000E+00 0.  1.
         25    2    1    2    0    0 -0.73957681081E+01  0.81900797426E+02 -0.89473415292E+01  0.14996436255E+03  0.12508723800E+03 0.  0.
          5    1    3    3  502    0  0.32680327210E+02  0.10012737631E+03 -0.42926555663E+01  0.10549594572E+03  0.41800000000E+01 0. -1.
         -5    1    3    3    0  502 -0.40076095318E+02 -0.18226578880E+02 -0.46546859629E+01  0.44468416826E+02  0.41800000000E+01 0. -1.
        -11    1    1    2    0    0  0.47086156610E+02 -0.32133757845E+02 -0.14212076912E+03  0.15312738995E+03  0.00000000000E+00 0.  1.
         11    1    1    2    0    0 -0.39690388502E+02 -0.49767039581E+02 -0.11193057777E+03  0.12876544338E+03  0.00000000000E+00 0. -1.
</event>
<event>
 7    1  0.2686828E-009  0.8928259E+02  0.7561462E-02  0.1304598E+00
         -3   -1    0    0    0  501 -0.00000000000E+00  0.00000000000E+00  0.24722708790E+03  0.24722708790E+03  0.00000000000E+00 0.  1.
          3   -1    0    0  501    0  0.00000000000E+00 -0.00000000000E+00 -0.64986359577E+02  0.64986359577E+02  0.00000000000E+00 0. -1.
         25    2    1    2    0    0 -0.54330668568E+02  0.22079733270E+02  0.13794606803E+03  0.19523113972E+03  0.12508694601E+03 0.  0.
          5    1    3    3  502    0 -0.14437479712E+02 -0.39114948359E+02  0.10858670162E+03  0.11639142655E+03  0.41800000000E+01 0.  1.
         -5    1    3    3    0  502 -0.39893188856E+02  0.61194681629E+02  0.29359366409E+02  0.78839713170E+02  0.41800000000E+01 0.  1.
        -11    1    1    2    0    0  0.22024998148E+02  0.34803681618E+01 -0.26770553736E+02  0.34840724064E+02  0.00000000000E+00 0. -1.
         11    1    1    2    0    0  0.32305670420E+02 -0.25560101432E+02  0.71065214029E+02  0.82141583692E+02  0.00000000000E+00 0.  1.
</event>
<event>
 7    1  0.2686828E-009  0.8498898E+02  0.7561462E-02  0.1315461E+00
          2   -1    0    0  501    0  0.00000000000E+00  0.00000000000E+00  0.54286780543E+03  0.54286780543E+03  0.00000000000E+00 0. -1.
         -2   -1    0    0    0  501 -0.00000000000E+00 -0.00000000000E+00 -0.25377447166E+02  0.25377447166E+02  0.00000000000E+00 0.  1.
         25    2    1    2    0    0  0.40419820445E+02  0.22752594199E+01  0.24201046600E+03  0.27541383739E+03  0.12507908492E+03 0.  0.
          5    1    3    3  502    0  0.45237267971E+01  0.26606552942E+02 -0.21522056812E+01  0.27394838070E+02  0.41800000000E+01 0. -1.
         -5    1    3    3    0  502  0.35896093648E+02 -0.24331293522E+02  0.24416267168E+03  0.24801899932E+03  0.41800000000E+01 0. -1.
        -11    1    1    2    0    0 -0.51513476426E+02  0.33631568987E+02  0.17992063302E+03  0.19014771855E+03  0.00000000000E+00 0. -1.
         11    1    1    2    0    0  0.11093655981E+02 -0.35906828407E+02  0.95559259254E+02  0.10268369665E+03  0.00000000000E+00 0.  1.
</event>
<event>
 7    1  0.2686828E-009  0.1574432E+03  0.7561462E-02  0.1191614E+00
         -2   -1    0    0    0  501 -0.00000000000E+00  0.00000000000E+00  0.61387752952E+02  0.61387752952E+02  0.00000000000E+00 0. -1.
          2   -1    0    0  501    0  0.00000000000E+00 -0.00000000000E+00 -0.58312704220E+03  0.58312704220E+03  0.00000000000E+00 0.  1.
         25    2    1    2    0    0 -0.56829198924E+02  0.12750397423E+03 -0.15881197445E+03  0.24567198842E+03  0.12508661548E+03 0.  0.
          5    1    3    3  502    0 -0.66083279333E+02  0.13077672648E+03 -0.17374468194E+03  0.22731968436E+03  0.41800000000E+01 0.  1.
         -5    1    3    3    0  502  0.92540804093E+01 -0.32727522463E+01  0.14932707490E+02  0.18352304064E+02  0.41800000000E+01 0.  1.
        -11    1    1    2    0    0 -0.16598741244E+02 -0.40597847578E+02 -0.16312211626E+03  0.16891574305E+03  0.00000000000E+00 0.  1.
         11    1    1    2    0    0  0.73427940168E+02 -0.86906126651E+02 -0.19980519854E+03  0.22992706367E+03  0.00000000000E+00 0. -1.
</event>
<event>
 7    1  0.2686828E-009  0.1041023E+03  0.7561462E-02  0.1271898E+00
          2   -1    0    0  501    0  0.00000000000E+00  0.00000000000E+00  0.79650504994E+03  0.79650504994E+03  0.00000000000E+00 0. -1.
         -2   -1    0    0    0  501 -0.00000000000E+00 -0.00000000000E+00 -0.15903955594E+02  0.15903955594E+02  0.00000000000E+00 0.  1.
         25    2    1    2    0    0  0.34796725080E+01  0.23817566359E+02  0.46333844926E+03  0.48053046063E+03  0.12509044907E+03 0.  0.
          5    1    3    3  502    0  0.61820981872E+02  0.61283368168E+00  0.27726982156E+03  0.28410954878E+03  0.41800000000E+01 0. -1.
         -5    1    3    3    0  502 -0.58341309364E+02  0.23204732677E+02  0.18606862770E+03  0.19642091185E+03  0.41800000000E+01 0. -1.
        -11    1    1    2    0    0  0.38177854412E+02 -0.11642236102E+02  0.23968900373E+03  0.24298952393E+03  0.00000000000E+00 0.  1.
         11    1    1    2    0    0 -0.41657526920E+02 -0.12175330257E+02  0.77573641352E+02  0.88889020968E+02  0.00000000000E+00 0. -1.
</event>
<event>
 7    1  0.2686828E-009  0.1663345E+03  0.7561462E-02  0.1181725E+00
          1   -1    0    0  501    0  0.00000000000E+00  0.00000000000E+00  0.19428500164E+03  0.19428500164E+03  0.00000000000E+00 0. -1.
         -1   -1    0    0    0  501 -0.00000000000E+00 -0.00000000000E+00 -0.20467679515E+03  0.20467679515E+03  0.00000000000E+00 0.  1.
         25    2    1    2    0    0  0.76537891707E+02  0.12122796637E+03 -0.90570948693E+02  0.21072577527E+03  0.12509191388E+03 0.  0.
          5    1    3    3  502    0  0.16795127985E+02  0.12479457271E+03 -0.81493340950E+02  0.15004798806E+03  0.41800000000E+01 0.  1.
         -5    1    3    3    0  502  0.59742763723E+02 -0.35666063389E+01 -0.90776077432E+01  0.60677787207E+02  0.41800000000E+01 0.  1.
        -11    1    1    2    0    0 -0.33649443943E+02 -0.81705170166E+02 -0.89028473589E+00  0.88367485629E+02  0.00000000000E+00 0.  1.
         11    1    1    2    0    0 -0.42888447765E+02 -0.39522796205E+02  0.81069439921E+02  0.99868535889E+02  0.00000000000E+00 0. -1.
</event>
<event>
 7    1  0.2686828E-009  0.1319549E+03  0.7561462E-02  0.1224583E+00
          1   -1    0    0  501    0  0.00000000000E+00  0.00000000000E+00  0.97992381428E+03  0.97992381428E+03  0.00000000000E+00 0. -1.
         -1   -1    0    0    0  501 -0.00000000000E+00 -0.00000000000E+00 -0.19892740315E+02  0.19892740315E+02  0.00000000000E+00 0.  1.
         25    2    1    2    0    0  0.22728414037E+01 -0.86309467012E+02  0.52367698827E+03  0.54528823756E+03  0.12508870482E+03 0.  0.
          5    1    3    3  502    0 -0.38465277603E+02  0.40184280348E+01  0.27212248515E+03  0.27488878600E+03  0.41800000000E+01 0. -1.
         -5    1    3    3    0  502  0.40738119007E+02 -0.90327895047E+02  0.25155450312E+03  0.27039945156E+03  0.41800000000E+01 0. -1.
        -11    1    1    2    0    0  0.39063114907E+01 -0.19477380913E+02  0.97039955004E+02  0.99052412913E+02  0.00000000000E+00 0. -1.
         11    1    1    2    0    0 -0.61791528944E+01  0.10578684793E+03  0.33931413069E+03  0.35547590412E+03  0.00000000000E+00 0.  1.
</event>
<event>
 7    1  0.2686828E-009  0.1320091E+03  0.7561462E-02  0.1224505E+00
         -2   -1    0    0    0  501 -0.00000000000E+00  0.00000000000E+00  0.29089245142E+02  0.29089245142E+02  0.00000000000E+00 0.  1.
          2   -1    0    0  501    0  0.00000000000E+00 -0.00000000000E+00 -0.69284578750E+03  0.69284578750E+03  0.00000000000E+00 0. -1.
         25    2    1    2    0    0  0.87576292347E+02 -0.27357576610E+02 -0.33693743382E+03  0.37093480969E+03  0.12509098588E+03 0.  0.
          5    1    3    3  502    0  0.25284998977E+02  0.46596552188E+02 -0.16826027712E+03  0.17646405613E+03  0.41800000000E+01 0.  1.
         -5    1    3    3    0  502  0.62291293370E+02 -0.73954128798E+02 -0.16867715670E+03  0.19447075356E+03  0.41800000000E+01 0.  1.
        -11    1    1    2    0    0 -0.83574184747E+02 -0.28127220001E+01 -0.15137807343E+03  0.17293893974E+03  0.00000000000E+00 0. -1.
         11    1    1    2    0    0 -0.40021076002E+01  0.30170298610E+02 -0.17544103511E+03  0.17806128322E+03  0.00000000000E+00 0.  1.
</event>
<event>
 7    1  0.2686828E-009  0.1278366E+03  0.7561462E-02  0.1230702E+00
         -2   -1    0    0    0  501 -0.00000000000E+00  0.00000000000E+00  0.27704566757E+03  0.27704566757E+03  0.00000000000E+00 0.  1.
          2   -1    0    0  501    0  0.00000000000E+00 -0.00000000000E+00 -0.62138442284E+02  0.62138442284E+02  0.00000000000E+00 0. -1.
         25    2    1    2    0    0 -0.60661802126E+02 -0.41594049266E+02  0.11000495231E+03  0.18209368998E+03  0.12508838165E+03 0.  0.
          5    1    3    3  502    0  0.35714978337E+02 -0.27965740271E+02  0.21108668941E+02  0.50206479771E+02  0.41800000000E+01 0.  1.
         -5    1    3    3    0  502 -0.96376780463E+02 -0.13628308995E+02  0.88896283373E+02  0.13188721021E+03  0.41800000000E+01 0.  1.
        -11    1    1    2    0    0  0.80636464401E+02  0.19601034325E+02  0.94132983859E+02  0.12548887834E+03  0.00000000000E+00 0.  1.
         11    1    1    2    0    0 -0.19974662274E+02  0.21993014941E+02  0.10769289109E+02  0.31601541530E+02  0.00000000000E+00 0. -1.
</event>
<event>
 7    1  0.2686828E-009  0.9000713E+02  0.7561462E-02  0.1302834E+00
         -2   -1    0    0    0  501 -0.00000000000E+00  0.00000000000E+00  0.76714221563E+02  0.76714221563E+02  0.00000000000E+00 0.  1.
          2   -1    0    0  501    0  0.00000000000E+00 -0.00000000000E+00 -0.20114622383E+03  0.20114622383E+03  0.00000000000E+00 0. -1.
         25    2    1    2    0    0  0.16735631563E+02 -0.59945431196E+02 -0.88089385865E+02  0.16516844387E+03  0.12508932354E+03 0.  0.
          5    1    3    3  502    0  0.41702889695E+02 -0.27797047659E+02 -0.10839099217E+03  0.11949011026E+03  0.41800000000E+01 0. -1.
         -5    1    3    3    0  502 -0.24967258133E+02 -0.32148383538E+02  0.20301606302E+02  0.45678333608E+02  0.41800000000E+01 0. -1.
        -11    1    1    2    0    0 -0.39879206276E+02  0.25603019302E+02 -0.50187206670E+02  0.69026237069E+02  0.00000000000E+00 0. -1.
         11    1    1    2    0    0  0.23143574714E+02  0.34342411895E+02  0.13844590272E+02  0.43665764451E+02  0.00000000000E+00 0.  1.
</event>
<event>
 7    1  0.2686828E-009  0.6516298E+02  0.7561462E-02  0.1377359E+00
         -4   -1    0    0    0  501 -0.00000000000E+00  0.00000000000E+00  0.35710729660E+02  0.35710729660E+02  0.00000000000E+00 0.  1.
          4   -1    0    0  501    0  0.00000000000E+00 -0.00000000000E+00 -0.36851140268E+03  0.36851140268E+03  0.00000000000E+00 0. -1.
         25    2    1    2    0    0  0.48920462888E+01 -0.26162196500E+02 -0.13587180121E+03  0.18659307087E+03  0.12508970817E+03 0.  0.
          5    1    3    3  502    0  0.27028017124E+01  0.11025569498E+02 -0.14699478222E+03  0.14749171746E+03  0.41800000000E+01 0. -1.
         -5    1    3    3    0  502  0.21892445764E+01 -0.37187765998E+02  0.11122981010E+02  0.39101353407E+02  0.41800000000E+01 0. -1.
        -11    1    1    2    0    0  0.92154225061E+01 -0.25539398762E+02 -0.12508950100E+03  0.12800221936E+03  0.00000000000E+00 0. -1.
         11    1    1    2    0    0 -0.14107468795E+02  0.51701595262E+02 -0.71839370813E+02  0.89626842114E+02  0.00000000000E+00 0.  1.
</event>
<event>
 7    1  0.2686828E-009  0.1044645E+03  0.7561462E-02  0.1271178E+00
          2   -1    0    0  501    0  0.00000000000E+00  0.00000000000E+00  0.77675447976E+03  0.77675447976E+03  0.00000000000E+00 0. -1.
         -2   -1    0    0    0  501 -0.00000000000E+00 -0.00000000000E+00 -0.50583555199E+02  0.50583555199E+02  0.00000000000E+00 0.  1.
         25    2    1    2    0    0  0.24842057188E+02  0.75444384745E+02  0.69350788767E+03  0.70916137760E+03  0.12509071201E+03 0.  0.
          5    1    3    3  502    0  0.37311013487E+02  0.73559786362E+02  0.69065238591E+03  0.69557267374E+03  0.41800000000E+01 0. -1.
         -5    1    3    3    0  502 -0.12468956299E+02  0.18845983827E+01  0.28555017582E+01  0.13588703858E+02  0.41800000000E+01 0. -1.
        -11    1    1    2    0    0 -0.52585444221E+02 -0.64531871916E+02  0.19012711790E+02  0.85387789798E+02  0.00000000000E+00 0. -1.
         11    1    1    2    0    0  0.27743387033E+02 -0.10912512829E+02  0.13650325102E+02  0.32788867557E+02  0.00000000000E+00 0.  1.
</event>
<event>
 7    1  0.2686828E-009  0.1055655E+03  0.7561462E-02  0.1269009E+00
          2   -1    0    0  501    0  0.00000000000E+00  0.00000000000E+00  0.48832097229E+03  0.48832097229E+03  0.00000000000E+00 0. -1.
         -2   -1    0    0    0  501 -0.00000000000E+00 -0.00000000000E+00 -0.27252550070E+02  0.27252550070E+02  0.00000000000E+00 0.  1.
         25    2    1    2    0    0  0.17150751988E+02 -0.37007722960E+02  0.28655277776E+03  0.31531568599E+03  0.12509103700E+03 0.  0.
          5    1    3    3  502    0  0.35822302151E+00  0.46152061902E+02  0.91342928608E+02  0.10242628641E+03  0.41800000000E+01 0. -1.
         -5    1    3    3    0  502  0.16792528967E+02 -0.83159784862E+02  0.19520984915E+03  0.21288939958E+03  0.41800000000E+01 0. -1.
        -11    1    1    2    0    0  0.26124841877E+02  0.65660076341E+01  0.12265085222E+02  0.29598177897E+02  0.00000000000E+00 0.  1.
         11    1    1    2    0    0 -0.43275593865E+02  0.30441715326E+02  0.16225055923E+03  0.17065965847E+03  0.00000000000E+00 0. -1.
</event>
<event>
 7    1  0.2686828E-009  0.1219753E+03  0.7561462E-02  0.1239874E+00
          1   -1    0    0  501    0  0.00000000000E+00  0.00000000000E+00  0.29665105160E+02  0.29665105160E+02  0.00000000000E+00 0. -1.
         -1   -1    0    0    0  501 -0.00000000000E+00 -0.00000000000E+00 -0.54837316476E+03  0.54837316476E+03  0.00000000000E+00 0.  1.
         25    2    1    2    0    0  0.41889754685E+02 -0.13203615872E+02 -0.30600838836E+03  0.33349252733E+03  0.12508814898E+03 0.  0.
          5    1    3    3  502    0  0.90127033075E+01 -0.67895172636E+02 -0.16014215936E+03  0.17422389874E+03  0.41800000000E+01 0. -1.
         -5    1    3    3    0  502  0.32877051377E+02  0.54691556764E+02 -0.14586622900E+03  0.15926862858E+03  0.41800000000E+01 0. -1.
        -11    1    1    2    0    0  0.33977851724E+02  0.10118595889E+02 -0.11773815876E+03  0.12295997079E+03  0.00000000000E+00 0.  1.
         11    1    1    2    0    0 -0.75867606409E+02  0.30850199830E+01 -0.94961512483E+02  0.12158577180E+03  0.00000000000E+00 0. -1.
</event>
<event>
 7    1  0.2686828E-009  0.8474696E+02  0.7561462E-02  0.1316096E+00
          2   -1    0    0  501    0  0.00000000000E+00  0.00000000000E+00  0.10978044352E+04  0.10978044352E+04  0.00000000000E+00 0. -1.
         -2   -1    0    0    0  501 -0.00000000000E+00 -0.00000000000E+00 -0.13092448643E+02  0.13092448643E+02  0.00000000000E+00 0.  1.
         25    2    1    2    0    0 -0.26893198446E+02 -0.37230818838E+02  0.54289069665E+03  0.55900666771E+03  0.12509503601E+03 0.  0.
          5    1    3    3  502    0 -0.74879751334E+01 -0.44182014812E+02  0.53445361276E+03  0.53634527759E+03  0.41800000000E+01 0.  1.
         -5    1    3    3    0  502 -0.19405223312E+02  0.69511959740E+01  0.84370838942E+01  0.22661390114E+02  0.41800000000E+01 0.  1.
        -11    1    1    2    0    0 -0.26047144746E+02 -0.14182526835E+02  0.11660346022E+03  0.12031610346E+03  0.00000000000E+00 0.  1.
         11    1    1    2    0    0  0.52940343191E+02  0.51413345673E+02  0.42521782971E+03  0.43157411270E+03  0.00000000000E+00 0. -1.
</event>
<event>
 7    1  0.2686828E-009  0.1241953E+03  0.7561462E-02  0.1236332E+00
          1   -1    0    0  501    0  0.00000000000E+00  0.00000000000E+00  0.27186050334E+03  0.27186050334E+03  0.00000000000E+00 0. -1.
         -1   -1    0    0    0  501 -0.00000000000E+00 -0.00000000000E+00 -0.88963634781E+02  0.88963634781E+02  0.00000000000E+00 0.  1.
         25    2    1    2    0    0 -0.72170719151E+02  0.52850138582E+02  0.21844942220E+02  0.15531908764E+03  0.12508024478E+03 0.  0.
          5    1    3    3  502    0  0.31572765468E+02  0.22427109607E+02  0.26357467878E+02  0.47031938909E+02  0.41800000000E+01 0.  1.
         -5    1    3    3    0  502 -0.10374348462E+03  0.30423028976E+02 -0.45125256585E+01  0.10828714873E+03  0.41800000000E+01 0.  1.
        -11    1    1    2    0    0  0.64962285459E+02 -0.61861911778E+02  0.16911048561E+03  0.19142975475E+03  0.00000000000E+00 0. -1.
         11    1    1    2    0    0  0.72084336920E+01  0.90117731960E+01 -0.80585592679E+01  0.14075295731E+02  0.00000000000E+00 0.  1.
</event>
<event>
 7    1  0.2686828E-009  0.1037644E+03  0.7561462E-02  0.1272573E+00
         -3   -1    0    0    0  501 -0.00000000000E+00  0.00000000000E+00  0.25253583029E+03  0.25253583029E+03  0.00000000000E+00 0.  1.
          3   -1    0    0  501    0  0.00000000000E+00 -0.00000000000E+00 -0.55960156629E+02  0.55960156629E+02  0.00000000000E+00 0. -1.
         25    2    1    2    0    0  0.27031255771E+02 -0.17441512351E+02  0.16265061084E+03  0.20769588064E+03  0.12508981768E+03 0.  0.
          5    1    3    3  502    0  0.60039256332E+02  0.29163943278E+02  0.58556860531E+02  0.88891091813E+02  0.41800000000E+01 0. -1.
         -5    1    3    3    0  502 -0.33008000562E+02 -0.46605455628E+02  0.10409375030E+03  0.11880478883E+03  0.41800000000E+01 0. -1.
        -11    1    1    2    0    0 -0.25075972665E+02  0.47262208342E+02 -0.26503658990E+01  0.53568135882E+02  0.00000000000E+00 0. -1.
         11    1    1    2    0    0 -0.19552831059E+01 -0.29820695991E+02  0.36575428729E+02  0.47231970403E+02  0.00000000000E+00 0.  1.
</event>
<event>
 7    1  0.2686828E-009  0.9362898E+02  0.7561462E-02  0.1294294E+00
         -1   -1    0    0    0  501 -0.00000000000E+00  0.00000000000E+00  0.28710743589E+03  0.28710743589E+03  0.00000000000E+00 0.  1.
          1   -1    0    0  501    0  0.00000000000E+00 -0.00000000000E+00 -0.43967141714E+02  0.43967141714E+02  0.00000000000E+00 0. -1.
         25    2    1    2    0    0 -0.35766301323E+02  0.33045108376E+02  0.15357064036E+03  0.20396703498E+03  0.12508957702E+03 0.  0.
          5    1    3    3  502    0 -0.40215839367E+02  0.75817788155E+02  0.12669495441E+03  0.15308407693E+03  0.41800000000E+01 0.  1.
         -5    1    3    3    0  502  0.44495380439E+01 -0.42772679779E+02  0.26875685943E+02  0.50882958043E+02  0.41800000000E+01 0.  1.
        -11    1    1    2    0    0  0.35971190565E+02 -0.13255191519E+02  0.98274350534E+02  0.10548684575E+03  0.00000000000E+00 0.  1.
         11    1    1    2    0    0 -0.20488924277E+00 -0.19789916857E+02 -0.87046967127E+01  0.21620696882E+02  0.00000000000E+00 0. -1.
</event>
<event>
 7    1  0.2686828E-009  0.1082333E+03  0.7561462E-02  0.1263877E+00
         -2   -1    0    0    0  501 -0.00000000000E+00  0.00000000000E+00  0.43002069660E+02  0.43002069660E+02  0.00000000000E+00 0.  1.
          2   -1    0    0  501    0  0.00000000000E+00 -0.00000000000E+00 -0.40838764987E+03  0.40838764987E+03  0.00000000000E+00 0. -1.
         25    2    1    2    0    0 -0.12080643645E+02  0.65907971731E+02 -0.13963569142E+03  0.19908307607E+03  0.12508454010E+03 0.  0.
          5    1    3    3  502    0  0.23963829734E+02 -0.21598319485E+02 -0.27929902673E+01  0.32650049537E+02  0.41800000000E+01 0. -1.
         -5    1    3    3    0  502 -0.36044473379E+02  0.87506291216E+02 -0.13684270115E+03  0.16643302654E+03  0.41800000000E+01 0. -1.
        -11    1    1    2    0    0  0.17134160653E+02 -0.76005788083E+02 -0.22786615454E+03  0.24081827934E+03  0.00000000000E+00 0. -1.
         11    1    1    2    0    0 -0.50535170079E+01  0.10097816352E+02  0.21162657472E+01  0.11488364110E+02  0.00000000000E+00 0.  1.
</event>
<event>
 7    1  0.2686828E-009  0.1552526E+03  0.7561462E-02  0.1194163E+00
          2   -1    0    0  501    0  0.00000000000E+00  0.00000000000E+00  0.11828831545E+04  0.11828831545E+04  0.00000000000E+00 0. -1.
         -2   -1    0    0    0  501 -0.00000000000E+00 -0.00000000000E+00 -0.21803076199E+02  0.21803076199E+02  0.00000000000E+00 0.  1.
         25    2    1    2    0    0  0.68712536681E+02  0.91820531293E+02  0.74278911479E+03  0.76193008317E+03  0.12509740172E+03 0.  0.
          5    1    3    3  502    0  0.76516956275E+02  0.24774471019E-01  0.29934798854E+03  0.30900086708E+03  0.41800000000E+01 0. -1.
         -5    1    3    3    0  502 -0.78044195945E+01  0.91795756822E+02  0.44344112625E+03  0.45292921609E+03  0.41800000000E+01 0. -1.
        -11    1    1    2    0    0 -0.24261478557E+01 -0.72593325147E+02  0.26245416398E+03  0.27231941767E+03  0.00000000000E+00 0. -1.
         11    1    1    2    0    0 -0.66286388825E+02 -0.19227206146E+02  0.15583679955E+03  0.17043672989E+03  0.00000000000E+00 0.  1.
</event>
<event>
 7    1  0.2686828E-009  0.1636200E+03  0.7561462E-02  0.1184669E+00
         -1   -1    0    0    0  501 -0.00000000000E+00  0.00000000000E+00  0.46514086100E+02  0.46514086100E+02  0.00000000000E+00 0.  1.
          1   -1    0    0  501    0  0.00000000000E+00 -0.00000000000E+00 -0.72021979767E+03  0.72021979767E+03  0.00000000000E+00 0. -1.
         25    2    1    2    0    0  0.11210870600E+03  0.78351581358E+02 -0.23978647647E+03  0.30307138298E+03  0.12508947446E+03 0.  0.
          5    1    3    3  502    0  0.10655126183E+03  0.10868681323E+03 -0.18075546770E+03  0.23633875322E+03  0.41800000000E+01 0.  1.
         -5    1    3    3    0  502  0.55574441709E+01 -0.30335231875E+02 -0.59031008768E+02  0.66732629761E+02  0.41800000000E+01 0.  1.
        -11    1    1    2    0    0 -0.26643799423E+02 -0.44633077606E+02 -0.63720569296E+02  0.82233293839E+02  0.00000000000E+00 0.  1.
         11    1    1    2    0    0 -0.85464906581E+02 -0.33718503752E+02 -0.37019866581E+03  0.38142920696E+03  0.00000000000E+00 0. -1.
</event>
<event>
 7    1  0.2686828E-009  0.1500456E+03  0.7561462E-02  0.1200417E+00
         -3   -1    0    0    0  501 -0.00000000000E+00  0.00000000000E+00  0.67485002380E+02  0.67485002380E+02  0.00000000000E+00 0.  1.
          3   -1    0    0  501    0  0.00000000000E+00 -0.00000000000E+00 -0.44934318840E+03  0.44934318840E+03  0.00000000000E+00 0. -1.
         25    2    1    2    0    0  0.11125827222E+03  0.58422592661E+02 -0.28278113278E+03  0.33377388540E+03  0.12509290564E+03 0.  0.
          5    1    3    3  502    0 -0.27365442299E+01  0.31885140854E+02 -0.16332338447E+03  0.16648168426E+03  0.41800000000E+01 0. -1.
         -5    1    3    3    0  502  0.11399481645E+03  0.26537451806E+02 -0.11945774832E+03  0.16729220113E+03  0.41800000000E+01 0. -1.
        -11    1    1    2    0    0  0.60804099602E+01 -0.29132389983E+02 -0.57933580704E+01  0.30318814771E+02  0.00000000000E+00 0.  1.
         11    1    1    2    0    0 -0.11733868218E+03 -0.29290202678E+02 -0.93283695169E+02  0.15273549062E+03  0.00000000000E+00 0. -1.
</event>
<event>
 7    1  0.2686828E-009  0.1358233E+03  0.7561462E-02  0.1219062E+00
         -2   -1    0    0    0  501 -0.00000000000E+00  0.00000000000E+00  0.20315248099E+02  0.20315248099E+02  0.00000000000E+00 0. -1.
          2   -1    0    0  501    0  0.00000000000E+00 -0.00000000000E+00 -0.11342729824E+04  0.11342729824E+04  0.00000000000E+00 0.  1.
         25    2    1    2    0    0  0.47001443695E+02 -0.69530738726E+02 -0.83864217799E+03  0.85206284835E+03  0.12508691177E+03 0.  0.
          5    1    3    3  502    0  0.89665021306E+02 -0.51379139055E+02 -0.54023424066E+03  0.55004557917E+03  0.41800000000E+01 0. -1.
         -5    1    3    3    0  502 -0.42663577611E+02 -0.18151599671E+02 -0.29840793733E+03  0.30201726919E+03  0.41800000000E+01 0. -1.
        -11    1    1    2    0    0  0.25178434764E+02  0.30702932224E+02 -0.12709814782E+03  0.13315615947E+03  0.00000000000E+00 0.  1.
         11    1    1    2    0    0 -0.72179878459E+02  0.38827806502E+02 -0.14821740848E+03  0.16936922267E+03  0.00000000000E+00 0. -1.
</event>
<event>
 7    1  0.2686828E-009  0.2786032E+03  0.7561462E-02  0.1096454E+00
          2   -1    0    0  501    0  0.00000000000E+00  0.00000000000E+00  0.12518972087E+04  0.12518972087E+04  0.00000000000E+00 0. -1.
         -2   -1    0    0    0  501 -0.00000000000E+00 -0.00000000000E+00 -0.69703447281E+02  0.69703447281E+02  0.00000000000E+00 0.  1.
         25    2    1    2    0    0  0.26382919715E+03 -0.27426996409E+02  0.76179539785E+03  0.81629527625E+03  0.12509062495E+03 0.  0.
          5    1    3    3  502    0  0.17468621349E+03 -0.69321371590E+02  0.41175814111E+03  0.45263999482E+03  0.41800000000E+01 0. -1.
         -5    1    3    3    0  502  0.89142983659E+02  0.41894375181E+02  0.35003725674E+03  0.36365528143E+03  0.41800000000E+01 0. -1.
        -11    1    1    2    0    0 -0.15837034015E+03  0.42827420224E+02  0.31634691857E+03  0.35635758088E+03  0.00000000000E+00 0.  1.
         11    1    1    2    0    0 -0.10545885700E+03 -0.15400423815E+02  0.10405144498E+03  0.14894779883E+03  0.00000000000E+00 0. -1.
</event>
<event>
 7    1  0.2686828E-009  0.1180201E+03  0.7561462E-02  0.1246399E+00
          1   -1    0    0  501    0  0.00000000000E+00  0.00000000000E+00  0.56724288323E+02  0.56724288323E+02  0.00000000000E+00 0. -1.
         -1   -1    0    0    0  501 -0.00000000000E+00 -0.00000000000E+00 -0.29324567965E+03  0.29324567965E+03  0.00000000000E+00 0.  1.
         25    2    1    2    0    0  0.44406415781E+02 -0.35531368146E+02 -0.18265087484E+03  0.22856788315E+03  0.12509007652E+03 0.  0.
          5    1    3    3  502    0  0.85726734312E+02 -0.40047385624E+02 -0.13847840856E+03  0.16776950888E+03  0.41800000000E+01 0. -1.
         -5    1    3    3    0  502 -0.41320318531E+02  0.45160174774E+01 -0.44172466280E+02  0.60798374276E+02  0.41800000000E+01 0. -1.
        -11    1    1    2    0    0  0.18341198721E+02 -0.11042705420E+02  0.68090878134E+01  0.22465631314E+02  0.00000000000E+00 0. -1.
         11    1    1    2    0    0 -0.62747614502E+02  0.46574073566E+02 -0.60679604298E+02  0.98936453504E+02  0.00000000000E+00 0.  1.
</event>
<event>
 7    1  0.2686828E-009  0.1453274E+03  0.7561462E-02  0.1206335E+00
         -2   -1    0    0    0  501 -0.00000000000E+00  0.00000000000E+00  0.72671099710E+02  0.72671099710E+02  0.00000000000E+00 0.  1.
          2   -1    0    0  501    0  0.00000000000E+00 -0.00000000000E+00 -0.48720415527E+03  0.48720415527E+03  0.00000000000E+00 0. -1.
         25    2    1    2    0    0  0.10199050573E+03  0.58703101175E+02 -0.36734969061E+03  0.40551357986E+03  0.12508937169E+03 0.  0.
          5    1    3    3  502    0  0.26682173576E+02  0.73247845624E+02 -0.97276805729E+02  0.12472944563E+03  0.41800000000E+01 0. -1.
         -5    1    3    3    0  502  0.75308332158E+02 -0.14544744449E+02 -0.27007288488E+03  0.28078413422E+03  0.41800000000E+01 0. -1.
        -11    1    1    2    0    0 -0.60886480917E+02  0.37556387519E+01  0.78725426308E+01  0.61508091405E+02  0.00000000000E+00 0.  1.
         11    1    1    2    0    0 -0.41104024818E+02 -0.62458739927E+02 -0.55055907579E+02  0.92853583716E+02  0.00000000000E+00 0. -1.
</event>
<event>
 7    1  0.2686828E-009  0.1005647E+03  0.7561462E-02  0.1279113E+00
          1   -1    0    0  501    0  0.00000000000E+00  0.00000000000E+00  0.63962281598E+03  0.63962281598E+03  0.00000000000E+00 0. -1.
         -1   -1    0    0    0  501 -0.00000000000E+00 -0.00000000000E+00 -0.23527807315E+02  0.23527807315E+02  0.00000000000E+00 0.  1.
         25    2    1    2    0    0 -0.14627302075E+02 -0.35788461403E+02  0.45476211970E+03  0.47323454947E+03  0.12509029283E+03 0.  0.
          5    1    3    3  502    0  0.31773281516E+02 -0.55599546207E+02  0.36117461842E+03  0.36683160762E+03  0.41800000000E+01 0. -1.
         -5    1    3    3    0  502 -0.46400583592E+02  0.19811084803E+02  0.93587501282E+02  0.10640294185E+03  0.41800000000E+01 0. -1.
        -11    1    1    2    0    0  0.45056519320E+02  0.93443024785E+01  0.36496358452E+02  0.58731508599E+02  0.00000000000E+00 0.  1.
         11    1    1    2    0    0 -0.30429217244E+02  0.26444158925E+02  0.12483653051E+03  0.13118456522E+03  0.00000000000E+00 0. -1.
</event>
<event>
 7    1  0.2686828E-009  0.1104142E+03  0.7561462E-02  0.1259805E+00
          3   -1    0    0  501    0  0.00000000000E+00  0.00000000000E+00  0.15834624723E+03  0.15834624723E+03  0.00000000000E+00 0. -1.
         -3   -1    0    0    0  501 -0.00000000000E+00 -0.00000000000E+00 -0.11031178372E+03  0.11031178372E+03  0.00000000000E+00 0.  1.
         25    2    1    2    0    0  0.26953957448E+02 -0.54710671516E+02 -0.18771406489E+02  0.14042656370E+03  0.12508989044E+03 0.  0.
          5    1    3    3  502    0  0.67563334532E+02 -0.35126331863E+02  0.22130118209E+02  0.79409557959E+02  0.41800000000E+01 0. -1.
         -5    1    3    3    0  502 -0.40609377084E+02 -0.19584339653E+02 -0.40901524697E+02  0.61017005739E+02  0.41800000000E+01 0. -1.
        -11    1    1    2    0    0 -0.24877025774E+01  0.70255440893E+02  0.69830294956E+02  0.99087263222E+02  0.00000000000E+00 0. -1.
         11    1    1    2    0    0 -0.24466254871E+02 -0.15544769377E+02 -0.30244249587E+01  0.29144204033E+02  0.00000000000E+00 0.  1.
</event>
<event>
 7    1  0.2686828E-009  0.1078407E+03  0.7561462E-02  0.1264622E+00
          1   -1    0    0  501    0  0.00000000000E+00  0.00000000000E+00  0.31852352515E+03  0.31852352515E+03  0.00000000000E+00 0. -1.
         -1   -1    0    0    0  501 -0.00000000000E+00 -0.00000000000E+00 -0.64499009406E+02  0.64499009406E+02  0.00000000000E+00 0.  1.
         25    2    1    2    0    0  0.45349546177E+02 -0.52161723802E+02  0.22068886533E+03  0.26292175333E+03  0.12508735478E+03 0.  0.
          5    1    3    3  502    0 -0.12718082110E+02  0.15657298099E+02 -0.41096506452E+01  0.21006242519E+02  0.41800000000E+01 0.  1.
         -5    1    3    3    0  502  0.58067628288E+02 -0.67819021901E+02  0.22479851597E+03  0.24191551081E+03  0.41800000000E+01 0.  1.
        -11    1    1    2    0    0 -0.23928874018E+02  0.72387961244E+02  0.44867870532E+02  0.88463177373E+02  0.00000000000E+00 0. -1.
         11    1    1    2    0    0 -0.21420672159E+02 -0.20226237442E+02 -0.11532220116E+02  0.31637603854E+02  0.00000000000E+00 0.  1.
</event>
<event>
 7    1  0.2686828E-009  0.1224812E+03  0.7561462E-02  0.1239059E+00
         -2   -1    0    0    0  501 -0.00000000000E+00  0.00000000000E+00  0.13407629208E+03  0.13407629208E+03  0.00000000000E+00 0.  1.
          2   -1    0    0  501    0  0.00000000000E+00 -0.00000000000E+00 -0.12968640502E+03  0.12968640502E+03  0.00000000000E+00 0. -1.
         25    2    1    2    0    0 -0.18729068096E+02 -0.69501502620E+02  0.27416338411E+02  0.14690925108E+03  0.12509770415E+03 0.  0.
          5    1    3    3  502    0  0.34490313355E+02 -0.68768714880E+02  0.46758498774E+02  0.90125176666E+02  0.41800000000E+01 0.  1.
         -5    1    3    3    0  502 -0.53219381451E+02 -0.73278773984E+00 -0.19342160364E+02  0.56784074417E+02  0.41800000000E+01 0.  1.
        -11    1    1    2    0    0  0.49516073732E+02  0.67447353612E+02 -0.15539919494E+02  0.85102738880E+02  0.00000000000E+00 0.  1.
         11    1    1    2    0    0 -0.30787005636E+02  0.20541490082E+01 -0.74865318587E+01  0.31750707133E+02  0.00000000000E+00 0. -1.
</event>
<event>
 7    1  0.2686828E-009  0.1102461E+03  0.7561462E-02  0.1260115E+00
         -2   -1    0    0    0  501 -0.00000000000E+00  0.00000000000E+00  0.15784375228E+03  0.15784375228E+03  0.00000000000E+00 0.  1.
          2   -1    0    0  501    0  0.00000000000E+00 -0.00000000000E+00 -0.10355478424E+03  0.10355478424E+03  0.00000000000E+00 0. -1.
         25    2    1    2    0    0 -0.20583149032E+02 -0.65964799664E+00  0.95124141357E+02  0.15849783645E+03  0.12509540651E+03 0.  0.
          5    1    3    3  502    0 -0.61535795657E+02 -0.36831437696E+02  0.57659590406E+02  0.92115740869E+02  0.41800000000E+01 0.  1.
         -5    1    3    3    0  502  0.40952646625E+02  0.36171789700E+02  0.37464550951E+02  0.66382095580E+02  0.41800000000E+01 0.  1.
        -11    1    1    2    0    0 -0.17265744894E+01 -0.43946635906E+02 -0.13389868173E+02  0.45973649372E+02  0.00000000000E+00 0.  1.
         11    1    1    2    0    0  0.22309723522E+02  0.44606283903E+02 -0.27445305145E+02  0.56927050703E+02  0.00000000000E+00 0. -1.
</event>
<event>
 7    1  0.2686828E-009  0.2350009E+03  0.7561462E-02  0.1123169E+00
         -1   -1    0    0    0  501 -0.00000000000E+00  0.00000000000E+00  0.24129480754E+03  0.24129480754E+03  0.00000000000E+00 0.  1.
          1   -1    0    0  501    0  0.00000000000E+00 -0.00000000000E+00 -0.26951128467E+03  0.26951128467E+03  0.00000000000E+00 0. -1.
         25    2    1    2    0    0  0.57774711056E+02  0.21410812706E+03 -0.76428974188E+02  0.26583165504E+03  0.12507946840E+03 0.  0.
          5    1    3    3  502    0  0.46327451759E+02  0.55877578270E+02 -0.78663806892E+02  0.10711677485E+03  0.41800000000E+01 0.  1.
         -5    1    3    3    0  502  0.11447259298E+02  0.15823054879E+03  0.22348327041E+01  0.15871488019E+03  0.41800000000E+01 0.  1.
        -11    1    1    2    0    0  0.21736615560E+02 -0.77946955436E+02  0.29768284462E+02  0.86222729472E+02  0.00000000000E+00 0. -1.
         11    1    1    2    0    0 -0.79511326616E+02 -0.13616117163E+03  0.18444212601E+02  0.15875170770E+03  0.00000000000E+00 0.  1.
</event>
<event>
 7    1  0.2686828E-009  0.1553549E+03  0.7561462E-02  0.1194043E+00
         -1   -1    0    0    0  501 -0.00000000000E+00  0.00000000000E+00  0.58568771063E+02  0.58568771063E+02  0.00000000000E+00 0.  1.
          1   -1    0    0  501    0  0.00000000000E+00 -0.00000000000E+00 -0.49015588810E+03  0.49015588810E+03  0.00000000000E+00 0. -1.
         25    2    1    2    0    0 -0.53064597344E+02 -0.11768215819E+03 -0.22509820957E+03  0.28806963209E+03  0.12509982866E+03 0.  0.
          5    1    3    3  502    0  0.27488820608E+02  0.31525800247E+01 -0.12684459742E+02  0.30723638101E+02  0.41800000000E+01 0.  1.
         -5    1    3    3    0  502 -0.80553417951E+02 -0.12083473822E+03 -0.21241374983E+03  0.25734599399E+03  0.41800000000E+01 0.  1.
        -11    1    1    2    0    0  0.34695887850E+02  0.24515901845E+02 -0.11878516682E+02  0.44112733259E+02  0.00000000000E+00 0.  1.
         11    1    1    2    0    0  0.18368709493E+02  0.93166256348E+02 -0.19461039079E+03  0.21654229382E+03  0.00000000000E+00 0. -1.
</event>
<event>
 7    1  0.2686828E-009  0.2272085E+03  0.7561462E-02  0.1128620E+00
         -2   -1    0    0    0  501 -0.00000000000E+00  0.00000000000E+00  0.86186962435E+03  0.86186962435E+03  0.00000000000E+00 0.  1.
          2   -1    0    0  501    0  0.00000000000E+00 -0.00000000000E+00 -0.71811284474E+02  0.71811284474E+02  0.00000000000E+00 0. -1.
         25    2    1    2    0    0 -0.10668554761E+03  0.19211863396E+03  0.48388032804E+03  0.54596651219E+03  0.12509150643E+03 0.  0.
          5    1    3    3  502    0 -0.92042189297E+02  0.15073158090E+03  0.46603080831E+03  0.49839137311E+03  0.41800000000E+01 0. -1.
         -5    1    3    3    0  502 -0.14643358317E+02  0.41387053061E+02  0.17849519723E+02  0.47575139077E+02  0.41800000000E+01 0. -1.
        -11    1    1    2    0    0 -0.70073537540E+01 -0.55398879552E+02  0.10712543416E+03  0.12080561869E+03  0.00000000000E+00 0.  1.
         11    1    1    2    0    0  0.11369290137E+03 -0.13671975441E+03  0.19905257768E+03  0.26690877796E+03  0.00000000000E+00 0. -1.
</event>
<event>
 7    1  0.2686828E-009  0.1115425E+03  0.7561462E-02  0.1257740E+00
         -1   -1    0    0    0  501 -0.00000000000E+00  0.00000000000E+00  0.13762072708E+03  0.13762072708E+03  0.00000000000E+00 0.  1.
          1   -1    0    0  501    0  0.00000000000E+00 -0.00000000000E+00 -0.92338173863E+02  0.92338173863E+02  0.00000000000E+00 0. -1.
         25    2    1    2    0    0 -0.98297856805E+01  0.25479107358E+02  0.14199920500E+02  0.12881976531E+03  0.12508830718E+03 0.  0.
          5    1    3    3  502    0  0.47020650554E+01 -0.50025965192E+02 -0.51225384539E+00  0.50422627987E+02  0.41800000000E+01 0. -1.
         -5    1    3    3    0  502 -0.14531850736E+02  0.75505072550E+02  0.14712174346E+02  0.78397137323E+02  0.41800000000E+01 0. -1.
        -11    1    1    2    0    0 -0.24050877097E+02 -0.48885198972E+02  0.23184220920E+02  0.59209082642E+02  0.00000000000E+00 0.  1.
         11    1    1    2    0    0  0.33880662778E+02  0.23406091614E+02  0.78984117974E+01  0.41930052991E+02  0.00000000000E+00 0. -1.
</event>
<event>
 7    1  0.2686828E-009  0.1135615E+03  0.7561462E-02  0.1254113E+00
          2   -1    0    0  501    0  0.00000000000E+00  0.00000000000E+00  0.37518091786E+03  0.37518091786E+03  0.00000000000E+00 0. -1.
         -2   -1    0    0    0  501 -0.00000000000E+00 -0.00000000000E+00 -0.48289433237E+02  0.48289433237E+02  0.00000000000E+00 0.  1.
         25    2    1    2    0    0  0.22905026496E+02 -0.63389037227E+02  0.24198401310E+03  0.28061924910E+03  0.12509232627E+03 0.  0.
          5    1    3    3  502    0  0.65817709057E+02 -0.61168983085E+02  0.20463841326E+03  0.22353516032E+03  0.41800000000E+01 0.  1.
         -5    1    3    3    0  502 -0.42912682561E+02 -0.22200541414E+01  0.37345599840E+02  0.57084088785E+02  0.41800000000E+01 0.  1.
        -11    1    1    2    0    0 -0.46156240397E+02  0.42543727068E+02  0.12510982722E+02  0.64006967817E+02  0.00000000000E+00 0.  1.
         11    1    1    2    0    0  0.23251213901E+02  0.20845310158E+02  0.72396488805E+02  0.78844134181E+02  0.00000000000E+00 0. -1.
</event>
<event>
 7    1  0.2686828E-009  0.1025903E+03  0.7561462E-02  0.1274941E+00
         -2   -1    0    0    0  501 -0.00000000000E+00  0.00000000000E+00  0.14105743792E+03  0.14105743792E+03  0.00000000000E+00 0.  1.
          2   -1    0    0  501    0  0.00000000000E+00 -0.00000000000E+00 -0.99342963049E+02  0.99342963049E+02  0.00000000000E+00 0. -1.
         25    2    1    2    0    0 -0.21847967272E+02  0.41094946482E+02  0.19309064663E+02  0.13485641785E+03  0.12508910887E+03 0.  0.
          5    1    3    3  502    0 -0.57605153054E+02  0.30042542829E+02  0.53290389784E+02  0.84132312944E+02  0.41800000000E+01 0.  1.
         -5    1    3    3    0  502  0.35757185782E+02  0.11052403652E+02 -0.33981325120E+02  0.50724104905E+02  0.41800000000E+01 0.  1.
        -11    1    1    2    0    0  0.40752424770E+02 -0.62025082504E+02  0.10595877978E+02  0.74967617105E+02  0.00000000000E+00 0.  1.
         11    1    1    2    0    0 -0.18904457498E+02  0.20930136023E+02  0.11809532229E+02  0.30576366015E+02  0.00000000000E+00 0. -1.
</event>
<event>
 7    1  0.2686828E-009  0.1509787E+03  0.7561462E-02  0.1199275E+00
          1   -1    0    0  501    0  0.00000000000E+00  0.00000000000E+00  0.19768795904E+03  0.19768795904E+03  0.00000000000E+00 0. -1.
         -1   -1    0    0    0  501 -0.00000000000E+00 -0.00000000000E+00 -0.14032509228E+03  0.14032509228E+03  0.00000000000E+00 0.  1.
         25    2    1    2    0    0  0.11801669695E+03  0.39901675114E+02  0.31233822064E+02  0.17928498220E+03  0.12508984278E+03 0.  0.
          5    1    3    3  502    0  0.54052995100E+02 -0.44660469937E+02  0.83606264138E+01  0.70736527539E+02  0.41800000000E+01 0.  1.
         -5    1    3    3    0  502  0.63963701848E+02  0.84562145050E+02  0.22873195651E+02  0.10854845466E+03  0.41800000000E+01 0.  1.
        -11    1    1    2    0    0 -0.11300775733E+02  0.94338380126E+00 -0.29526369311E+02  0.31629163597E+02  0.00000000000E+00 0.  1.
         11    1    1    2    0    0 -0.10671592122E+03 -0.40845058915E+02  0.55655414001E+02  0.12709890553E+03  0.00000000000E+00 0. -1.
</event>
<event>
 7    1  0.2686828E-009  0.1321945E+03  0.7561462E-02  0.1224235E+00
          1   -1    0    0  501    0  0.00000000000E+00  0.00000000000E+00  0.20162875337E+03  0.20162875337E+03  0.00000000000E+00 0. -1.
         -1   -1    0    0    0  501 -0.00000000000E+00 -0.00000000000E+00 -0.12046714259E+03  0.12046714259E+03  0.00000000000E+00 0.  1.
         25    2    1    2    0    0 -0.71652679841E+02 -0.44530501304E+02 -0.31021693467E+02  0.15403519156E+03  0.12508965864E+03 0.  0.
          5    1    3    3  502    0 -0.10105535121E+03 -0.26674961506E+02  0.41207224350E+01  0.10468137529E+03  0.41800000000E+01 0. -1.
         -5    1    3    3    0  502  0.29402671366E+02 -0.17855539797E+02 -0.35142415902E+02  0.49353816269E+02  0.41800000000E+01 0. -1.
        -11    1    1    2    0    0  0.60540631697E+02  0.72845462666E+02  0.85219419643E+02  0.12741263282E+03  0.00000000000E+00 0. -1.
         11    1    1    2    0    0  0.11112048144E+02 -0.28314961362E+02  0.26963884601E+02  0.40648071586E+02  0.00000000000E+00 0.  1.
</event>
<event>
 7    1  0.2686828E-009  0.1626642E+03  0.7561462E-02  0.1185721E+00
          1   -1    0    0  501    0  0.00000000000E+00  0.00000000000E+00  0.86369827721E+03  0.86369827721E+03  0.00000000000E+00 0. -1.
         -1   -1    0    0    0  501 -0.00000000000E+00 -0.00000000000E+00 -0.43877186975E+02  0.43877186975E+02  0.00000000000E+00 0.  1.
         25    2    1    2    0    0 -0.12274327462E+03  0.27201120827E+02  0.66267105062E+03  0.68599313629E+03  0.12509136365E+03 0.  0.
          5    1    3    3  502    0 -0.14552557446E+03  0.26365198398E+02  0.49228117157E+03  0.51403408524E+03  0.41800000000E+01 0.  1.
         -5    1    3    3    0  502  0.22782299838E+02  0.83592242885E+00  0.17038987906E+03  0.17195905105E+03  0.41800000000E+01 0.  1.
        -11    1    1    2    0    0 -0.58022858972E+01 -0.24966763189E+02  0.40814470006E+02  0.48195712959E+02  0.00000000000E+00 0.  1.
         11    1    1    2    0    0  0.12854556052E+03 -0.22343576381E+01  0.11633556960E+03  0.17338661494E+03  0.00000000000E+00 0. -1.
</event>
<event>
 7    1  0.2686828E-009  0.1022099E+03  0.7561462E-02  0.1275716E+00
          2   -1    0    0  501    0  0.00000000000E+00  0.00000000000E+00  0.58064948315E+03  0.58064948315E+03  0.00000000000E+00 0. -1.
         -2   -1    0    0    0  501 -0.00000000000E+00 -0.00000000000E+00 -0.24386886613E+02  0.24386886613E+02  0.00000000000E+00 0.  1.
         25    2    1    2    0    0 -0.33000756654E+02  0.32734409437E+02  0.35402368136E+03  0.37833942111E+03  0.12508940443E+03 0.  0.
          5    1    3    3  502    0 -0.24744036084E+02 -0.45650909478E+02  0.17721318801E+03  0.18471128624E+03  0.41800000000E+01 0.  1.
         -5    1    3    3    0  502 -0.82567205700E+01  0.78385318916E+02  0.17681049335E+03  0.19362813488E+03  0.41800000000E+01 0.  1.
        -11    1    1    2    0    0  0.38489925870E+02  0.16997436723E+01  0.18271777977E+03  0.18673550965E+03  0.00000000000E+00 0. -1.
         11    1    1    2    0    0 -0.54891692166E+01 -0.34434153110E+02  0.19521135400E+02  0.39961438993E+02  0.00000000000E+00 0.  1.
</event>
<event>
 7    1  0.2686828E-009  0.7296940E+02  0.7561462E-02  0.1350277E+00
         -2   -1    0    0    0  501 -0.00000000000E+00  0.00000000000E+00  0.62000066711E+02  0.62000066711E+02  0.00000000000E+00 0.  1.
          2   -1    0    0  501    0  0.00000000000E+00 -0.00000000000E+00 -0.33408064387E+03  0.33408064387E+03  0.00000000000E+00 0. -1.
         25    2    1    2    0    0  0.45586869302E+01 -0.10136709604E+02 -0.27596563571E+03  0.30319538040E+03  0.12508745778E+03 0.  0.
          5    1    3    3  502    0  0.52084416407E+02 -0.88559005920E+01 -0.52167585445E+02  0.74364929765E+02  0.41800000000E+01 0.  1.
         -5    1    3    3    0  502 -0.47525729477E+02 -0.12808090118E+01 -0.22379805027E+03  0.22883045064E+03  0.41800000000E+01 0.  1.
        -11    1    1    2    0    0 -0.24295911546E+02  0.64402879926E+01 -0.38503305478E+02  0.45981226169E+02  0.00000000000E+00 0. -1.
         11    1    1    2    0    0  0.19737224616E+02  0.36964216112E+01  0.42388364029E+02  0.46904104014E+02  0.00000000000E+00 0.  1.
</event>
<event>
 7    1  0.2686828E-009  0.1568522E+03  0.7561462E-02  0.1192297E+00
          2   -1    0    0  501    0  0.00000000000E+00  0.00000000000E+00  0.90547057136E+02  0.90547057136E+02  0.00000000000E+00 0. -1.
         -2   -1    0    0    0  501 -0.00000000000E+00 -0.00000000000E+00 -0.32502064484E+03  0.32502064484E+03  0.00000000000E+00 0.  1.
         25    2    1    2    0    0  0.11587433279E+03 -0.63033602186E+02 -0.11038516415E+03  0.21267969873E+03  0.12509066226E+03 0.  0.
          5    1    3    3  502    0  0.49338264165E+02 -0.93345081678E+02 -0.83468593227E+02  0.13465528968E+03  0.41800000000E+01 0. -1.
         -5    1    3    3    0  502  0.66536068624E+02  0.30311479492E+02 -0.26916570923E+02  0.78024409048E+02  0.41800000000E+01 0. -1.
        -11    1    1    2    0    0 -0.50413057198E+02  0.43240318874E+02 -0.63380423638E+01  0.66718605302E+02  0.00000000000E+00 0. -1.
         11    1    1    2    0    0 -0.65461275591E+02  0.19793283312E+02 -0.11775038119E+03  0.13616939794E+03  0.00000000000E+00 0.  1.
</event>
<event>
 7    1  0.2686828E-009  0.1507838E+03  0.7561462E-02  0.1199513E+00
         -3   -1    0    0    0  501 -0.00000000000E+00  0.00000000000E+00  0.41173155730E+03  0.41173155730E+03  0.00000000000E+00 0.  1.
          3   -1    0    0  501    0  0.00000000000E+00 -0.00000000000E+00 -0.71110597427E+02  0.71110597427E+02  0.00000000000E+00 0. -1.
         25    2    1    2    0    0  0.31209058995E+02 -0.12474975951E+03  0.22431080304E+03  0.28722682728E+03  0.12508959225E+03 0.  0.
          5    1    3    3  502    0 -0.24564679350E+02  0.53365894813E+01  0.46838720781E+01  0.25909722432E+02  0.41800000000E+01 0.  1.
         -5    1    3    3    0  502  0.55773738345E+02 -0.13008634899E+03  0.21962693096E+03  0.26131710485E+03  0.41800000000E+01 0.  1.
        -11    1    1    2    0    0 -0.17382517541E+02  0.12558917305E+02 -0.12032328839E+02  0.24589738860E+02  0.00000000000E+00 0. -1.
         11    1    1    2    0    0 -0.13826541454E+02  0.11219084220E+03  0.12834248567E+03  0.17102558859E+03  0.00000000000E+00 0.  1.
</event>
<event>
 7    1  0.2686828E-009  0.1011386E+03  0.7561462E-02  0.1277920E+00
         -2   -1    0    0    0  501 -0.00000000000E+00  0.00000000000E+00  0.22902006087E+03  0.22902006087E+03  0.00000000000E+00 0.  1.
          2   -1    0    0  501    0  0.00000000000E+00 -0.00000000000E+00 -0.51268344391E+02  0.51268344391E+02  0.00000000000E+00 0. -1.
         25    2    1    2    0    0 -0.14718150365E+02  0.14907908149E+02  0.11407283633E+03  0.17058427710E+03  0.12509002330E+03 0.  0.
          5    1    3    3  502    0 -0.59681470549E+02 -0.11508130155E+02  0.22167695883E+02  0.64832045528E+02  0.41800000000E+01 0. -1.
         -5    1    3    3    0  502  0.44963320184E+02  0.26416038304E+02  0.91905140447E+02  0.10575223157E+03  0.41800000000E+01 0. -1.
        -11    1    1    2    0    0  0.13775565771E+02 -0.51053224572E+02  0.42148640099E+02  0.67621785053E+02  0.00000000000E+00 0. -1.
         11    1    1    2    0    0  0.94258459364E+00  0.36145316423E+02  0.21530240053E+02  0.42082343112E+02  0.00000000000E+00 0.  1.
</event>
<event>
 7    1  0.2686828E-009  0.1225350E+03  0.7561462E-02  0.1238973E+00
          2   -1    0    0  501    0  0.00000000000E+00  0.00000000000E+00  0.26895521091E+03  0.26895521091E+03  0.00000000000E+00 0. -1.
         -2   -1    0    0    0  501 -0.00000000000E+00 -0.00000000000E+00 -0.61423159317E+02  0.61423159317E+02  0.00000000000E+00 0.  1.
         25    2    1    2    0    0 -0.47609430925E+02 -0.49465586547E+02  0.10360058190E+03  0.17633554473E+03  0.12509053361E+03 0.  0.
          5    1    3    3  502    0 -0.36073972806E+02  0.33323143774E+02  0.91320735920E+01  0.50126146801E+02  0.41800000000E+01 0. -1.
         -5    1    3    3    0  502 -0.11535458120E+02 -0.82788730321E+02  0.94468508313E+02  0.12620939793E+03  0.41800000000E+01 0. -1.
        -11    1    1    2    0    0 -0.64586154339E-01  0.62631203998E+02  0.70726447774E+02  0.94471701056E+02  0.00000000000E+00 0. -1.
         11    1    1    2    0    0  0.47674017079E+02 -0.13165617451E+02  0.33205021917E+02  0.59571124447E+02  0.00000000000E+00 0.  1.
</event>
<event>
 7    1  0.2686828E-009  0.1186586E+03  0.7561462E-02  0.1245326E+00
          1   -1    0    0  501    0  0.00000000000E+00  0.00000000000E+00  0.15369372002E+03  0.15369372002E+03  0.00000000000E+00 0. -1.
         -1   -1    0    0    0  501 -0.00000000000E+00 -0.00000000000E+00 -0.15012684328E+03  0.15012684328E+03  0.00000000000E+00 0.  1.
         25    2    1    2    0    0 -0.97893083240E+02  0.16439345227E+02  0.39476723082E+02  0.16449597536E+03  0.12508879417E+03 0.  0.
          5    1    3    3  502    0 -0.70752771233E+02  0.23542611139E+02 -0.36697051110E+02  0.83212710187E+02  0.41800000000E+01 0.  1.
         -5    1    3    3    0  502 -0.27140312006E+02 -0.71032659117E+01  0.76173774192E+02  0.81283265172E+02  0.41800000000E+01 0.  1.
        -11    1    1    2    0    0  0.74052116038E+02 -0.52687978991E+02 -0.28958080827E+02  0.95385058920E+02  0.00000000000E+00 0.  1.
         11    1    1    2    0    0  0.23840967201E+02  0.36248633764E+02 -0.69517655219E+01  0.43939529022E+02  0.00000000000E+00 0. -1.
</event>
<event>
 7    1  0.2686828E-009  0.2566993E+03  0.7561462E-02  0.1109143E+00
         -2   -1    0    0    0  501 -0.00000000000E+00  0.00000000000E+00  0.74266588077E+02  0.74266588077E+02  0.00000000000E+00 0.  1.
          2   -1    0    0  501    0  0.00000000000E+00 -0.00000000000E+00 -0.99661223105E+03  0.99661223105E+03  0.00000000000E+00 0. -1.
         25    2    1    2    0    0 -0.22597022033E+03  0.10372506146E+03 -0.44609973226E+03  0.52580855466E+03  0.12509291022E+03 0.  0.
          5    1    3    3  502    0 -0.14565607364E+03  0.66654169882E+02 -0.38829062227E+03  0.42005422256E+03  0.41800000000E+01 0. -1.
         -5    1    3    3    0  502 -0.80314146686E+02  0.37070891579E+02 -0.57809109989E+02  0.10575433210E+03  0.41800000000E+01 0. -1.
        -11    1    1    2    0    0  0.53045964592E+02 -0.70974923522E+02 -0.14368780050E+03  0.16881202013E+03  0.00000000000E+00 0.  1.
         11    1    1    2    0    0  0.17292425574E+03 -0.32750137939E+02 -0.33255811021E+03  0.37625824433E+03  0.00000000000E+00 0. -1.
</event>
<event>
 7    1  0.2686828E-009  0.9379884E+02  0.7561462E-02  0.1293905E+00
          1   -1    0    0  501    0  0.00000000000E+00  0.00000000000E+00  0.33597552464E+03  0.33597552464E+03  0.00000000000E+00 0. -1.
         -1   -1    0    0    0  501 -0.00000000000E+00 -0.00000000000E+00 -0.54907090496E+02  0.54907090496E+02  0.00000000000E+00 0.  1.
         25    2    1    2    0    0 -0.59688490798E+02 -0.42395739903E+02  0.10093141094E+03  0.17662024056E+03  0.12508974764E+03 0.  0.
          5    1    3    3  502    0 -0.98623812308E+01 -0.59904055784E+02 -0.19654935975E+01  0.60885942778E+02  0.41800000000E+01 0.  1.
         -5    1    3    3    0  502 -0.49826109567E+02  0.17508315881E+02  0.10289690454E+03  0.11573429778E+03  0.41800000000E+01 0.  1.
        -11    1    1    2    0    0  0.29167878880E+02  0.26234172217E+02  0.97674739566E+01  0.40427719423E+02  0.00000000000E+00 0.  1.
         11    1    1    2    0    0  0.30520611918E+02  0.16161567686E+02  0.17036954925E+03  0.17383465515E+03  0.00000000000E+00 0. -1.
</event>
<event>
 7    1  0.2686828E-009  0.1016583E+03  0.7561462E-02  0.1276847E+00
         -2   -1    0    0    0  501 -0.00000000000E+00  0.00000000000E+00  0.26350953981E+03  0.26350953981E+03  0.00000000000E+00 0.  1.
          2   -1    0    0  501    0  0.00000000000E+00 -0.00000000000E+00 -0.71047233596E+02  0.71047233596E+02  0.00000000000E+00 0. -1.
         25    2    1    2    0    0  0.15131045521E+01  0.63135945323E+02  0.17416922838E+03  0.22354383148E+03  0.12509391431E+03 0.  0.
          5    1    3    3  502    0 -0.31344778000E+02  0.13953925897E+02  0.15848303004E+03  0.16220835480E+03  0.41800000000E+01 0. -1.
         -5    1    3    3    0  502  0.32857882552E+02  0.49182019426E+02  0.15686198342E+02  0.61335476676E+02  0.41800000000E+01 0. -1.
        -11    1    1    2    0    0 -0.42572560622E+02 -0.51423852941E+02  0.12593977076E+02  0.67937057839E+02  0.00000000000E+00 0. -1.
         11    1    1    2    0    0  0.41059456070E+02 -0.11712092382E+02  0.56991007546E+01  0.43075884090E+02  0.00000000000E+00 0.  1.
</event>
<event>
 7    1  0.2686828E-009  0.1911738E+03  0.7561462E-02  0.1157407E+00
          2   -1    0    0  501    0  0.00000000000E+00  0.00000000000E+00  0.20995805081E+03  0.20995805081E+03  0.00000000000E+00 0. -1.
         -2   -1    0    0    0  501 -0.00000000000E+00 -0.00000000000E+00 -0.28755827389E+03  0.28755827389E+03  0.00000000000E+00 0.  1.
         25    2    1    2    0    0 -0.11879150605E+03  0.12755058983E+03 -0.17601173474E+03  0.27750330370E+03  0.12508947965E+03 0.  0.
          5    1    3    3  502    0 -0.30228652829E+02 -0.16621804248E+02 -0.20786377788E+01  0.34811621096E+02  0.41800000000E+01 0.  1.
         -5    1    3    3    0  502 -0.88562853225E+02  0.14417239408E+03 -0.17393309696E+03  0.24269168260E+03  0.41800000000E+01 0.  1.
        -11    1    1    2    0    0  0.10664262652E+03 -0.92227527695E+02  0.33179208089E+02  0.14484276477E+03  0.00000000000E+00 0.  1.
         11    1    1    2    0    0  0.12148879534E+02 -0.35323062135E+02  0.65232303569E+02  0.75170256228E+02  0.00000000000E+00 0. -1.
</event>
<event>
 7    1  0.2686828E-009  0.1499282E+03  0.7561462E-02  0.1200561E+00
         -1   -1    0    0    0  501 -0.00000000000E+00  0.00000000000E+00  0.11801447407E+04  0.11801447407E+04  0.00000000000E+00 0.  1.
          1   -1    0    0  501    0  0.00000000000E+00 -0.00000000000E+00 -0.26165829920E+02  0.26165829920E+02  0.00000000000E+00 0. -1.
         25    2    1    2    0    0  0.12920964290E+03  0.34647216699E+02  0.68766155008E+03  0.71163340734E+03  0.12509251587E+03 0.  0.
          5    1    3    3  502    0  0.63421904383E+02 -0.13489918134E+01  0.55938396471E+03  0.56298494661E+03  0.41800000000E+01 0.  1.
         -5    1    3    3    0  502  0.65787738519E+02  0.35996208512E+02  0.12827758538E+03  0.14864846073E+03  0.41800000000E+01 0.  1.
        -11    1    1    2    0    0  0.11771996271E+02  0.75839338534E+01  0.17901601833E+02  0.22728028887E+02  0.00000000000E+00 0. -1.
         11    1    1    2    0    0 -0.14098163917E+03 -0.42231150552E+02  0.44841575884E+03  0.47194913437E+03  0.00000000000E+00 0.  1.
</event>
<event>
 7    1  0.2686828E-009  0.1230047E+03  0.7561462E-02  0.1238221E+00
          2   -1    0    0  501    0  0.00000000000E+00  0.00000000000E+00  0.63026543614E+02  0.63026543614E+02  0.00000000000E+00 0. -1.
         -2   -1    0    0    0  501 -0.00000000000E+00 -0.00000000000E+00 -0.36009052608E+03  0.36009052608E+03  0.00000000000E+00 0.  1.
         25    2    1    2    0    0  0.46350205879E+02 -0.87577968811E+02 -0.14058563994E+03  0.21267362850E+03  0.12508999918E+03 0.  0.
          5    1    3    3  502    0  0.61188236114E+02 -0.14494277219E+02 -0.12272184472E+02  0.64204074812E+02  0.41800000000E+01 0.  1.
         -5    1    3    3    0  502 -0.14838030234E+02 -0.73083691592E+02 -0.12831345547E+03  0.14846955369E+03  0.41800000000E+01 0.  1.
        -11    1    1    2    0    0 -0.53329887112E+02  0.61983286574E+02 -0.16366825677E+03  0.18295710685E+03  0.00000000000E+00 0.  1.
         11    1    1    2    0    0  0.69796812324E+01  0.25594682237E+02  0.71899142420E+01  0.27486334345E+02  0.00000000000E+00 0. -1.
</event>
<event>
 7    1  0.2686828E-009  0.7891701E+02  0.7561462E-02  0.1332153E+00
          1   -1    0    0  501    0  0.00000000000E+00  0.00000000000E+00  0.33903534196E+03  0.33903534196E+03  0.00000000000E+00 0. -1.
         -1   -1    0    0    0  501 -0.00000000000E+00 -0.00000000000E+00 -0.33960199351E+02  0.33960199351E+02  0.00000000000E+00 0.  1.
         25    2    1    2    0    0 -0.37549782723E+01  0.23558189552E+01  0.16995941223E+03  0.21107739984E+03  0.12509123540E+03 0.  0.
          5    1    3    3  502    0 -0.24328141805E+02 -0.48856074772E+02  0.13484218880E+03  0.14552890712E+03  0.41800000000E+01 0.  1.
         -5    1    3    3    0  502  0.20573163533E+02  0.51211893727E+02  0.35117223425E+02  0.65548492720E+02  0.41800000000E+01 0.  1.
        -11    1    1    2    0    0  0.16488830706E+02 -0.20043059048E+02  0.13756023297E+03  0.13998722602E+03  0.00000000000E+00 0. -1.
         11    1    1    2    0    0 -0.12733852434E+02  0.17687240093E+02 -0.24445025841E+01  0.21930915458E+02  0.00000000000E+00 0.  1.
</event>
<event>
 7    1  0.2686828E-009  0.1207785E+03  0.7561462E-02  0.1241818E+00
         -2   -1    0    0    0  501 -0.00000000000E+00  0.00000000000E+00  0.17759166908E+03  0.17759166908E+03  0.00000000000E+00 0.  1.
          2   -1    0    0  501    0  0.00000000000E+00 -0.00000000000E+00 -0.12048259822E+03  0.12048259822E+03  0.00000000000E+00 0. -1.
         25    2    1    2    0    0 -0.41486581040E+02 -0.83481481554E+02  0.48347214074E+02  0.16333471811E+03  0.12510188993E+03 0.  0.
          5    1    3    3  502    0  0.18921099508E+02 -0.11322009582E+02 -0.32298088473E+02  0.39329821085E+02  0.41800000000E+01 0.  1.
         -5    1    3    3    0  502 -0.60407680548E+02 -0.72159471971E+02  0.80645302547E+02  0.12400489703E+03  0.41800000000E+01 0.  1.
        -11    1    1    2    0    0  0.59268800780E+02  0.88431912380E+02  0.25888852539E+02  0.10955923767E+03  0.00000000000E+00 0.  1.
         11    1    1    2    0    0 -0.17782219740E+02 -0.49504308266E+01 -0.17126995754E+02  0.25180311511E+02  0.00000000000E+00 0. -1.
</event>
<event>
 7    1  0.2686828E-009  0.8110647E+02  0.7561462E-02  0.1325940E+00
          2   -1    0    0  501    0  0.00000000000E+00  0.00000000000E+00  0.38634306474E+02  0.38634306474E+02  0.00000000000E+00 0. -1.
         -2   -1    0    0    0  501 -0.00000000000E+00 -0.00000000000E+00 -0.58744816507E+03  0.58744816507E+03  0.00000000000E+00 0.  1.
         25    2    1    2    0    0  0.25332265834E+02  0.32950570048E+02 -0.49411652582E+03  0.51139737432E+03  0.12509464260E+03 0.  0.
          5    1    3    3  502    0 -0.18183640484E+02  0.39864389326E+02 -0.43664875584E+03  0.43886150742E+03  0.41800000000E+01 0. -1.
         -5    1    3    3    0  502  0.43515906318E+02 -0.69138192779E+01 -0.57467769979E+02  0.72535866894E+02  0.41800000000E+01 0. -1.
        -11    1    1    2    0    0 -0.39111207153E+02 -0.97794903870E+00 -0.67144851416E+02  0.77711479081E+02  0.00000000000E+00 0.  1.
         11    1    1    2    0    0  0.13778941319E+02 -0.31972621009E+02  0.12447518647E+02  0.36973618142E+02  0.00000000000E+00 0. -1.
</event>
<event>
 7    1  0.2686828E-009  0.1276913E+03  0.7561462E-02  0.1230922E+00
          1   -1    0    0  501    0  0.00000000000E+00  0.00000000000E+00  0.47067608260E+03  0.47067608260E+03  0.00000000000E+00 0. -1.
         -1   -1    0    0    0  501 -0.00000000000E+00 -0.00000000000E+00 -0.59661355015E+02  0.59661355015E+02  0.00000000000E+00 0.  1.
         25    2    1    2    0    0 -0.94265009738E+02  0.54786693185E+02  0.12088549534E+03  0.20529374354E+03  0.12507895242E+03 0.  0.
          5    1    3    3  502    0 -0.97155654830E+02  0.56563396209E+02  0.14333283816E+03  0.18220980751E+03  0.41800000000E+01 0.  1.
         -5    1    3    3    0  502  0.28906450918E+01 -0.17767030246E+01 -0.22447342822E+02  0.23083936026E+02  0.41800000000E+01 0.  1.
        -11    1    1    2    0    0  0.52907106247E+02 -0.74747151135E+02  0.13401687507E+03  0.16231703945E+03  0.00000000000E+00 0. -1.
         11    1    1    2    0    0  0.41357903491E+02  0.19960457950E+02  0.15611235717E+03  0.16272665462E+03  0.00000000000E+00 0.  1.
</event>
<event>
 7    1  0.2686828E-009  0.1577217E+03  0.7561462E-02  0.1191293E+00
         -2   -1    0    0    0  501 -0.00000000000E+00  0.00000000000E+00  0.15777162312E+03  0.15777162312E+03  0.00000000000E+00 0.  1.
          2   -1    0    0  501    0  0.00000000000E+00 -0.00000000000E+00 -0.21341935158E+03  0.21341935158E+03  0.00000000000E+00 0. -1.
         25    2    1    2    0    0  0.12357764372E+01 -0.12504813690E+03  0.49845370567E+02  0.18376886367E+03  0.12509144895E+03 0.  0.
          5    1    3    3  502    0 -0.26573137915E+02 -0.13176358155E+03  0.10428161477E+02  0.13488510679E+03  0.41800000000E+01 0.  1.
         -5    1    3    3    0  502  0.27808914352E+02  0.67154446448E+01  0.39417209090E+02  0.48883756880E+02  0.41800000000E+01 0.  1.
        -11    1    1    2    0    0 -0.43084166702E+02  0.48998403908E+02 -0.63303386693E+02  0.90908788204E+02  0.00000000000E+00 0. -1.
         11    1    1    2    0    0  0.41848390265E+02  0.76049732997E+02 -0.42189712339E+02  0.96513322831E+02  0.00000000000E+00 0.  1.
</event>
<event>
 7    1  0.3276764E-009  0.9298479E+02  0.7561462E-02  0.1295780E+00
         -2   -1    0    0    0  501 -0.00000000000E+00  0.00000000000E+00  0.62215337632E+02  0.62215337632E+02  0.00000000000E+00 0.  1.
          2   -1    0    0  501    0  0.00000000000E+00 -0.00000000000E+00 -0.20868449758E+03  0.20868449758E+03  0.00000000000E+00 0. -1.
         25    2    1    2    0    0 -0.87326950372E+01  0.97227591782E+01 -0.44182286052E+02  0.13330622775E+03  0.12509070288E+03 0.  0.
          5    1    3    3  502    0 -0.26201144293E+02  0.51272936178E+02  0.14179846595E+02  0.59447072224E+02  0.41800000000E+01 0.  1.
         -5    1    3    3    0  502  0.17468449256E+02 -0.41550177000E+02 -0.58362132647E+02  0.73859155527E+02  0.41800000000E+01 0.  1.
        -11    1    1    2    0    0  0.44668150870E+02 -0.13933377738E+02 -0.26895825150E+02  0.53970066962E+02  0.00000000000E+00 0.  1.
         11    1    1    2    0    0 -0.35935455833E+02  0.42106185596E+01 -0.75391048744E+02  0.83623540497E+02  0.00000000000E+00 0. -1.
</event>
<event>
 7    1  0.2686828E-009  0.1300257E+03  0.7561462E-02  0.1227418E+00
         -1   -1    0    0    0  501 -0.00000000000E+00  0.00000000000E+00  0.60624893941E+02  0.60624893941E+02  0.00000000000E+00 0.  1.
          1   -1    0    0  501    0  0.00000000000E+00 -0.00000000000E+00 -0.37860219445E+03  0.37860219445E+03  0.00000000000E+00 0. -1.
         25    2    1    2    0    0  0.86792014179E+01  0.10453047793E+03 -0.17508529132E+03  0.23938404315E+03  0.12509161253E+03 0.  0.
          5    1    3    3  502    0  0.18784473849E+02  0.12043189496E+03 -0.18182736177E+03  0.21894145261E+03  0.41800000000E+01 0.  1.
         -5    1    3    3    0  502 -0.10105272431E+02 -0.15901417029E+02  0.67420704445E+01  0.20442590548E+02  0.41800000000E+01 0.  1.
        -11    1    1    2    0    0 -0.32008439831E+02 -0.71673951299E+02 -0.37467941531E+02  0.86980125074E+02  0.00000000000E+00 0.  1.
         11    1    1    2    0    0  0.23329238413E+02 -0.32856526633E+02 -0.10542406766E+03  0.11286292017E+03  0.00000000000E+00 0. -1.
</event>
<event>
 7    1  0.2686828E-009  0.1292000E+03  0.7561462E-02  0.1228648E+00
          1   -1    0    0  501    0  0.00000000000E+00  0.00000000000E+00  0.20091487882E+03  0.20091487882E+03  0.00000000000E+00 0. -1.
         -1   -1    0    0    0  501 -0.00000000000E+00 -0.00000000000E+00 -0.11887267438E+03  0.11887267438E+03  0.00000000000E+00 0.  1.
         25    2    1    2    0    0  0.10544186452E+03 -0.19307661584E+02  0.27997351667E+02  0.16709534079E+03  0.12508488567E+03 0.  0.
          5    1    3    3  502    0 -0.15760294271E+02  0.15187900213E+02  0.34244279158E+02  0.40855871590E+02  0.41800000000E+01 0.  1.
         -5    1    3    3    0  502  0.12120215879E+03 -0.34495561797E+02 -0.62469274910E+01  0.12623946920E+03  0.41800000000E+01 0.  1.
        -11    1    1    2    0    0 -0.73032661884E+02  0.24865997764E+02  0.79746056789E+02  0.11095729413E+03  0.00000000000E+00 0. -1.
         11    1    1    2    0    0 -0.32409202639E+02 -0.55583361800E+01 -0.25701204017E+02  0.41734918290E+02  0.00000000000E+00 0.  1.
</event>
<event>
 7    1  0.2686828E-009  0.8232073E+02  0.7561462E-02  0.1322592E+00
          2   -1    0    0  501    0  0.00000000000E+00  0.00000000000E+00  0.23835641515E+03  0.23835641515E+03  0.00000000000E+00 0. -1.
         -2   -1    0    0    0  501 -0.00000000000E+00 -0.00000000000E+00 -0.72819443007E+02  0.72819443007E+02  0.00000000000E+00 0.  1.
         25    2    1    2    0    0 -0.71088784803E+02  0.22780303574E+02  0.10613876764E+03  0.18023499019E+03  0.12508659455E+03 0.  0.
          5    1    3    3  502    0 -0.36924799006E+02  0.42075361597E+01  0.12942334547E+03  0.13471829458E+03  0.41800000000E+01 0. -1.
         -5    1    3    3    0  502 -0.34163985797E+02  0.18572767414E+02 -0.23284577825E+02  0.45516695612E+02  0.41800000000E+01 0. -1.
        -11    1    1    2    0    0  0.39085317222E+01 -0.20547517422E+02  0.60188191795E+02  0.63718878866E+02  0.00000000000E+00 0. -1.
         11    1    1    2    0    0  0.67180253080E+02 -0.22327861513E+01 -0.78998729955E+00  0.67221989095E+02  0.00000000000E+00 0.  1.
</event>
<event>
 7    1  0.2686828E-009  0.1410089E+03  0.7561462E-02  0.1211978E+00
         -1   -1    0    0    0  501 -0.00000000000E+00  0.00000000000E+00  0.27064659549E+02  0.27064659549E+02  0.00000000000E+00 0.  1.
          1   -1    0    0  501    0  0.00000000000E+00 -0.00000000000E+00 -0.89297662259E+03  0.89297662259E+03  0.00000000000E+00 0. -1.
         25    2    1    2    0    0  0.61620853446E+02  0.87394787227E+02 -0.55294828152E+03  0.57691629089E+03  0.12508247773E+03 0.  0.
          5    1    3    3  502    0  0.89828590902E+02  0.31008031644E+02 -0.40535133428E+03  0.41636264287E+03  0.41800000000E+01 0.  1.
         -5    1    3    3    0  502 -0.28207737456E+02  0.56386755583E+02 -0.14759694724E+03  0.16055364802E+03  0.41800000000E+01 0.  1.
        -11    1    1    2    0    0 -0.68787502054E+02 -0.48516870482E+02 -0.12270350799E+03  0.14880106865E+03  0.00000000000E+00 0.  1.
         11    1    1    2    0    0  0.71666486078E+01 -0.38877916745E+02 -0.19026017353E+03  0.19432392260E+03  0.00000000000E+00 0. -1.
</event>
<event>
 7    1  0.2686828E-009  0.1192723E+03  0.7561462E-02  0.1244302E+00
          1   -1    0    0  501    0  0.00000000000E+00  0.00000000000E+00  0.58939456366E+03  0.58939456366E+03  0.00000000000E+00 0. -1.
         -1   -1    0    0    0  501 -0.00000000000E+00 -0.00000000000E+00 -0.25314737757E+02  0.25314737757E+02  0.00000000000E+00 0.  1.
         25    2    1    2    0    0 -0.47565047074E+02 -0.21165580092E+02  0.25424258811E+03  0.28809371081E+03  0.12509307383E+03 0.  0.
          5    1    3    3  502    0 -0.53156219340E+02 -0.68840245317E+02  0.15540025937E+03  0.17813274837E+03  0.41800000000E+01 0.  1.
         -5    1    3    3    0  502  0.55911722662E+01  0.47674665225E+02  0.98842328733E+02  0.10996096244E+03  0.41800000000E+01 0.  1.
        -11    1    1    2    0    0 -0.11561202062E+01 -0.31511504957E+02  0.99367454374E+02  0.10425067169E+03  0.00000000000E+00 0.  1.
         11    1    1    2    0    0  0.48721167280E+02  0.52677085049E+02  0.21046978343E+03  0.22236491892E+03  0.00000000000E+00 0. -1.
</event>
<event>
 7    1  0.2686828E-009  0.1453344E+03  0.7561462E-02  0.1206326E+00
          1   -1    0    0  501    0  0.00000000000E+00  0.00000000000E+00  0.79211004322E+03  0.79211004322E+03  0.00000000000E+00 0. -1.
         -1   -1    0    0    0  501 -0.00000000000E+00 -0.00000000000E+00 -0.48794508888E+02  0.48794508888E+02  0.00000000000E+00 0.  1.
         25    2    1    2    0    0 -0.81299019369E+02 -0.58105292100E+02  0.11210998507E+03  0.19545246472E+03  0.12508901508E+03 0.  0.
          5    1    3    3  502    0  0.20486201807E+02 -0.50933340866E+02  0.22112439946E+02  0.59332302135E+02  0.41800000000E+01 0. -1.
         -5    1    3    3    0  502 -0.10178522118E+03 -0.71719512340E+01  0.89997545127E+02  0.13612016259E+03  0.41800000000E+01 0. -1.
        -11    1    1    2    0    0  0.97878250545E+02  0.32786058203E+02  0.52325698783E+03  0.53334130991E+03  0.00000000000E+00 0.  1.
         11    1    1    2    0    0 -0.16579231176E+02  0.25319233897E+02  0.10794856143E+03  0.11211077747E+03  0.00000000000E+00 0. -1.
</event>
<event>
 7    1  0.2686828E-009  0.9340512E+02  0.7561462E-02  0.1294809E+00
         -1   -1    0    0    0  501 -0.00000000000E+00  0.00000000000E+00  0.46189958705E+02  0.46189958705E+02  0.00000000000E+00 0.  1.
          1   -1    0    0  501    0  0.00000000000E+00 -0.00000000000E+00 -0.29599211554E+03  0.29599211554E+03  0.00000000000E+00 0. -1.
         25    2    1    2    0    0 -0.34606200593E+02 -0.28828219019E+02 -0.23563203943E+03  0.27055176943E+03  0.12508855505E+03 0.  0.
          5    1    3    3  502    0  0.47129640591E+02 -0.15007111205E+02 -0.79363099511E+02  0.93607640569E+02  0.41800000000E+01 0. -1.
         -5    1    3    3    0  502 -0.81735841183E+02 -0.13821107814E+02 -0.15626893992E+03  0.17694412886E+03  0.41800000000E+01 0. -1.
        -11    1    1    2    0    0 -0.65529177351E+00  0.16950194756E+02 -0.27327527187E+02  0.32164145438E+02  0.00000000000E+00 0. -1.
         11    1    1    2    0    0  0.35261492366E+02  0.11878024264E+02  0.13157409777E+02  0.39466159382E+02  0.00000000000E+00 0.  1.
</event>
<event>
 7    1  0.2686828E-009  0.1078917E+03  0.7561462E-02  0.1264525E+00
         -2   -1    0    0    0  501 -0.00000000000E+00  0.00000000000E+00  0.15556361789E+03  0.15556361789E+03  0.00000000000E+00 0.  1.
          2   -1    0    0  501    0  0.00000000000E+00 -0.00000000000E+00 -0.21360431622E+03  0.21360431622E+03  0.00000000000E+00 0. -1.
         25    2    1    2    0    0  0.39799276806E+02 -0.15216450239E+02 -0.17115885507E+03  0.21623501538E+03  0.12508679154E+03 0.  0.
          5    1    3    3  502    0  0.78455837991E+02 -0.83405980793E+01 -0.15419834168E+03  0.17326132017E+03  0.41800000000E+01 0. -1.
         -5    1    3    3    0  502 -0.38656561185E+02 -0.68758521596E+01 -0.16960513387E+02  0.42973695209E+02  0.41800000000E+01 0. -1.
        -11    1    1    2    0    0 -0.49888951063E+02 -0.25017270160E+02  0.39299292375E+02  0.68258374032E+02  0.00000000000E+00 0. -1.
         11    1    1    2    0    0  0.10089674257E+02  0.40233720399E+02  0.73818864366E+02  0.84674544699E+02  0.00000000000E+00 0.  1.
</event>
<event>
 7    1  0.2686828E-009  0.1877498E+03  0.7561462E-02  0.1160507E+00
          1   -1    0    0  501    0  0.00000000000E+00  0.00000000000E+00  0.13445774324E+03  0.13445774324E+03  0.00000000000E+00 0. -1.
         -1   -1    0    0    0  501 -0.00000000000E+00 -0.00000000000E+00 -0.36578658577E+03  0.36578658577E+03  0.00000000000E+00 0.  1.
         25    2    1    2    0    0  0.16667551743E+03  0.70551806432E+02 -0.19659644756E+03  0.29505224397E+03  0.12508947989E+03 0.  0.
          5    1    3    3  502    0  0.18017751196E+02  0.36181354663E+02 -0.11501366672E+03  0.12198092357E+03  0.41800000000E+01 0. -1.
         -5    1    3    3    0  502  0.14865776623E+03  0.34370451769E+02 -0.81582780842E+02  0.17307132040E+03  0.41800000000E+01 0. -1.
        -11    1    1    2    0    0 -0.60081832130E+02 -0.36627230340E+02  0.29387565218E+02  0.76256209871E+02  0.00000000000E+00 0. -1.
         11    1    1    2    0    0 -0.10659368530E+03 -0.33924576092E+02 -0.64119960193E+02  0.12893587516E+03  0.00000000000E+00 0.  1.
</event>
<event>
 7    1  0.2686828E-009  0.2151940E+03  0.7561462E-02  0.1137518E+00
          2   -1    0    0  501    0  0.00000000000E+00  0.00000000000E+00  0.17717808135E+03  0.17717808135E+03  0.00000000000E+00 0.  1.
         -2   -1    0    0    0  501 -0.00000000000E+00 -0.00000000000E+00 -0.31041686365E+03  0.31041686365E+03  0.00000000000E+00 0. -1.
         25    2    1    2    0    0 -0.39723116323E+02 -0.20380864175E+03 -0.57412027158E+02  0.24912246133E+03  0.12509984594E+03 0.  0.
          5    1    3    3  502    0 -0.74280189775E+01  0.56644929727E+01  0.20787240513E+02  0.23169888103E+02  0.41800000000E+01 0.  1.
         -5    1    3    3    0  502 -0.32295097345E+02 -0.20947313472E+03 -0.78199267671E+02  0.22595257323E+03  0.41800000000E+01 0.  1.
        -11    1    1    2    0    0  0.83178480553E+01  0.19503573506E+02 -0.43971195717E+02  0.48816411467E+02  0.00000000000E+00 0. -1.
         11    1    1    2    0    0  0.31405268268E+02  0.18430506824E+03 -0.31855559428E+02  0.18965607220E+03  0.00000000000E+00 0.  1.
</event>
<event>
 7    1  0.2686828E-009  0.8942645E+02  0.7561462E-02  0.1304247E+00
          2   -1    0    0  501    0  0.00000000000E+00  0.00000000000E+00  0.34933604166E+03  0.34933604166E+03  0.00000000000E+00 0.  1.
         -2   -1    0    0    0  501 -0.00000000000E+00 -0.00000000000E+00 -0.10918336050E+03  0.10918336050E+03  0.00000000000E+00 0. -1.
         25    2    1    2    0    0 -0.58091128777E+02  0.15073514332E+02 -0.50826054317E+02  0.14775774316E+03  0.12508905944E+03 0.  0.
          5    1    3    3  502    0 -0.35859841845E+02  0.34228279389E+02  0.32427761308E+02  0.59384640022E+02  0.41800000000E+01 0. -1.
         -5    1    3    3    0  502 -0.22231286931E+02 -0.19154765057E+02 -0.83253815625E+02  0.88373103143E+02  0.41800000000E+01 0. -1.
        -11    1    1    2    0    0  0.66612330658E+02  0.14936260480E+02  0.25062244466E+03  0.25975354519E+03  0.00000000000E+00 0.  1.
         11    1    1    2    0    0 -0.85212018818E+01 -0.30009774812E+02  0.40356290815E+02  0.51008113807E+02  0.00000000000E+00 0. -1.
</event>
<event>
 7    1  0.2686828E-009  0.9959161E+02  0.7561462E-02  0.1281157E+00
         -1   -1    0    0    0  501 -0.00000000000E+00  0.00000000000E+00  0.21794010946E+02  0.21794010946E+02  0.00000000000E+00 0.  1.
          1   -1    0    0  501    0  0.00000000000E+00 -0.00000000000E+00 -0.71893483919E+03  0.71893483919E+03  0.00000000000E+00 0. -1.
         25    2    1    2    0    0 -0.80966397908E+01 -0.60830953020E+02 -0.42922684671E+03  0.45127500214E+03  0.12508989246E+03 0.  0.
          5    1    3    3  502    0 -0.51818912048E+02 -0.25703897826E+02 -0.87652057522E+02  0.10510112082E+03  0.41800000000E+01 0. -1.
         -5    1    3    3    0  502  0.43722272257E+02 -0.35127055194E+02 -0.34157478919E+03  0.34617388132E+03  0.41800000000E+01 0. -1.
        -11    1    1    2    0    0  0.66469071443E+01  0.72693719576E+02 -0.26772833112E+03  0.27750138293E+03  0.00000000000E+00 0. -1.
         11    1    1    2    0    0  0.14497326465E+01 -0.11862766557E+02 -0.18565040451E+00  0.11952465068E+02  0.00000000000E+00 0.  1.
</event>
<event>
 7    1  0.2686828E-009  0.1818014E+03  0.7561462E-02  0.1166071E+00
         -1   -1    0    0    0  501 -0.00000000000E+00  0.00000000000E+00  0.14191673184E+03  0.14191673184E+03  0.00000000000E+00 0.  1.
          1   -1    0    0  501    0  0.00000000000E+00 -0.00000000000E+00 -0.41379529387E+03  0.41379529387E+03  0.00000000000E+00 0. -1.
         25    2    1    2    0    0 -0.41826879541E+02  0.15141786036E+03 -0.31389640534E+03  0.37263232796E+03  0.12508813799E+03 0.  0.
          5    1    3    3  502    0  0.26883498498E+02  0.11374323540E+03 -0.14415754109E+03  0.18563166525E+03  0.41800000000E+01 0. -1.
         -5    1    3    3    0  502 -0.68710378039E+02  0.37674624962E+02 -0.16973886424E+03  0.18700066270E+03  0.41800000000E+01 0. -1.
        -11    1    1    2    0    0  0.25276070101E+01 -0.11363298327E+03  0.56130484854E+02  0.12676543304E+03  0.00000000000E+00 0.  1.
         11    1    1    2    0    0  0.39299272531E+02 -0.37784877096E+02 -0.14112641545E+02  0.56314264711E+02  0.00000000000E+00 0. -1.
</event>
<event>
 7    1  0.2686828E-009  0.9356116E+02  0.7561462E-02  0.1294450E+00
         -4   -1    0    0    0  501 -0.00000000000E+00  0.00000000000E+00  0.68712010268E+03  0.68712010268E+03  0.00000000000E+00 0.  1.
          4   -1    0    0  501    0  0.00000000000E+00 -0.00000000000E+00 -0.23814369304E+02  0.23814369304E+02  0.00000000000E+00 0. -1.
         25    2    1    2    0    0 -0.33660949617E+02 -0.16357246782E+02  0.23064468287E+03  0.26503522907E+03  0.12508430701E+03 0.  0.
          5    1    3    3  502    0 -0.13071753396E+02  0.27559122132E+02  0.15511751182E+01  0.30826198173E+02  0.41800000000E+01 0.  1.
         -5    1    3    3    0  502 -0.20589196222E+02 -0.43916368914E+02  0.22909350776E+03  0.23420903090E+03  0.41800000000E+01 0.  1.
        -11    1    1    2    0    0 -0.17889175466E+02 -0.32198932079E+02  0.16093315738E+03  0.16509474544E+03  0.00000000000E+00 0. -1.
         11    1    1    2    0    0  0.51550125084E+02  0.48556178862E+02  0.27172789312E+03  0.28080449748E+03  0.00000000000E+00 0.  1.
</event>
<event>
 7    1  0.2686828E-009  0.1061446E+03  0.7561462E-02  0.1267881E+00
         -2   -1    0    0    0  501 -0.00000000000E+00  0.00000000000E+00  0.84656264911E+03  0.84656264911E+03  0.00000000000E+00 0.  1.
          2   -1    0    0  501    0  0.00000000000E+00 -0.00000000000E+00 -0.16499837088E+02  0.16499837088E+02  0.00000000000E+00 0. -1.
         25    2    1    2    0    0  0.14279647296E+02  0.37106593857E+02  0.56506347704E+03  0.58010719310E+03  0.12508722865E+03 0.  0.
          5    1    3    3  502    0 -0.48316055197E+02  0.23276072517E+02  0.38876299220E+03  0.39246700912E+03  0.41800000000E+01 0.  1.
         -5    1    3    3    0  502  0.62595702493E+02  0.13830521340E+02  0.17630048484E+03  0.18764018398E+03  0.41800000000E+01 0.  1.
        -11    1    1    2    0    0 -0.14742847749E+02  0.26671448445E+02  0.13174676081E+03  0.13522546619E+03  0.00000000000E+00 0.  1.
         11    1    1    2    0    0  0.46320045299E+00 -0.63778042302E+02  0.13325257418E+03  0.14772982691E+03  0.00000000000E+00 0. -1.
</event>
<event>
 7    1  0.2686828E-009  0.1272741E+03  0.7561462E-02  0.1231558E+00
          1   -1    0    0  501    0  0.00000000000E+00  0.00000000000E+00  0.31589621042E+03  0.31589621042E+03  0.00000000000E+00 0.  1.
         -1   -1    0    0    0  501 -0.00000000000E+00 -0.00000000000E+00 -0.72846428598E+02  0.72846428598E+02  0.00000000000E+00 0. -1.
         25    2    1    2    0    0 -0.14265053836E+02 -0.73835955554E+02  0.33490388077E+02  0.14974924837E+03  0.12509193100E+03 0.  0.
          5    1    3    3  502    0 -0.65813852115E+02 -0.32790466967E+02 -0.41168540428E+01  0.73763803734E+02  0.41800000000E+01 0. -1.
         -5    1    3    3    0  502  0.51548798279E+02 -0.41045488588E+02  0.37607242119E+02  0.75985444641E+02  0.41800000000E+01 0. -1.
        -11    1    1    2    0    0 -0.34770625570E+02  0.13930460937E+02  0.65787119219E+02  0.75703363199E+02  0.00000000000E+00 0.  1.
         11    1    1    2    0    0  0.49035679406E+02  0.59905494617E+02  0.14377227453E+03  0.16329002745E+03  0.00000000000E+00 0. -1.
</event>
<event>
 7    1  0.2686828E-009  0.6682613E+02  0.7561462E-02  0.1371231E+00
          2   -1    0    0  501    0  0.00000000000E+00  0.00000000000E+00  0.33978826216E+03  0.33978826216E+03  0.00000000000E+00 0. -1.
         -2   -1    0    0    0  501 -0.00000000000E+00 -0.00000000000E+00 -0.36441069517E+02  0.36441069517E+02  0.00000000000E+00 0.  1.
         25    2    1    2    0    0 -0.24119414216E+02  0.29474601903E+01  0.18089303999E+03  0.22126925676E+03  0.12508940166E+03 0.  0.
          5    1    3    3  502    0 -0.38768148693E+01  0.17257162481E+02 -0.15125533975E+02  0.23645158668E+02  0.41800000000E+01 0.  1.
         -5    1    3    3    0  502 -0.20242599347E+02 -0.14309702290E+02  0.19601857397E+03  0.19762409810E+03  0.41800000000E+01 0.  1.
        -11    1    1    2    0    0  0.22533424009E+02 -0.43905035401E+02  0.42568222989E+02  0.65172547438E+02  0.00000000000E+00 0.  1.
         11    1    1    2    0    0  0.15859902067E+01  0.40957575211E+02  0.79885929661E+02  0.89787527474E+02  0.00000000000E+00 0. -1.
</event>
<event>
 7    1  0.2686828E-009  0.9439538E+02  0.7561462E-02  0.1292544E+00
         -1   -1    0    0    0  501 -0.00000000000E+00  0.00000000000E+00  0.55041355204E+03  0.55041355204E+03  0.00000000000E+00 0.  1.
          1   -1    0    0  501    0  0.00000000000E+00 -0.00000000000E+00 -0.32266308636E+02  0.32266308636E+02  0.00000000000E+00 0. -1.
         25    2    1    2    0    0  0.50120088760E+02 -0.84028697176E+01  0.41334612573E+03  0.43483679015E+03  0.12508150501E+03 0.  0.
          5    1    3    3  502    0  0.84996897648E+01 -0.51401640520E+02  0.76246851118E+02  0.92441484625E+02  0.41800000000E+01 0. -1.
         -5    1    3    3    0  502  0.41620398995E+02  0.42998770802E+02  0.33709927461E+03  0.34239530553E+03  0.41800000000E+01 0. -1.
        -11    1    1    2    0    0 -0.39627645610E+02 -0.21331210368E+02  0.10715724241E+03  0.11622411726E+03  0.00000000000E+00 0.  1.
         11    1    1    2    0    0 -0.10492443150E+02  0.29734080085E+02 -0.23561247343E+01  0.31618953264E+02  0.00000000000E+00 0. -1.
</event>
<event>
 7    1  0.2997828E-009  0.1119747E+03  0.7561462E-02  0.1256956E+00
          3   -1    0    0  501    0  0.00000000000E+00  0.00000000000E+00  0.36447820320E+02  0.36447820320E+02  0.00000000000E+00 0. -1.
         -3   -1    0    0    0  501 -0.00000000000E+00 -0.00000000000E+00 -0.44595879510E+03  0.44595879510E+03  0.00000000000E+00 0.  1.
         25    2    1    2    0    0  0.46301844288E+02 -0.46191028160E+02 -0.20061011722E+03  0.24529702348E+03  0.12509491890E+03 0.  0.
          5    1    3    3  502    0 -0.27502784642E+02 -0.64111518376E+01 -0.13707889688E+03  0.14002000714E+03  0.41800000000E+01 0. -1.
         -5    1    3    3    0  502  0.73804628930E+02 -0.39779876323E+02 -0.63531220336E+02  0.10527701634E+03  0.41800000000E+01 0. -1.
        -11    1    1    2    0    0 -0.56577020113E+02 -0.72458645896E+01 -0.93545936332E+02  0.10956415455E+03  0.00000000000E+00 0.  1.
         11    1    1    2    0    0  0.10275175825E+02  0.53436892750E+02 -0.11535492124E+03  0.12754543739E+03  0.00000000000E+00 0. -1.
</event>
<event>
 7    1  0.2686828E-009  0.1049750E+03  0.7561462E-02  0.1270169E+00
          1   -1    0    0  501    0  0.00000000000E+00  0.00000000000E+00  0.57928873271E+03  0.57928873271E+03  0.00000000000E+00 0. -1.
         -1   -1    0    0    0  501 -0.00000000000E+00 -0.00000000000E+00 -0.29907411784E+02  0.29907411784E+02  0.00000000000E+00 0.  1.
         25    2    1    2    0    0 -0.48409701973E+02  0.46318534062E+02  0.38634459267E+03  0.41157964722E+03  0.12508699324E+03 0.  0.
          5    1    3    3  502    0 -0.34527804457E+02  0.84937948074E+02  0.32457305309E+03  0.33730070189E+03  0.41800000000E+01 0.  1.
         -5    1    3    3    0  502 -0.13881897516E+02 -0.38619414012E+02  0.61771539575E+02  0.74278945325E+02  0.41800000000E+01 0.  1.
        -11    1    1    2    0    0  0.43137133933E+02 -0.15790882141E+02  0.18047630139E+02  0.49354647566E+02  0.00000000000E+00 0.  1.
         11    1    1    2    0    0  0.52725680404E+01 -0.30527651921E+02  0.14498909812E+03  0.14826184971E+03  0.00000000000E+00 0. -1.
</event>
<event>
 7    1  0.2686828E-009  0.1154558E+03  0.7561462E-02  0.1250788E+00
         -2   -1    0    0    0  501 -0.00000000000E+00  0.00000000000E+00  0.27734276277E+03  0.27734276277E+03  0.00000000000E+00 0. -1.
          2   -1    0    0  501    0  0.00000000000E+00 -0.00000000000E+00 -0.85726897800E+02  0.85726897800E+02  0.00000000000E+00 0.  1.
         25    2    1    2    0    0  0.60367174345E+02  0.58753348125E+02  0.18175348421E+02  0.15190216998E+03  0.12509106403E+03 0.  0.
          5    1    3    3  502    0  0.82444624094E+01  0.85695167223E+02  0.31180843395E+02  0.91658879769E+02  0.41800000000E+01 0. -1.
         -5    1    3    3    0  502  0.52122711935E+02 -0.26941819098E+02 -0.13005494974E+02  0.60243290210E+02  0.41800000000E+01 0. -1.
        -11    1    1    2    0    0 -0.92101216418E+01 -0.18982323484E+02 -0.46931667096E+01  0.21614364651E+02  0.00000000000E+00 0.  1.
         11    1    1    2    0    0 -0.51157052703E+02 -0.39771024641E+02  0.17813368326E+03  0.18955312594E+03  0.00000000000E+00 0. -1.
</event>
<event>
 7    1  0.2686828E-009  0.7538816E+02  0.7561462E-02  0.1342673E+00
         -1   -1    0    0    0  501 -0.00000000000E+00  0.00000000000E+00  0.20962620987E+02  0.20962620987E+02  0.00000000000E+00 0.  1.
          1   -1    0    0  501    0  0.00000000000E+00 -0.00000000000E+00 -0.79069792578E+03  0.79069792578E+03  0.00000000000E+00 0. -1.
         25    2    1    2    0    0  0.21587161071E+02  0.33415290554E+02 -0.59872389677E+03  0.61294358752E+03  0.12508776819E+03 0.  0.
          5    1    3    3  502    0 -0.72398232079E+01  0.21462021036E+02 -0.13146810759E+02  0.26520641398E+02  0.41800000000E+01 0.  1.
         -5    1    3    3    0  502  0.28826984279E+02  0.11953269518E+02 -0.58557708601E+03  0.58642294612E+03  0.41800000000E+01 0.  1.
        -11    1    1    2    0    0  0.95978419809E+01 -0.56594164205E+02 -0.13058770193E+03  0.14264699747E+03  0.00000000000E+00 0. -1.
         11    1    1    2    0    0 -0.31185003052E+02  0.23178873651E+02 -0.40423706089E+02  0.56069961772E+02  0.00000000000E+00 0.  1.
</event>
<event>
 7    1  0.2686828E-009  0.8868894E+02  0.7561462E-02  0.1306058E+00
         -2   -1    0    0    0  501 -0.00000000000E+00  0.00000000000E+00  0.11265388950E+02  0.11265388950E+02  0.00000000000E+00 0. -1.
          2   -1    0    0  501    0  0.00000000000E+00 -0.00000000000E+00 -0.15007499514E+04  0.15007499514E+04  0.00000000000E+00 0.  1.
         25    2    1    2    0    0 -0.46403022654E+02 -0.43999295954E+02 -0.10226536447E+04  0.10322584832E+04  0.12509164830E+03 0.  0.
          5    1    3    3  502    0 -0.39693323206E+02 -0.54570861668E+02 -0.23598213667E+03  0.24547623119E+03  0.41800000000E+01 0. -1.
         -5    1    3    3    0  502 -0.67096994488E+01  0.10571565713E+02 -0.78667150805E+03  0.78678225199E+03  0.41800000000E+01 0. -1.
        -11    1    1    2    0    0 -0.19584819890E+02  0.63133403538E+01 -0.30083446815E+02  0.36447732560E+02  0.00000000000E+00 0. -1.
         11    1    1    2    0    0  0.65987842545E+02  0.37685955601E+02 -0.43674747088E+03  0.44330912458E+03  0.00000000000E+00 0.  1.
</event>
<event>
 7    1  0.2686828E-009  0.1327561E+03  0.7561462E-02  0.1223423E+00
          2   -1    0    0  501    0  0.00000000000E+00  0.00000000000E+00  0.97829199408E+03  0.97829199408E+03  0.00000000000E+00 0. -1.
         -2   -1    0    0    0  501 -0.00000000000E+00 -0.00000000000E+00 -0.22339616843E+02  0.22339616843E+02  0.00000000000E+00 0.  1.
         25    2    1    2    0    0 -0.51866756227E+02  0.72201443316E+02  0.67030612437E+03  0.68764947137E+03  0.12509311047E+03 0.  0.
          5    1    3    3  502    0 -0.22601327298E+02  0.98430758102E+02  0.33208845177E+03  0.34713058974E+03  0.41800000000E+01 0.  1.
         -5    1    3    3    0  502 -0.29265428929E+02 -0.26229314785E+02  0.33821767260E+03  0.34051888163E+03  0.41800000000E+01 0.  1.
        -11    1    1    2    0    0  0.64477039605E+02 -0.85170257685E+02  0.21525642077E+03  0.24030519784E+03  0.00000000000E+00 0.  1.
         11    1    1    2    0    0 -0.12610283378E+02  0.12968814368E+02  0.70389832100E+02  0.72676941708E+02  0.00000000000E+00 0. -1.
</event>
<event>
 7    1  0.2686828E-009  0.1088191E+03  0.7561462E-02  0.1262772E+00
         -2   -1    0    0    0  501 -0.00000000000E+00  0.00000000000E+00  0.10990900862E+03  0.10990900862E+03  0.00000000000E+00 0.  1.
          2   -1    0    0  501    0  0.00000000000E+00 -0.00000000000E+00 -0.16874134255E+03  0.16874134255E+03  0.00000000000E+00 0. -1.
         25    2    1    2    0    0  0.29834205328E+02  0.22336987271E+02  0.42363431824E+02  0.13722793697E+03  0.12509126876E+03 0.  0.
          5    1    3    3  502    0  0.78125626005E+02  0.44088391185E+01  0.19725486875E+02  0.80806055055E+02  0.41800000000E+01 0. -1.
         -5    1    3    3    0  502 -0.48291420677E+02  0.17928148153E+02  0.22637944949E+02  0.56421881914E+02  0.41800000000E+01 0. -1.
        -11    1    1    2    0    0 -0.50437469756E+02 -0.36789007755E+02 -0.97801458477E+02  0.11602799114E+03  0.00000000000E+00 0.  1.
         11    1    1    2    0    0  0.20603264428E+02  0.14452020484E+02 -0.33943072776E+01  0.25394423070E+02  0.00000000000E+00 0. -1.
</event>
<event>
 7    1  0.2686828E-009  0.1002202E+03  0.7561462E-02  0.1279834E+00
         -1   -1    0    0    0  501 -0.00000000000E+00  0.00000000000E+00  0.47273663412E+02  0.47273663412E+02  0.00000000000E+00 0.  1.
          1   -1    0    0  501    0  0.00000000000E+00 -0.00000000000E+00 -0.50420011877E+03  0.50420011877E+03  0.00000000000E+00 0. -1.
         25    2    1    2    0    0 -0.26991812835E+02 -0.78109249100E+02 -0.37378305297E+03  0.40272924024E+03  0.12508979777E+03 0.  0.
          5    1    3    3  502    0 -0.35158721732E+02 -0.80297015299E+02 -0.38092226459E+03  0.39090023080E+03  0.41800000000E+01 0.  1.
         -5    1    3    3    0  502  0.81669088972E+01  0.21877661989E+01  0.71392116199E+01  0.11829009444E+02  0.41800000000E+01 0.  1.
        -11    1    1    2    0    0  0.35460218486E+02  0.85150299673E+02 -0.33878575339E+02  0.98263719126E+02  0.00000000000E+00 0.  1.
         11    1    1    2    0    0 -0.84684056506E+01 -0.70410505729E+01 -0.49264827052E+02  0.50480822814E+02  0.00000000000E+00 0. -1.
</event>
<event>
 7    1  0.2686828E-009  0.2771888E+03  0.7561462E-02  0.1097234E+00
         -2   -1    0    0    0  501 -0.00000000000E+00  0.00000000000E+00  0.16650697538E+04  0.16650697538E+04  0.00000000000E+00 0.  1.
          2   -1    0    0  501    0  0.00000000000E+00 -0.00000000000E+00 -0.47503745515E+02  0.47503745515E+02  0.00000000000E+00 0. -1.
         25    2    1    2    0    0  0.80885596130E+02 -0.24284261157E+03  0.70122290136E+03  0.75688650316E+03  0.12509439484E+03 0.  0.
          5    1    3    3  502    0  0.11291918471E+03 -0.20283761964E+03  0.59981734655E+03  0.64318905762E+03  0.41800000000E+01 0.  1.
         -5    1    3    3    0  502 -0.32033588582E+02 -0.40004991926E+02  0.10140555481E+03  0.11369744554E+03  0.41800000000E+01 0.  1.
        -11    1    1    2    0    0 -0.54172386449E+02  0.43039545280E+02  0.26338386452E+03  0.27231986707E+03  0.00000000000E+00 0.  1.
         11    1    1    2    0    0 -0.26713209681E+02  0.19980306629E+03  0.65295924241E+03  0.68336712909E+03  0.00000000000E+00 0. -1.
</event>
<event>
 7    1  0.2686828E-009  0.1221427E+03  0.7561462E-02  0.1239604E+00
          1   -1    0    0  501    0  0.00000000000E+00  0.00000000000E+00  0.13262027189E+04  0.13262027189E+04  0.00000000000E+00 0. -1.
         -1   -1    0    0    0  501 -0.00000000000E+00 -0.00000000000E+00 -0.28612149929E+02  0.28612149929E+02  0.00000000000E+00 0.  1.
         25    2    1    2    0    0 -0.80039064161E+02 -0.15619737428E+02  0.11648460805E+04  0.11743778888E+04  0.12508719530E+03 0.  0.
          5    1    3    3  502    0 -0.13855063376E+02  0.48067793050E+02  0.60011320690E+03  0.60220910738E+03  0.41800000000E+01 0. -1.
         -5    1    3    3    0  502 -0.66184000785E+02 -0.63687530478E+02  0.56473287359E+03  0.57216878141E+03  0.41800000000E+01 0. -1.
        -11    1    1    2    0    0  0.65873832115E+02 -0.15742143242E+02  0.33830588178E+02  0.75707896073E+02  0.00000000000E+00 0.  1.
         11    1    1    2    0    0  0.14165232046E+02  0.31361880670E+02  0.98913900341E+02  0.10472908402E+03  0.00000000000E+00 0. -1.
</event>
<event>
 7    1  0.2686828E-009  0.1222128E+03  0.7561462E-02  0.1239491E+00
          1   -1    0    0  501    0  0.00000000000E+00  0.00000000000E+00  0.95380243911E+02  0.95380243911E+02  0.00000000000E+00 0. -1.
         -1   -1    0    0    0  501 -0.00000000000E+00 -0.00000000000E+00 -0.21700611777E+03  0.21700611777E+03  0.00000000000E+00 0.  1.
         25    2    1    2    0    0  0.85796397728E+02  0.92537703585E+01 -0.10418475232E+03  0.18425027998E+03  0.12508816462E+03 0.  0.
          5    1    3    3  502    0  0.21565473890E+02  0.53741264624E+02 -0.55103899873E+01  0.58318350330E+02  0.41800000000E+01 0.  1.
         -5    1    3    3    0  502  0.64230923838E+02 -0.44487494265E+02 -0.98674362335E+02  0.12593192965E+03  0.41800000000E+01 0.  1.
        -11    1    1    2    0    0 -0.68368814093E+02 -0.35176337215E+02  0.19931362792E+02  0.79428764709E+02  0.00000000000E+00 0. -1.
         11    1    1    2    0    0 -0.17427583634E+02  0.25922566857E+02 -0.37372484328E+02  0.48707316993E+02  0.00000000000E+00 0.  1.
</event>
<event>
 7    1  0.2686828E-009  0.9127272E+02  0.7561462E-02  0.1299799E+00
         -4   -1    0    0    0  501 -0.00000000000E+00  0.00000000000E+00  0.27263187887E+03  0.27263187887E+03  0.00000000000E+00 0.  1.
          4   -1    0    0  501    0  0.00000000000E+00 -0.00000000000E+00 -0.49694982722E+02  0.49694982722E+02  0.00000000000E+00 0. -1.
         25    2    1    2    0    0  0.84274327189E+01 -0.29293111953E+01  0.74303779671E+02  0.14577027748E+03  0.12509324377E+03 0.  0.
          5    1    3    3  502    0  0.21596487451E+02  0.44003707313E+02  0.82606849415E+02  0.96146234964E+02  0.41800000000E+01 0.  1.
         -5    1    3    3    0  502 -0.13169054732E+02 -0.46933018508E+02 -0.83030697438E+01  0.49624042520E+02  0.41800000000E+01 0.  1.
        -11    1    1    2    0    0 -0.46324253527E+02 -0.92129707484E+00  0.39226358252E+02  0.60708256727E+02  0.00000000000E+00 0. -1.
         11    1    1    2    0    0  0.37896820809E+02  0.38506082702E+01  0.10940675822E+03  0.11584832738E+03  0.00000000000E+00 0.  1.
</event>
<event>
 7    1  0.2686828E-009  0.9157387E+02  0.7561462E-02  0.1299084E+00
         -2   -1    0    0    0  501 -0.00000000000E+00  0.00000000000E+00  0.89610271650E+02  0.89610271650E+02  0.00000000000E+00 0.  1.
          2   -1    0    0  501    0  0.00000000000E+00 -0.00000000000E+00 -0.39479928989E+03  0.39479928989E+03  0.00000000000E+00 0. -1.
         25    2    1    2    0    0 -0.68904486568E+02  0.68921658917E+01  0.16826137222E+02  0.14396503314E+03  0.12508989429E+03 0.  0.
          5    1    3    3  502    0 -0.56137849476E+02  0.18724024383E+02  0.67710597263E+02  0.90023578104E+02  0.41800000000E+01 0.  1.
         -5    1    3    3    0  502 -0.12766637092E+02 -0.11831858491E+02 -0.50884460041E+02  0.53941455039E+02  0.41800000000E+01 0.  1.
        -11    1    1    2    0    0  0.65549027939E+02  0.27703570823E+02 -0.16610693513E+03  0.18070881771E+03  0.00000000000E+00 0.  1.
         11    1    1    2    0    0  0.33554586293E+01 -0.34595736715E+02 -0.15590822033E+03  0.15973571068E+03  0.00000000000E+00 0. -1.
</event>
<event>
 7    1  0.3296843E-009  0.7363907E+02  0.7561462E-02  0.1348138E+00
          1   -1    0    0  501    0  0.00000000000E+00  0.00000000000E+00  0.81829622037E+02  0.81829622037E+02  0.00000000000E+00 0. -1.
         -1   -1    0    0    0  501 -0.00000000000E+00 -0.00000000000E+00 -0.22959547533E+03  0.22959547533E+03  0.00000000000E+00 0.  1.
         25    2    1    2    0    0 -0.14897086305E+02 -0.81559250942E+01 -0.17404343775E+03  0.21500545632E+03  0.12509110971E+03 0.  0.
          5    1    3    3  502    0 -0.41386737936E+02  0.64597478736E+01 -0.40500606996E+01  0.42290256694E+02  0.41800000000E+01 0.  1.
         -5    1    3    3    0  502  0.26489651631E+02 -0.14615672968E+02 -0.16999337705E+03  0.17271519963E+03  0.41800000000E+01 0.  1.
        -11    1    1    2    0    0  0.13117137552E+02 -0.31927855516E+02 -0.16076884035E+02  0.38077729130E+02  0.00000000000E+00 0.  1.
         11    1    1    2    0    0  0.17799487523E+01  0.40083780610E+02  0.42354468490E+02  0.58341911922E+02  0.00000000000E+00 0. -1.
</event>
<event>
 7    1  0.2686828E-009  0.9267374E+02  0.7561462E-02  0.1296503E+00
          2   -1    0    0  501    0  0.00000000000E+00  0.00000000000E+00  0.44883243683E+03  0.44883243683E+03  0.00000000000E+00 0. -1.
         -2   -1    0    0    0  501 -0.00000000000E+00 -0.00000000000E+00 -0.33274226934E+02  0.33274226934E+02  0.00000000000E+00 0.  1.
         25    2    1    2    0    0 -0.26431354879E+02 -0.43778561436E+01  0.34020692330E+03  0.36346357089E+03  0.12508890660E+03 0.  0.
          5    1    3    3  502    0  0.34601467207E+02 -0.11604161247E+02  0.25870864552E+03  0.26130356629E+03  0.41800000000E+01 0. -1.
         -5    1    3    3    0  502 -0.61032822086E+02  0.72263051030E+01  0.81498277780E+02  0.10216000459E+03  0.41800000000E+01 0. -1.
        -11    1    1    2    0    0 -0.19946991978E+02  0.28460079533E+02  0.12568189103E+02  0.36956974894E+02  0.00000000000E+00 0.  1.
         11    1    1    2    0    0  0.46378346857E+02 -0.24082223389E+02  0.62783097498E+02  0.81686117988E+02  0.00000000000E+00 0. -1.
</event>
<event>
 7    1  0.2686828E-009  0.7886491E+02  0.7561462E-02  0.1332304E+00
          1   -1    0    0  501    0  0.00000000000E+00  0.00000000000E+00  0.20941873454E+02  0.20941873454E+02  0.00000000000E+00 0. -1.
         -1   -1    0    0    0  501 -0.00000000000E+00 -0.00000000000E+00 -0.65242335138E+03  0.65242335138E+03  0.00000000000E+00 0.  1.
         25    2    1    2    0    0 -0.37845127384E+02 -0.88713789803E+01 -0.43047272573E+03  0.44996144841E+03  0.12509029708E+03 0.  0.
          5    1    3    3  502    0 -0.56703018933E+02 -0.27658990935E+02 -0.99473841094E+02  0.11786759350E+03  0.41800000000E+01 0.  1.
         -5    1    3    3    0  502  0.18857891549E+02  0.18787611954E+02 -0.33099888463E+03  0.33209385490E+03  0.41800000000E+01 0.  1.
        -11    1    1    2    0    0  0.66774301639E+01  0.29456997979E+02 -0.15078876209E+02  0.33759077464E+02  0.00000000000E+00 0. -1.
         11    1    1    2    0    0  0.31167697220E+02 -0.20585618999E+02 -0.18592987599E+03  0.18964469896E+03  0.00000000000E+00 0.  1.
</event>
<event>
 7    1  0.2686828E-009  0.1349012E+03  0.7561462E-02  0.1220359E+00
         -2   -1    0    0    0  501 -0.00000000000E+00  0.00000000000E+00  0.74067708581E+02  0.74067708581E+02  0.00000000000E+00 0.  1.
          2   -1    0    0  501    0  0.00000000000E+00 -0.00000000000E+00 -0.28706681662E+03  0.28706681662E+03  0.00000000000E+00 0. -1.
         25    2    1    2    0    0 -0.75405894502E+02 -0.55227729388E+02 -0.83480945167E+02  0.17705611745E+03  0.12507457577E+03 0.  0.
          5    1    3    3  502    0 -0.95738882567E+01 -0.80165876286E+02 -0.66095044376E+02  0.10442343773E+03  0.41800000000E+01 0.  1.
         -5    1    3    3    0  502 -0.65832006245E+02  0.24938146898E+02 -0.17385900790E+02  0.72632679720E+02  0.41800000000E+01 0.  1.
        -11    1    1    2    0    0  0.43501734534E+02  0.70675383979E+02 -0.49677541237E+02  0.96722639084E+02  0.00000000000E+00 0. -1.
         11    1    1    2    0    0  0.31904159968E+02 -0.15447654590E+02 -0.79840621638E+02  0.87355768665E+02  0.00000000000E+00 0.  1.
</event>
<event>
 7    1  0.2686828E-009  0.9435215E+02  0.7561462E-02  0.1292642E+00
          1   -1    0    0  501    0  0.00000000000E+00  0.00000000000E+00  0.50982750181E+02  0.50982750181E+02  0.00000000000E+00 0. -1.
         -1   -1    0    0    0  501 -0.00000000000E+00 -0.00000000000E+00 -0.29638112700E+03  0.29638112700E+03  0.00000000000E+00 0.  1.
         25    2    1    2    0    0  0.52953344723E+02  0.12824925195E+02 -0.11135004897E+03  0.17611163446E+03  0.12509172219E+03 0.  0.
          5    1    3    3  502    0  0.27712458642E+02  0.59019187174E+02 -0.16236730680E+02  0.67322720101E+02  0.41800000000E+01 0.  1.
         -5    1    3    3    0  502  0.25240886082E+02 -0.46194261979E+02 -0.95113318292E+02  0.10878891436E+03  0.41800000000E+01 0.  1.
        -11    1    1    2    0    0 -0.60272655505E+00  0.12425942304E+02  0.99733091116E+01  0.15944723769E+02  0.00000000000E+00 0. -1.
         11    1    1    2    0    0 -0.52350618168E+02 -0.25250867499E+02 -0.14402163696E+03  0.15530751896E+03  0.00000000000E+00 0.  1.
</event>
<event>
 7    1  0.2686828E-009  0.8657715E+02  0.7561462E-02  0.1311359E+00
         -1   -1    0    0    0  501 -0.00000000000E+00  0.00000000000E+00  0.53273156048E+02  0.53273156048E+02  0.00000000000E+00 0.  1.
          1   -1    0    0  501    0  0.00000000000E+00 -0.00000000000E+00 -0.30088057709E+03  0.30088057709E+03  0.00000000000E+00 0. -1.
         25    2    1    2    0    0 -0.32635751814E+02 -0.21000607842E+02 -0.21585899668E+03  0.25248819079E+03  0.12509621182E+03 0.  0.
          5    1    3    3  502    0 -0.24398416099E+02  0.30555460533E+02 -0.19009070245E+03  0.19411560070E+03  0.41800000000E+01 0. -1.
         -5    1    3    3    0  502 -0.82373357152E+01 -0.51556068375E+02 -0.25768294230E+02  0.58372590087E+02  0.41800000000E+01 0. -1.
        -11    1    1    2    0    0  0.37130160029E+02 -0.18648435104E+02 -0.43413169136E+02  0.60092563350E+02  0.00000000000E+00 0. -1.
         11    1    1    2    0    0 -0.44944082148E+01  0.39649042946E+02  0.11664744780E+02  0.41572978995E+02  0.00000000000E+00 0.  1.
</event>
<event>
 7    1  0.2686828E-009  0.1086747E+03  0.7561462E-02  0.1263044E+00
          1   -1    0    0  501    0  0.00000000000E+00  0.00000000000E+00  0.26508805122E+03  0.26508805122E+03  0.00000000000E+00 0. -1.
         -1   -1    0    0    0  501 -0.00000000000E+00 -0.00000000000E+00 -0.48836941881E+02  0.48836941881E+02  0.00000000000E+00 0.  1.
         25    2    1    2    0    0 -0.28953364994E+02  0.17559665762E+02  0.11609702695E+03  0.17399293122E+03  0.12509349001E+03 0.  0.
          5    1    3    3  502    0  0.98840861110E+01  0.65247591511E+02  0.45477170485E+02  0.80253279008E+02  0.41800000000E+01 0.  1.
         -5    1    3    3    0  502 -0.38837451105E+02 -0.47687925749E+02  0.70619856460E+02  0.93739652213E+02  0.41800000000E+01 0.  1.
        -11    1    1    2    0    0 -0.26246959127E+02 -0.21937584917E+02  0.12836673119E+02  0.36536839931E+02  0.00000000000E+00 0.  1.
         11    1    1    2    0    0  0.55200324120E+02  0.43779191558E+01  0.87317409273E+02  0.10339522195E+03  0.00000000000E+00 0. -1.
</event>
<event>
 7    1  0.2686828E-009  0.1665771E+03  0.7561462E-02  0.1181465E+00
          2   -1    0    0  501    0  0.00000000000E+00  0.00000000000E+00  0.19210043828E+02  0.19210043828E+02  0.00000000000E+00 0. -1.
         -2   -1    0    0    0  501 -0.00000000000E+00 -0.00000000000E+00 -0.18316779294E+04  0.18316779294E+04  0.00000000000E+00 0.  1.
         25    2    1    2    0    0 -0.26466597127E+02  0.12388879421E+03 -0.13715860519E+04  0.13830925885E+04  0.12509155257E+03 0.  0.
          5    1    3    3  502    0  0.50381785360E+02  0.44072933753E+02 -0.49579921867E+03  0.50031498620E+03  0.41800000000E+01 0. -1.
         -5    1    3    3    0  502 -0.76848382487E+02  0.79815860457E+02 -0.87578683322E+03  0.88277760229E+03  0.41800000000E+01 0. -1.
        -11    1    1    2    0    0 -0.28232850751E+02 -0.80755406340E+02 -0.27113791911E+03  0.28431373638E+03  0.00000000000E+00 0.  1.
         11    1    1    2    0    0  0.54699447877E+02 -0.43133387870E+02 -0.16974391455E+03  0.18348164833E+03  0.00000000000E+00 0. -1.
</event>
<event>
 7    1  0.2686828E-009  0.1389538E+03  0.7561462E-02  0.1214744E+00
          2   -1    0    0  501    0  0.00000000000E+00  0.00000000000E+00  0.48543098752E+03  0.48543098752E+03  0.00000000000E+00 0. -1.
         -2   -1    0    0    0  501 -0.00000000000E+00 -0.00000000000E+00 -0.51886231476E+02  0.51886231476E+02  0.00000000000E+00 0.  1.
         25    2    1    2    0    0  0.39831772752E+02 -0.10684619768E+03  0.25931387690E+03  0.30966764744E+03  0.12509070725E+03 0.  0.
          5    1    3    3  502    0  0.35118633317E+01 -0.11731489832E+03  0.13146550201E+03  0.17628320728E+03  0.41800000000E+01 0. -1.
         -5    1    3    3    0  502  0.36319909420E+02  0.10468700642E+02  0.12784837489E+03  0.13338444016E+03  0.41800000000E+01 0. -1.
        -11    1    1    2    0    0 -0.16924962804E+02  0.95287293648E+02  0.67788383903E+02  0.11815831621E+03  0.00000000000E+00 0.  1.
         11    1    1    2    0    0 -0.22906809948E+02  0.11558904032E+02  0.10644249524E+03  0.10949125534E+03  0.00000000000E+00 0. -1.
</event>
<event>
 7    1  0.2686828E-009  0.1578620E+03  0.7561462E-02  0.1191132E+00
         -2   -1    0    0    0  501 -0.00000000000E+00  0.00000000000E+00  0.80674742009E+02  0.80674742009E+02  0.00000000000E+00 0.  1.
          2   -1    0    0  501    0  0.00000000000E+00 -0.00000000000E+00 -0.38796222640E+03  0.38796222640E+03  0.00000000000E+00 0. -1.
         25    2    1    2    0    0 -0.30049729140E+02  0.13598945817E+03 -0.17735921645E+03  0.25787699878E+03  0.12509250932E+03 0.  0.
          5    1    3    3  502    0 -0.14783844741E+02  0.15251896210E+03 -0.11553858764E+03  0.19195633227E+03  0.41800000000E+01 0. -1.
         -5    1    3    3    0  502 -0.15265884399E+02 -0.16529503935E+02 -0.61820628810E+02  0.65920666511E+02  0.41800000000E+01 0. -1.
        -11    1    1    2    0    0  0.17653303737E+02 -0.59616430735E+02 -0.31730780880E+01  0.62256135207E+02  0.00000000000E+00 0.  1.
         11    1    1    2    0    0  0.12396425403E+02 -0.76373027432E+02 -0.12675518985E+03  0.14850383442E+03  0.00000000000E+00 0. -1.
</event>
<event>
 7    1  0.2686828E-009  0.9825146E+02  0.7561462E-02  0.1284016E+00
          2   -1    0    0  501    0  0.00000000000E+00  0.00000000000E+00  0.40830882190E+03  0.40830882190E+03  0.00000000000E+00 0. -1.
         -2   -1    0    0    0  501 -0.00000000000E+00 -0.00000000000E+00 -0.41042297465E+02  0.41042297465E+02  0.00000000000E+00 0.  1.
         25    2    1    2    0    0  0.65749209536E+02 -0.53998463994E+01  0.15673753328E+03  0.21110278177E+03  0.12508242577E+03 0.  0.
          5    1    3    3  502    0 -0.38411570469E+01  0.41017858074E+02  0.10726819634E+02  0.42775649942E+02  0.41800000000E+01 0. -1.
         -5    1    3    3    0  502  0.69590366583E+02 -0.46417704474E+02  0.14601071364E+03  0.16832713183E+03  0.41800000000E+01 0. -1.
        -11    1    1    2    0    0 -0.53385905075E+02 -0.69833191576E+01  0.21377549528E+03  0.22045131887E+03  0.00000000000E+00 0. -1.
         11    1    1    2    0    0 -0.12363304462E+02  0.12383165557E+02 -0.32465041319E+01  0.17797018725E+02  0.00000000000E+00 0.  1.
</event>
<event>
 7    1  0.2686828E-009  0.1240606E+03  0.7561462E-02  0.1236545E+00
          1   -1    0    0  501    0  0.00000000000E+00  0.00000000000E+00  0.45915086856E+03  0.45915086856E+03  0.00000000000E+00 0. -1.
         -1   -1    0    0    0  501 -0.00000000000E+00 -0.00000000000E+00 -0.36831281133E+02  0.36831281133E+02  0.00000000000E+00 0.  1.
         25    2    1    2    0    0  0.43924670214E+02 -0.55965288448E+02  0.22105300033E+03  0.26376106668E+03  0.12507590167E+03 0.  0.
          5    1    3    3  502    0  0.83585240547E+02 -0.38385623254E+02  0.18704976915E+03  0.20848270203E+03  0.41800000000E+01 0.  1.
         -5    1    3    3    0  502 -0.39660570333E+02 -0.17579665194E+02  0.34003231183E+02  0.55278364649E+02  0.41800000000E+01 0.  1.
        -11    1    1    2    0    0 -0.12180104161E+02  0.74645266222E+02  0.10715226492E+03  0.13115593233E+03  0.00000000000E+00 0.  1.
         11    1    1    2    0    0 -0.31744566053E+02 -0.18679977775E+02  0.94114322171E+02  0.10106515068E+03  0.00000000000E+00 0. -1.
</event>
<event>
 7    1  0.2686828E-009  0.1187697E+03  0.7561462E-02  0.1245141E+00
         -4   -1    0    0    0  501 -0.00000000000E+00  0.00000000000E+00  0.62589024505E+02  0.62589024505E+02  0.00000000000E+00 0.  1.
          4   -1    0    0  501    0  0.00000000000E+00 -0.00000000000E+00 -0.27059451877E+03  0.27059451877E+03  0.00000000000E+00 0. -1.
         25    2    1    2    0    0 -0.51523732864E+02  0.43030592101E+01 -0.51245427343E+02  0.14472955702E+03  0.12508932602E+03 0.  0.
          5    1    3    3  502    0 -0.86872545157E+02  0.29231866000E+02 -0.37862147894E+02  0.99259033518E+02  0.41800000000E+01 0. -1.
         -5    1    3    3    0  502  0.35348812292E+02 -0.24928806790E+02 -0.13383279449E+02  0.45470523499E+02  0.41800000000E+01 0. -1.
        -11    1    1    2    0    0  0.76528118900E+02 -0.84124649212E+01 -0.99259819895E+02  0.12561781082E+03  0.00000000000E+00 0. -1.
         11    1    1    2    0    0 -0.25004386035E+02  0.41094057110E+01 -0.57500247027E+02  0.62836175444E+02  0.00000000000E+00 0.  1.
</event>
<event>
 7    1  0.2686828E-009  0.1239124E+03  0.7561462E-02  0.1236779E+00
         -3   -1    0    0    0  501 -0.00000000000E+00  0.00000000000E+00  0.19223417281E+03  0.19223417281E+03  0.00000000000E+00 0.  1.
          3   -1    0    0  501    0  0.00000000000E+00 -0.00000000000E+00 -0.10709640621E+03  0.10709640621E+03  0.00000000000E+00 0. -1.
         25    2    1    2    0    0 -0.70011104612E+02  0.62385814818E+02  0.92922477732E+01  0.15660864515E+03  0.12508547961E+03 0.  0.
          5    1    3    3  502    0 -0.62679564164E+02  0.89767339701E+02  0.38078743165E+02  0.11599295721E+03  0.41800000000E+01 0. -1.
         -5    1    3    3    0  502 -0.73315404476E+01 -0.27381524883E+02 -0.28786495392E+02  0.40615687944E+02  0.41800000000E+01 0. -1.
        -11    1    1    2    0    0  0.36199238010E+02  0.26621203476E+01  0.56065931542E+02  0.66789672831E+02  0.00000000000E+00 0.  1.
         11    1    1    2    0    0  0.33811866601E+02 -0.65047935166E+02  0.19779587287E+02  0.75932261033E+02  0.00000000000E+00 0. -1.
</event>
<event>
 7    1  0.2686828E-009  0.1902261E+03  0.7561462E-02  0.1158258E+00
          1   -1    0    0  501    0  0.00000000000E+00  0.00000000000E+00  0.16471356597E+03  0.16471356597E+03  0.00000000000E+00 0. -1.
         -1   -1    0    0    0  501 -0.00000000000E+00 -0.00000000000E+00 -0.25654652223E+03  0.25654652223E+03  0.00000000000E+00 0.  1.
         25    2    1    2    0    0 -0.17312794139E+03  0.19639585241E+02 -0.58302046058E+02  0.22227536308E+03  0.12509280978E+03 0.  0.
          5    1    3    3  502    0 -0.12439877001E+03 -0.37779399798E+02 -0.54767762506E+01  0.13019141487E+03  0.41800000000E+01 0. -1.
         -5    1    3    3    0  502 -0.48729171379E+02  0.57418985039E+02 -0.52825269807E+02  0.92083948202E+02  0.41800000000E+01 0. -1.
        -11    1    1    2    0    0  0.33679491649E+02 -0.10169146678E+02 -0.46842319527E+02  0.58582613467E+02  0.00000000000E+00 0.  1.
         11    1    1    2    0    0  0.13944844974E+03 -0.94704385634E+01  0.13311409325E+02  0.14040211166E+03  0.00000000000E+00 0. -1.
</event>
<event>
 7    1  0.2686828E-009  0.6395006E+02  0.7561462E-02  0.1381965E+00
         -1   -1    0    0    0  501 -0.00000000000E+00  0.00000000000E+00  0.10169740552E+02  0.10169740552E+02  0.00000000000E+00 0.  1.
          1   -1    0    0  501    0  0.00000000000E+00 -0.00000000000E+00 -0.12273854515E+04  0.12273854515E+04  0.00000000000E+00 0. -1.
         25    2    1    2    0    0  0.17161376755E+02 -0.22587739901E+02 -0.76331540368E+03  0.77401711128E+03  0.12508942485E+03 0.  0.
          5    1    3    3  502    0  0.19630310162E+02 -0.11394042665E+02 -0.76130111056E+03  0.76165085612E+03  0.41800000000E+01 0.  1.
         -5    1    3    3    0  502 -0.24689334071E+01 -0.11193697236E+02 -0.20142931251E+01  0.12366255164E+02  0.41800000000E+01 0.  1.
        -11    1    1    2    0    0 -0.41535059187E+02 -0.18006676488E+02 -0.18199796904E+03  0.18754376096E+03  0.00000000000E+00 0.  1.
         11    1    1    2    0    0  0.24373682432E+02  0.40594416390E+02 -0.27190233824E+03  0.27599431983E+03  0.00000000000E+00 0. -1.
</event>
<event>
 7    1  0.2686828E-009  0.8414753E+02  0.7561462E-02  0.1317677E+00
         -1   -1    0    0    0  501 -0.00000000000E+00  0.00000000000E+00  0.16334030980E+03  0.16334030980E+03  0.00000000000E+00 0.  1.
          1   -1    0    0  501    0  0.00000000000E+00 -0.00000000000E+00 -0.84115999688E+02  0.84115999688E+02  0.00000000000E+00 0. -1.
         25    2    1    2    0    0 -0.40718499862E+02  0.19042527041E+02  0.47945854204E+02  0.14130006316E+03  0.12508512640E+03 0.  0.
          5    1    3    3  502    0 -0.73093040279E+02 -0.11109578892E+02 -0.24744168552E+01  0.74091905220E+02  0.41800000000E+01 0.  1.
         -5    1    3    3    0  502  0.32374540417E+02  0.30152105932E+02  0.50420271059E+02  0.67208157935E+02  0.41800000000E+01 0.  1.
        -11    1    1    2    0    0  0.23175573662E+02  0.96695884323E+00 -0.30833247164E+02  0.38584081622E+02  0.00000000000E+00 0. -1.
         11    1    1    2    0    0  0.17542926200E+02 -0.20009485884E+02  0.62111703068E+02  0.67572164706E+02  0.00000000000E+00 0.  1.
</event>
<event>
 7    1  0.2686828E-009  0.1129534E+03  0.7561462E-02  0.1255196E+00
          1   -1    0    0  501    0  0.00000000000E+00  0.00000000000E+00  0.51737643629E+03  0.51737643629E+03  0.00000000000E+00 0. -1.
         -1   -1    0    0    0  501 -0.00000000000E+00 -0.00000000000E+00 -0.85890652771E+02  0.85890652771E+02  0.00000000000E+00 0.  1.
         25    2    1    2    0    0 -0.35152070333E+02 -0.26522535271E+01  0.47756224538E+03  0.49492988633E+03  0.12508873523E+03 0.  0.
          5    1    3    3  502    0  0.43086994494E+02  0.18719182142E+02  0.21416633544E+03  0.21929794461E+03  0.41800000000E+01 0.  1.
         -5    1    3    3    0  502 -0.78239064827E+02 -0.21371435669E+02  0.26339590993E+03  0.27563194172E+03  0.41800000000E+01 0.  1.
        -11    1    1    2    0    0  0.63274220568E+02 -0.14059629984E+02 -0.25276914015E+02  0.69571708085E+02  0.00000000000E+00 0. -1.
         11    1    1    2    0    0 -0.28122150235E+02  0.16711883511E+02 -0.20799547842E+02  0.38765494641E+02  0.00000000000E+00 0.  1.
</event>
<event>
 7    1  0.2686828E-009  0.1446988E+03  0.7561462E-02  0.1207143E+00
         -4   -1    0    0    0  501 -0.00000000000E+00  0.00000000000E+00  0.37667964491E+03  0.37667964491E+03  0.00000000000E+00 0.  1.
          4   -1    0    0  501    0  0.00000000000E+00 -0.00000000000E+00 -0.73283986534E+02  0.73283986534E+02  0.00000000000E+00 0. -1.
         25    2    1    2    0    0  0.35770207258E+02 -0.95026469224E+02  0.62200214099E+02  0.17270275773E+03  0.12509131989E+03 0.  0.
          5    1    3    3  502    0 -0.41253943589E+02 -0.22351477418E+02 -0.47530772405E+01  0.47344910473E+02  0.41800000000E+01 0. -1.
         -5    1    3    3    0  502  0.77024150847E+02 -0.72674991805E+02  0.66953291339E+02  0.12535784726E+03  0.41800000000E+01 0. -1.
        -11    1    1    2    0    0  0.26134925874E+02  0.43134665106E+01  0.56046984513E+02  0.61991167248E+02  0.00000000000E+00 0. -1.
         11    1    1    2    0    0 -0.61905133132E+02  0.90713002713E+02  0.18514845976E+03  0.21526970646E+03  0.00000000000E+00 0.  1.
</event>
<event>
 7    1  0.2686828E-009  0.1452290E+03  0.7561462E-02  0.1206461E+00
          2   -1    0    0  501    0  0.00000000000E+00  0.00000000000E+00  0.19969730324E+03  0.19969730324E+03  0.00000000000E+00 0.  1.
         -2   -1    0    0    0  501 -0.00000000000E+00 -0.00000000000E+00 -0.22941484251E+03  0.22941484251E+03  0.00000000000E+00 0. -1.
         25    2    1    2    0    0  0.66734108488E+02  0.75586570088E+02  0.13923910009E+03  0.21260811791E+03  0.12509162241E+03 0.  0.
          5    1    3    3  502    0  0.23559532558E+02 -0.31521945016E+02  0.62205734317E+02  0.73727270219E+02  0.41800000000E+01 0. -1.
         -5    1    3    3    0  502  0.43174575930E+02  0.10710851510E+03  0.77033365769E+02  0.13888084769E+03  0.41800000000E+01 0. -1.
        -11    1    1    2    0    0 -0.64298838868E+02 -0.95573824022E+02 -0.14596145873E+03  0.18593935558E+03  0.00000000000E+00 0.  1.
         11    1    1    2    0    0 -0.24352696199E+01  0.19987253935E+02 -0.22995180622E+02  0.30564672251E+02  0.00000000000E+00 0. -1.
</event>
<event>
 7    1  0.2686828E-009  0.1026270E+03  0.7561462E-02  0.1274867E+00
         -2   -1    0    0    0  501 -0.00000000000E+00  0.00000000000E+00  0.22855379458E+02  0.22855379458E+02  0.00000000000E+00 0. -1.
          2   -1    0    0  501    0  0.00000000000E+00 -0.00000000000E+00 -0.64558120201E+03  0.64558120201E+03  0.00000000000E+00 0.  1.
         25    2    1    2    0    0  0.34716385025E+02  0.19116074706E+02 -0.24433449667E+03  0.27733443841E+03  0.12507754700E+03 0.  0.
          5    1    3    3  502    0  0.24231582059E+02  0.61197464483E+02 -0.64325569285E+02  0.92127902897E+02  0.41800000000E+01 0. -1.
         -5    1    3    3    0  502  0.10484802966E+02 -0.42081389776E+02 -0.18000892739E+03  0.18520653552E+03  0.41800000000E+01 0. -1.
        -11    1    1    2    0    0  0.11672483997E+02 -0.42294171207E+02 -0.22333852395E+03  0.22760742536E+03  0.00000000000E+00 0. -1.
         11    1    1    2    0    0 -0.46388869022E+02  0.23178096501E+02 -0.15505280193E+03  0.16349471770E+03  0.00000000000E+00 0.  1.
</event>
<event>
 7    1  0.2686828E-009  0.1052122E+03  0.7561462E-02  0.1269702E+00
         -2   -1    0    0    0  501 -0.00000000000E+00  0.00000000000E+00  0.12603269115E+03  0.12603269115E+03  0.00000000000E+00 0.  1.
          2   -1    0    0  501    0  0.00000000000E+00 -0.00000000000E+00 -0.11249979357E+03  0.11249979357E+03  0.00000000000E+00 0. -1.
         25    2    1    2    0    0 -0.39523930576E+02 -0.79481571245E+01  0.34900605616E+02  0.13598134622E+03  0.12509020728E+03 0.  0.
          5    1    3    3  502    0 -0.67771436356E+02 -0.29928549579E+02 -0.13721594598E+02  0.75461514853E+02  0.41800000000E+01 0. -1.
         -5    1    3    3    0  502  0.28247505780E+02  0.21980392454E+02  0.48622200214E+02  0.60519831369E+02  0.41800000000E+01 0. -1.
        -11    1    1    2    0    0  0.27212446304E+02 -0.41279419577E+02 -0.80947703033E+01  0.50100229747E+02  0.00000000000E+00 0. -1.
         11    1    1    2    0    0  0.12311484272E+02  0.49227576701E+02 -0.13272937726E+02  0.52450908750E+02  0.00000000000E+00 0.  1.
</event>
<event>
 7    1  0.2686828E-009  0.1457575E+03  0.7561462E-02  0.1205785E+00
          2   -1    0    0  501    0  0.00000000000E+00  0.00000000000E+00  0.28439084629E+03  0.28439084629E+03  0.00000000000E+00 0. -1.
         -2   -1    0    0    0  501 -0.00000000000E+00 -0.00000000000E+00 -0.77752872235E+02  0.77752872235E+02  0.00000000000E+00 0.  1.
         25    2    1    2    0    0 -0.10055637397E+03 -0.21842828723E+02  0.10933572153E+03  0.19542291810E+03  0.12508846232E+03 0.  0.
          5    1    3    3  502    0 -0.11184755578E+03  0.21550383402E+02  0.94341244305E+02  0.14795958075E+03  0.41800000000E+01 0. -1.
         -5    1    3    3    0  502  0.11291181812E+02 -0.43393212125E+02  0.14994477229E+02  0.47463337353E+02  0.41800000000E+01 0. -1.
        -11    1    1    2    0    0 -0.14936153712E+02  0.51997801053E+01  0.24581200209E+02  0.29229468086E+02  0.00000000000E+00 0. -1.
         11    1    1    2    0    0  0.11549252768E+03  0.16643048618E+02  0.72721052312E+02  0.13749133233E+03  0.00000000000E+00 0.  1.
</event>
<event>
 7    1  0.2686828E-009  0.1043334E+03  0.7561462E-02  0.1271439E+00
         -2   -1    0    0    0  501 -0.00000000000E+00  0.00000000000E+00  0.43071920836E+02  0.43071920836E+02  0.00000000000E+00 0. -1.
          2   -1    0    0  501    0  0.00000000000E+00 -0.00000000000E+00 -0.34437779825E+03  0.34437779825E+03  0.00000000000E+00 0.  1.
         25    2    1    2    0    0 -0.67374279809E+01 -0.31407135889E+01 -0.15743161715E+03  0.20121128406E+03  0.12508401072E+03 0.  0.
          5    1    3    3  502    0 -0.51340502157E+02  0.19246852599E+02 -0.13607685987E+03  0.14676741017E+03  0.41800000000E+01 0.  1.
         -5    1    3    3    0  502  0.44603074176E+02 -0.22387566188E+02 -0.21354757282E+02  0.54443873892E+02  0.41800000000E+01 0.  1.
        -11    1    1    2    0    0  0.17630989836E+02 -0.48090459039E+02 -0.11622696747E+03  0.12701280259E+03  0.00000000000E+00 0.  1.
         11    1    1    2    0    0 -0.10893561855E+02  0.51231172628E+02 -0.27647292794E+02  0.59225632437E+02  0.00000000000E+00 0. -1.
</event>
<event>
 7    1  0.2686828E-009  0.1219385E+03  0.7561462E-02  0.1239933E+00
          1   -1    0    0  501    0  0.00000000000E+00  0.00000000000E+00  0.64588567472E+03  0.64588567472E+03  0.00000000000E+00 0. -1.
         -1   -1    0    0    0  501 -0.00000000000E+00 -0.00000000000E+00 -0.35917258148E+02  0.35917258148E+02  0.00000000000E+00 0.  1.
         25    2    1    2    0    0 -0.55519633292E+02 -0.21743357034E+00  0.53208802430E+03  0.54940541622E+03  0.12508464655E+03 0.  0.
          5    1    3    3  502    0  0.30658031324E+02  0.32192656424E+02  0.16781755092E+03  0.17365622595E+03  0.41800000000E+01 0.  1.
         -5    1    3    3    0  502 -0.86177664616E+02 -0.32410089994E+02  0.36427047338E+03  0.37574919027E+03  0.41800000000E+01 0.  1.
        -11    1    1    2    0    0  0.12070248710E+02  0.43851604710E+02  0.32242364489E+02  0.55751450271E+02  0.00000000000E+00 0. -1.
         11    1    1    2    0    0  0.43449384582E+02 -0.43634171139E+02  0.45638027779E+02  0.76646066378E+02  0.00000000000E+00 0.  1.
</event>
<event>
 7    1  0.2686828E-009  0.8331001E+02  0.7561462E-02  0.1319912E+00
          1   -1    0    0  501    0  0.00000000000E+00  0.00000000000E+00  0.32891771773E+03  0.32891771773E+03  0.00000000000E+00 0. -1.
         -1   -1    0    0    0  501 -0.00000000000E+00 -0.00000000000E+00 -0.11330117578E+03  0.11330117578E+03  0.00000000000E+00 0.  1.
         25    2    1    2    0    0  0.52344655945E+02  0.14501554860E+02 -0.58542763174E+02  0.14839545968E+03  0.12507477457E+03 0.  0.
          5    1    3    3  502    0  0.44620761974E+02 -0.34019250202E+01 -0.95977862397E+02  0.10598022440E+03  0.41800000000E+01 0. -1.
         -5    1    3    3    0  502  0.77238939702E+01  0.17903479880E+02  0.37435099223E+02  0.42415235278E+02  0.41800000000E+01 0. -1.
        -11    1    1    2    0    0  0.65034827207E+01 -0.37863277934E+02  0.67324328418E+02  0.77514439302E+02  0.00000000000E+00 0.  1.
         11    1    1    2    0    0 -0.58848138665E+02  0.23361723074E+02  0.20683497670E+03  0.21630899453E+03  0.00000000000E+00 0. -1.
</event>
<event>
 7    1  0.2686828E-009  0.1370015E+03  0.7561462E-02  0.1217422E+00
          3   -1    0    0  501    0  0.00000000000E+00  0.00000000000E+00  0.37912469812E+03  0.37912469812E+03  0.00000000000E+00 0. -1.
         -3   -1    0    0    0  501 -0.00000000000E+00 -0.00000000000E+00 -0.87961456350E+02  0.87961456350E+02  0.00000000000E+00 0.  1.
         25    2    1    2    0    0 -0.10775104176E+03 -0.11760712608E+02  0.27731361023E+02  0.16782476088E+03  0.12509005003E+03 0.  0.
          5    1    3    3  502    0 -0.29745499799E+02  0.39383107556E+02 -0.30134269851E+02  0.57977327797E+02  0.41800000000E+01 0. -1.
         -5    1    3    3    0  502 -0.78005541961E+02 -0.51143820163E+02  0.57865630874E+02  0.10984743308E+03  0.41800000000E+01 0. -1.
        -11    1    1    2    0    0  0.62024515554E+02 -0.30248826126E+02  0.80242639158E+02  0.10583436659E+03  0.00000000000E+00 0.  1.
         11    1    1    2    0    0  0.45726526206E+02  0.42009538733E+02  0.18318924159E+03  0.19342702701E+03  0.00000000000E+00 0. -1.
</event>
<event>
 7    1  0.2686828E-009  0.2387147E+03  0.7561462E-02  0.1120652E+00
         -2   -1    0    0    0  501 -0.00000000000E+00  0.00000000000E+00  0.88369330863E+02  0.88369330863E+02  0.00000000000E+00 0. -1.
          2   -1    0    0  501    0  0.00000000000E+00 -0.00000000000E+00 -0.70497376068E+03  0.70497376068E+03  0.00000000000E+00 0.  1.
         25    2    1    2    0    0 -0.18512316709E+03  0.10988116862E+03 -0.42093081501E+03  0.48905432469E+03  0.12508766231E+03 0.  0.
          5    1    3    3  502    0 -0.18973888594E+03  0.60883238379E+02 -0.32784420958E+03  0.38367552920E+03  0.41800000000E+01 0.  1.
         -5    1    3    3    0  502  0.46157188470E+01  0.48997930237E+02 -0.93086605429E+02  0.10537879549E+03  0.41800000000E+01 0.  1.
        -11    1    1    2    0    0  0.71072109884E+02 -0.87107818788E+02 -0.67132021266E+02  0.13094168617E+03  0.00000000000E+00 0. -1.
         11    1    1    2    0    0  0.11405105721E+03 -0.22773349828E+02 -0.12854159354E+03  0.17334708069E+03  0.00000000000E+00 0.  1.
</event>
<event>
 7    1  0.2686828E-009  0.1338480E+03  0.7561462E-02  0.1221855E+00
          1   -1    0    0  501    0  0.00000000000E+00  0.00000000000E+00  0.11076486377E+04  0.11076486377E+04  0.00000000000E+00 0. -1.
         -1   -1    0    0    0  501 -0.00000000000E+00 -0.00000000000E+00 -0.25654472096E+02  0.25654472096E+02  0.00000000000E+00 0.  1.
         25    2    1    2    0    0  0.11871644992E+03  0.15353304233E+02  0.73277345045E+03  0.75294967854E+03  0.12508784636E+03 0.  0.
          5    1    3    3  502    0  0.81799917870E+02  0.23581743935E+02  0.69180272751E+03  0.69703357982E+03  0.41800000000E+01 0. -1.
         -5    1    3    3    0  502  0.36916532046E+02 -0.82284397020E+01  0.40970722939E+02  0.55916098723E+02  0.41800000000E+01 0. -1.
        -11    1    1    2    0    0 -0.10644784464E+03 -0.42500489212E+02  0.22380444792E+03  0.25144754148E+03  0.00000000000E+00 0.  1.
         11    1    1    2    0    0 -0.12268605275E+02  0.27147184979E+02  0.12541626724E+03  0.12890588976E+03  0.00000000000E+00 0. -1.
</event>
<event>
 7    1  0.2686828E-009  0.1243761E+03  0.7561462E-02  0.1236048E+00
          2   -1    0    0  501    0  0.00000000000E+00  0.00000000000E+00  0.41382735306E+03  0.41382735306E+03  0.00000000000E+00 0. -1.
         -2   -1    0    0    0  501 -0.00000000000E+00 -0.00000000000E+00 -0.51362688542E+02  0.51362688542E+02  0.00000000000E+00 0.  1.
         25    2    1    2    0    0 -0.52208052023E+02 -0.58216125540E+02  0.10598893198E+03  0.18164887540E+03  0.12509141562E+03 0.  0.
          5    1    3    3  502    0 -0.82925274888E+02 -0.74040357521E+02  0.91114731011E+02  0.14379826968E+03  0.41800000000E+01 0.  1.
         -5    1    3    3    0  502  0.30717222865E+02  0.15824231981E+02  0.14874200973E+02  0.37850605714E+02  0.41800000000E+01 0.  1.
        -11    1    1    2    0    0  0.21389707280E+02  0.67261496190E+02  0.23380901645E+03  0.24422998305E+03  0.00000000000E+00 0. -1.
         11    1    1    2    0    0  0.30818344743E+02 -0.90453706499E+01  0.22666716083E+02  0.39311183153E+02  0.00000000000E+00 0.  1.
</event>
<event>
 7    1  0.2686828E-009  0.9689023E+02  0.7561462E-02  0.1286975E+00
         -1   -1    0    0    0  501 -0.00000000000E+00  0.00000000000E+00  0.87081135047E+02  0.87081135047E+02  0.00000000000E+00 0.  1.
          1   -1    0    0  501    0  0.00000000000E+00 -0.00000000000E+00 -0.16514871067E+03  0.16514871067E+03  0.00000000000E+00 0. -1.
         25    2    1    2    0    0 -0.45962816424E+02 -0.29087818013E+02 -0.65852369167E+02  0.15145344300E+03  0.12507169633E+03 0.  0.
          5    1    3    3  502    0 -0.65956884514E+02  0.29574233746E+02 -0.47825881679E+02  0.86774035719E+02  0.41800000000E+01 0. -1.
         -5    1    3    3    0  502  0.19994068091E+02 -0.58662051758E+02 -0.18026487488E+02  0.64679407283E+02  0.41800000000E+01 0. -1.
        -11    1    1    2    0    0  0.30365507191E+02  0.53159091181E+01  0.34389233628E+02  0.46183788349E+02  0.00000000000E+00 0.  1.
         11    1    1    2    0    0  0.15597309233E+02  0.23771908895E+02 -0.46604440085E+02  0.54592614367E+02  0.00000000000E+00 0. -1.
</event>
<event>
 7    1  0.2686828E-009  0.1016233E+03  0.7561462E-02  0.1276919E+00
          1   -1    0    0  501    0  0.00000000000E+00  0.00000000000E+00  0.37466164043E+03  0.37466164043E+03  0.00000000000E+00 0. -1.
         -1   -1    0    0    0  501 -0.00000000000E+00 -0.00000000000E+00 -0.66658285927E+02  0.66658285927E+02  0.00000000000E+00 0.  1.
         25    2    1    2    0    0  0.89579301423E+02  0.13989174353E+02  0.26348002957E+03  0.30543377144E+03  0.12509162447E+03 0.  0.
          5    1    3    3  502    0  0.87921153638E+02  0.16519045117E+02  0.74806569892E+02  0.11668977422E+03  0.41800000000E+01 0.  1.
         -5    1    3    3    0  502  0.16581477851E+01 -0.25298707640E+01  0.18867345968E+03  0.18874399722E+03  0.41800000000E+01 0.  1.
        -11    1    1    2    0    0 -0.34381741565E+02 -0.35378423234E+02  0.57004990470E+02  0.75387704051E+02  0.00000000000E+00 0. -1.
         11    1    1    2    0    0 -0.55197559858E+02  0.21389248881E+02 -0.12481665540E+02  0.60498450861E+02  0.00000000000E+00 0.  1.
</event>
<event>
 7    1  0.2686828E-009  0.1649292E+03  0.7561462E-02  0.1183241E+00
         -2   -1    0    0    0  501 -0.00000000000E+00  0.00000000000E+00  0.10755873781E+03  0.10755873781E+03  0.00000000000E+00 0.  1.
          2   -1    0    0  501    0  0.00000000000E+00 -0.00000000000E+00 -0.34307783722E+03  0.34307783722E+03  0.00000000000E+00 0. -1.
         25    2    1    2    0    0  0.26087296083E+02  0.15248052640E+03 -0.90286882089E+02  0.21847894669E+03  0.12510184300E+03 0.  0.
          5    1    3    3  502    0 -0.57498892536E+01  0.25922714584E+02 -0.83516667846E+02  0.87735708614E+02  0.41800000000E+01 0.  1.
         -5    1    3    3    0  502  0.31837185336E+02  0.12655781181E+03 -0.67702142422E+01  0.13074323807E+03  0.41800000000E+01 0.  1.
        -11    1    1    2    0    0 -0.42656156277E+02 -0.39224183062E+02 -0.17259916873E+02  0.60464774337E+02  0.00000000000E+00 0.  1.
         11    1    1    2    0    0  0.16568860194E+02 -0.11325634334E+03 -0.12797230045E+03  0.17169285401E+03  0.00000000000E+00 0. -1.
</event>
<event>
 7    1  0.2686828E-009  0.1122828E+03  0.7561462E-02  0.1256400E+00
          2   -1    0    0  501    0  0.00000000000E+00  0.00000000000E+00  0.20242206583E+03  0.20242206583E+03  0.00000000000E+00 0. -1.
         -2   -1    0    0    0  501 -0.00000000000E+00 -0.00000000000E+00 -0.96688798449E+02  0.96688798449E+02  0.00000000000E+00 0.  1.
         25    2    1    2    0    0  0.44970920235E+02 -0.60066690930E+02  0.11764358700E+02  0.14634393328E+03  0.12509098947E+03 0.  0.
          5    1    3    3  502    0  0.84838570617E+02 -0.16931272674E+02  0.18717556252E+01  0.86632712804E+02  0.41800000000E+01 0. -1.
         -5    1    3    3    0  502 -0.39867650382E+02 -0.43135418257E+02  0.98926030746E+01  0.59711220476E+02  0.41800000000E+01 0. -1.
        -11    1    1    2    0    0 -0.12693778601E+01  0.19177325570E+02  0.90825380556E+02  0.92836581633E+02  0.00000000000E+00 0. -1.
         11    1    1    2    0    0 -0.43701542375E+02  0.40889365360E+02  0.31435281215E+01  0.59930349361E+02  0.00000000000E+00 0.  1.
</event>
<event>
 7    1  0.2686828E-009  0.1461006E+03  0.7561462E-02  0.1205348E+00
         -2   -1    0    0    0  501 -0.00000000000E+00  0.00000000000E+00  0.51956309424E+02  0.51956309424E+02  0.00000000000E+00 0.  1.
          2   -1    0    0  501    0  0.00000000000E+00 -0.00000000000E+00 -0.53554792290E+03  0.53554792290E+03  0.00000000000E+00 0. -1.
         25    2    1    2    0    0 -0.70648400489E+02  0.87737841461E+02 -0.16026157898E+03  0.23242390494E+03  0.12509185654E+03 0.  0.
          5    1    3    3  502    0 -0.73548558173E+02  0.11705579840E+03 -0.12666444610E+03  0.18754414055E+03  0.41800000000E+01 0. -1.
         -5    1    3    3    0  502  0.29001576845E+01 -0.29317956940E+02 -0.33597132884E+02  0.44879764391E+02  0.41800000000E+01 0. -1.
        -11    1    1    2    0    0  0.35362672439E+02 -0.80767996297E+02 -0.29881798477E+03  0.31155445086E+03  0.00000000000E+00 0. -1.
         11    1    1    2    0    0  0.35285728050E+02 -0.69698451644E+01 -0.24512049723E+02  0.43525876525E+02  0.00000000000E+00 0.  1.
</event>
<event>
 7    1  0.2686828E-009  0.1386713E+03  0.7561462E-02  0.1215128E+00
         -2   -1    0    0    0  501 -0.00000000000E+00  0.00000000000E+00  0.43715192407E+02  0.43715192407E+02  0.00000000000E+00 0. -1.
          2   -1    0    0  501    0  0.00000000000E+00 -0.00000000000E+00 -0.55977292257E+03  0.55977292257E+03  0.00000000000E+00 0.  1.
         25    2    1    2    0    0  0.27163360215E+02 -0.10736771877E+03 -0.23229737525E+03  0.28613723979E+03  0.12508706678E+03 0.  0.
          5    1    3    3  502    0 -0.29011021078E+02 -0.59968583957E+02 -0.18965999061E+03  0.20106281318E+03  0.41800000000E+01 0.  1.
         -5    1    3    3    0  502  0.56174381293E+02 -0.47399134809E+02 -0.42637384644E+02  0.85074426613E+02  0.41800000000E+01 0.  1.
        -11    1    1    2    0    0  0.27898384780E+02  0.22643543774E+02 -0.11673361821E+03  0.12213839515E+03  0.00000000000E+00 0.  1.
         11    1    1    2    0    0 -0.55061744995E+02  0.84724174992E+02 -0.16702673670E+03  0.19521248004E+03  0.00000000000E+00 0. -1.
</event>
<event>
 7    1  0.2686828E-009  0.9825814E+02  0.7561462E-02  0.1284002E+00
          2   -1    0    0  501    0  0.00000000000E+00  0.00000000000E+00  0.76387573292E+02  0.76387573292E+02  0.00000000000E+00 0. -1.
         -2   -1    0    0    0  501 -0.00000000000E+00 -0.00000000000E+00 -0.18350828652E+03  0.18350828652E+03  0.00000000000E+00 0.  1.
         25    2    1    2    0    0 -0.29957491370E+02 -0.34460797366E+02 -0.51211860884E+02  0.14267648810E+03  0.12509567426E+03 0.  0.
          5    1    3    3  502    0 -0.38527481240E+01 -0.77760300010E+02 -0.48604823242E+02  0.91877141707E+02  0.41800000000E+01 0.  1.
         -5    1    3    3    0  502 -0.26104743246E+02  0.43299502644E+02 -0.26070376417E+01  0.50799346398E+02  0.41800000000E+01 0.  1.
        -11    1    1    2    0    0 -0.14159881411E+02  0.64676151176E+01 -0.62633808481E+02  0.64539338792E+02  0.00000000000E+00 0.  1.
         11    1    1    2    0    0  0.44117372781E+02  0.27993182248E+02  0.67249561320E+01  0.52680032921E+02  0.00000000000E+00 0. -1.
</event>
<event>
 7    1  0.2921046E-009  0.9562780E+02  0.7561462E-02  0.1289768E+00
          3   -1    0    0  501    0  0.00000000000E+00  0.00000000000E+00  0.13441480310E+03  0.13441480310E+03  0.00000000000E+00 0. -1.
         -3   -1    0    0    0  501 -0.00000000000E+00 -0.00000000000E+00 -0.15448493161E+03  0.15448493161E+03  0.00000000000E+00 0.  1.
         25    2    1    2    0    0 -0.64133109707E+02 -0.41822549596E+02  0.44872980158E+02  0.15338464284E+03  0.12510428808E+03 0.  0.
          5    1    3    3  502    0 -0.71543714343E+02 -0.69031453994E+01 -0.23838221140E+02  0.75841213502E+02  0.41800000000E+01 0. -1.
         -5    1    3    3    0  502  0.74106046357E+01 -0.34919404196E+02  0.68711201298E+02  0.77543429343E+02  0.41800000000E+01 0. -1.
        -11    1    1    2    0    0  0.43668089906E+02  0.89207200929E+01  0.14712429241E+02  0.46935454586E+02  0.00000000000E+00 0. -1.
         11    1    1    2    0    0  0.20465019800E+02  0.32901829503E+02 -0.79655537915E+02  0.88579637280E+02  0.00000000000E+00 0.  1.
</event>
<event>
 7    1  0.2686828E-009  0.1506061E+03  0.7561462E-02  0.1199730E+00
         -2   -1    0    0    0  501 -0.00000000000E+00  0.00000000000E+00  0.35880924614E+02  0.35880924614E+02  0.00000000000E+00 0. -1.
          2   -1    0    0  501    0  0.00000000000E+00 -0.00000000000E+00 -0.64153333546E+03  0.64153333546E+03  0.00000000000E+00 0.  1.
         25    2    1    2    0    0 -0.37494764085E+02 -0.94486446818E+02 -0.35505279399E+03  0.38992717600E+03  0.12508864895E+03 0.  0.
          5    1    3    3  502    0 -0.78326736202E+02 -0.89493751861E+02 -0.27997428056E+03  0.30421584344E+03  0.41800000000E+01 0.  1.
         -5    1    3    3    0  502  0.40831972117E+02 -0.49926949569E+01 -0.75078513433E+02  0.85711332560E+02  0.41800000000E+01 0.  1.
        -11    1    1    2    0    0 -0.29960433273E+02  0.55181960383E+02 -0.10908899553E+03  0.12586931818E+03  0.00000000000E+00 0.  1.
         11    1    1    2    0    0  0.67455197357E+02  0.39304486435E+02 -0.14151062132E+03  0.16161776589E+03  0.00000000000E+00 0. -1.
</event>
<event>
 7    1  0.2686828E-009  0.1876345E+03  0.7561462E-02  0.1160612E+00
          2   -1    0    0  501    0  0.00000000000E+00  0.00000000000E+00  0.58831832290E+03  0.58831832290E+03  0.00000000000E+00 0. -1.
         -2   -1    0    0    0  501 -0.00000000000E+00 -0.00000000000E+00 -0.66316861204E+02  0.66316861204E+02  0.00000000000E+00 0.  1.
         25    2    1    2    0    0  0.65465528417E+01  0.16340166657E+03  0.23880012697E+03  0.31530428352E+03  0.12509327949E+03 0.  0.
          5    1    3    3  502    0 -0.54474063433E+02  0.80567608886E+02  0.79792210985E+02  0.12586831421E+03  0.41800000000E+01 0.  1.
         -5    1    3    3    0  502  0.61020616274E+02  0.82834057687E+02  0.15900791599E+03  0.18943596931E+03  0.41800000000E+01 0.  1.
        -11    1    1    2    0    0  0.27243531080E+02 -0.92241535109E+02  0.21342712956E+03  0.23409795047E+03  0.00000000000E+00 0. -1.
         11    1    1    2    0    0 -0.33790083922E+02 -0.71160131463E+02  0.69774205170E+02  0.10523295011E+03  0.00000000000E+00 0.  1.
</event>
<event>
 7    1  0.2686828E-009  0.1105356E+03  0.7561462E-02  0.1259581E+00
         -1   -1    0    0    0  501 -0.00000000000E+00  0.00000000000E+00  0.13010477161E+03  0.13010477161E+03  0.00000000000E+00 0.  1.
          1   -1    0    0  501    0  0.00000000000E+00 -0.00000000000E+00 -0.10502745328E+03  0.10502745328E+03  0.00000000000E+00 0. -1.
         25    2    1    2    0    0 -0.23594115357E+02  0.82857320921E+01 -0.22023589823E+02  0.12945043100E+03  0.12508812870E+03 0.  0.
          5    1    3    3  502    0 -0.38504576793E+02 -0.52223337312E+02 -0.13608552615E+02  0.66426986220E+02  0.41800000000E+01 0.  1.
         -5    1    3    3    0  502  0.14910461436E+02  0.60509069404E+02 -0.84150372079E+01  0.63023444777E+02  0.41800000000E+01 0.  1.
        -11    1    1    2    0    0  0.48349651347E+02 -0.33059539195E+02  0.21887421213E+02  0.62527442971E+02  0.00000000000E+00 0.  1.
         11    1    1    2    0    0 -0.24755535989E+02  0.24773807103E+02  0.25213486934E+02  0.43154350926E+02  0.00000000000E+00 0. -1.
</event>
<event>
 7    1  0.2686828E-009  0.1016858E+03  0.7561462E-02  0.1276790E+00
         -1   -1    0    0    0  501 -0.00000000000E+00  0.00000000000E+00  0.78415545095E+02  0.78415545095E+02  0.00000000000E+00 0.  1.
          1   -1    0    0  501    0  0.00000000000E+00 -0.00000000000E+00 -0.20866102764E+03  0.20866102764E+03  0.00000000000E+00 0. -1.
         25    2    1    2    0    0  0.73314979375E+01 -0.43050645490E+02 -0.14821323983E+02  0.13331798247E+03  0.12508758478E+03 0.  0.
          5    1    3    3  502    0 -0.53069113029E+02 -0.20097756671E+02 -0.33369363684E+02  0.65963909933E+02  0.41800000000E+01 0. -1.
         -5    1    3    3    0  502  0.60400610967E+02 -0.22952888819E+02  0.18548039702E+02  0.67354072535E+02  0.41800000000E+01 0. -1.
        -11    1    1    2    0    0  0.30060342093E+02  0.96165506480E+01 -0.94104714672E+02  0.99256231727E+02  0.00000000000E+00 0. -1.
         11    1    1    2    0    0 -0.37391840030E+02  0.33434094842E+02 -0.21319443892E+02  0.54502358542E+02  0.00000000000E+00 0.  1.
</event>
<event>
 7    1  0.2686828E-009  0.1085337E+03  0.7561462E-02  0.1263310E+00
         -2   -1    0    0    0  501 -0.00000000000E+00  0.00000000000E+00  0.45133664936E+02  0.45133664936E+02  0.00000000000E+00 0.  1.
          2   -1    0    0  501    0  0.00000000000E+00 -0.00000000000E+00 -0.39142832939E+03  0.39142832939E+03  0.00000000000E+00 0. -1.
         25    2    1    2    0    0 -0.59640828012E+02  0.39891967375E+02 -0.17503220157E+03  0.22678285506E+03  0.12508314968E+03 0.  0.
          5    1    3    3  502    0 -0.13307174507E+02 -0.39222616946E+02 -0.19000798433E+02  0.45760215412E+02  0.41800000000E+01 0.  1.
         -5    1    3    3    0  502 -0.46333653505E+02  0.79114584321E+02 -0.15603140314E+03  0.18102263965E+03  0.41800000000E+01 0.  1.
        -11    1    1    2    0    0  0.28466171501E+02 -0.43803225070E+02 -0.21059660282E+02  0.56325435974E+02  0.00000000000E+00 0.  1.
         11    1    1    2    0    0  0.31174656511E+02  0.39112576957E+01 -0.15020280260E+03  0.15345370329E+03  0.00000000000E+00 0. -1.
</event>
<event>
 7    1  0.2686828E-009  0.7922199E+02  0.7561462E-02  0.1331274E+00
         -2   -1    0    0    0  501 -0.00000000000E+00  0.00000000000E+00  0.10537754587E+02  0.10537754587E+02  0.00000000000E+00 0. -1.
          2   -1    0    0  501    0  0.00000000000E+00 -0.00000000000E+00 -0.16315817298E+04  0.16315817298E+04  0.00000000000E+00 0.  1.
         25    2    1    2    0    0  0.41696516766E+02  0.32031893229E+02 -0.12214785711E+04  0.12289922591E+04  0.12508969379E+03 0.  0.
          5    1    3    3  502    0  0.20504635635E+02  0.10468195543E+02 -0.34880537421E+02  0.42001755811E+02  0.41800000000E+01 0.  1.
         -5    1    3    3    0  502  0.21191881130E+02  0.21563697687E+02 -0.11865980337E+04  0.11869905033E+04  0.41800000000E+01 0.  1.
        -11    1    1    2    0    0 -0.14158260935E+02 -0.62133412083E+02 -0.22437649276E+03  0.23325056860E+03  0.00000000000E+00 0. -1.
         11    1    1    2    0    0 -0.27538255831E+02  0.30101518854E+02 -0.17518891135E+03  0.17987665672E+03  0.00000000000E+00 0.  1.
</event>
<event>
 7    1  0.2686828E-009  0.1197848E+03  0.7561462E-02  0.1243452E+00
          2   -1    0    0  501    0  0.00000000000E+00  0.00000000000E+00  0.43967824230E+03  0.43967824230E+03  0.00000000000E+00 0. -1.
         -2   -1    0    0    0  501 -0.00000000000E+00 -0.00000000000E+00 -0.37898762952E+02  0.37898762952E+02  0.00000000000E+00 0.  1.
         25    2    1    2    0    0 -0.64954069386E+02 -0.28012936555E+01  0.27106689743E+03  0.30553519826E+03  0.12509043175E+03 0.  0.
          5    1    3    3  502    0 -0.19787217651E+02  0.52562722184E+02  0.58332792819E+02  0.81083665826E+02  0.41800000000E+01 0.  1.
         -5    1    3    3    0  502 -0.45166851736E+02 -0.55364015839E+02  0.21273410461E+03  0.22445153243E+03  0.41800000000E+01 0.  1.
        -11    1    1    2    0    0  0.28443712052E+02 -0.43954750128E+02  0.56392917171E+02  0.76949502411E+02  0.00000000000E+00 0. -1.
         11    1    1    2    0    0  0.36510357334E+02  0.46756043784E+02  0.74319664738E+02  0.95092304577E+02  0.00000000000E+00 0.  1.
</event>
<event>
 7    1  0.2686828E-009  0.2277042E+03  0.7561462E-02  0.1128266E+00
          1   -1    0    0  501    0  0.00000000000E+00  0.00000000000E+00  0.74659770738E+03  0.74659770738E+03  0.00000000000E+00 0. -1.
         -1   -1    0    0    0  501 -0.00000000000E+00 -0.00000000000E+00 -0.71478996086E+02  0.71478996086E+02  0.00000000000E+00 0.  1.
         25    2    1    2    0    0  0.20048026751E+03 -0.32712666586E+01  0.28743407226E+03  0.37211523272E+03  0.12509341179E+03 0.  0.
          5    1    3    3  502    0  0.13936392706E+03  0.56670064437E+02  0.18877627672E+03  0.24142857209E+03  0.41800000000E+01 0.  1.
         -5    1    3    3    0  502  0.61116340456E+02 -0.59941331095E+02  0.98657795547E+02  0.13068666063E+03  0.41800000000E+01 0.  1.
        -11    1    1    2    0    0 -0.13491724124E+03  0.44123729934E+02  0.22807385818E+03  0.26863962908E+03  0.00000000000E+00 0. -1.
         11    1    1    2    0    0 -0.65563026276E+02 -0.40852463275E+02  0.15961078085E+03  0.17732184167E+03  0.00000000000E+00 0.  1.
</event>
<event>
 7    1  0.2686828E-009  0.6658323E+02  0.7561462E-02  0.1372113E+00
          2   -1    0    0  501    0  0.00000000000E+00  0.00000000000E+00  0.13964326323E+03  0.13964326323E+03  0.00000000000E+00 0. -1.
         -2   -1    0    0    0  501 -0.00000000000E+00 -0.00000000000E+00 -0.88523674767E+02  0.88523674767E+02  0.00000000000E+00 0.  1.
         25    2    1    2    0    0  0.53994352614E+02  0.13045361643E+02  0.20586607197E+01  0.13688267177E+03  0.12508819357E+03 0.  0.
          5    1    3    3  502    0  0.24629046037E+02  0.10734006089E+02  0.63247581074E+02  0.68844300469E+02  0.41800000000E+01 0.  1.
         -5    1    3    3    0  502  0.29365306577E+02  0.23113555536E+01 -0.61188920354E+02  0.68038371298E+02  0.41800000000E+01 0.  1.
        -11    1    1    2    0    0 -0.24990017429E+02  0.20180543744E+02  0.27043940656E+02  0.41989642093E+02  0.00000000000E+00 0. -1.
         11    1    1    2    0    0 -0.29004335185E+02 -0.33225905387E+02  0.22016987085E+02  0.49294624135E+02  0.00000000000E+00 0.  1.
</event>
<event>
 7    1  0.3556898E-009  0.9325761E+02  0.7561462E-02  0.1295149E+00
          1   -1    0    0  501    0  0.00000000000E+00  0.00000000000E+00  0.17935262386E+03  0.17935262386E+03  0.00000000000E+00 0. -1.
         -1   -1    0    0    0  501 -0.00000000000E+00 -0.00000000000E+00 -0.84286972712E+02  0.84286972712E+02  0.00000000000E+00 0.  1.
         25    2    1    2    0    0 -0.20519929061E+02  0.50013906637E+02  0.77685970004E+02  0.15686029076E+03  0.12509029752E+03 0.  0.
          5    1    3    3  502    0  0.22594587378E+02 -0.31632764055E+02  0.52847855145E+01  0.39453117728E+02  0.41800000000E+01 0. -1.
         -5    1    3    3    0  502 -0.43114516438E+02  0.81646670692E+02  0.72401184490E+02  0.11740717303E+03  0.41800000000E+01 0. -1.
        -11    1    1    2    0    0  0.12932683193E+02 -0.18464966705E+02  0.53601281562E+02  0.58149004077E+02  0.00000000000E+00 0. -1.
         11    1    1    2    0    0  0.75872458674E+01 -0.31548939932E+02 -0.36221600417E+02  0.48630301741E+02  0.00000000000E+00 0.  1.
</event>
<event>
 7    1  0.2686828E-009  0.1258726E+03  0.7561462E-02  0.1233712E+00
         -2   -1    0    0    0  501 -0.00000000000E+00  0.00000000000E+00  0.21698616925E+02  0.21698616925E+02  0.00000000000E+00 0.  1.
          2   -1    0    0  501    0  0.00000000000E+00 -0.00000000000E+00 -0.11905243579E+04  0.11905243579E+04  0.00000000000E+00 0. -1.
         25    2    1    2    0    0 -0.60082400340E+02 -0.36039869458E+02 -0.98600643507E+03  0.99637590984E+03  0.12508995439E+03 0.  0.
          5    1    3    3  502    0 -0.91594400719E+02 -0.47437925429E+02 -0.59278638946E+03  0.60170845676E+03  0.41800000000E+01 0.  1.
         -5    1    3    3    0  502  0.31512000379E+02  0.11398055971E+02 -0.39322004562E+03  0.39466745308E+03  0.41800000000E+01 0.  1.
        -11    1    1    2    0    0  0.38209236522E+02 -0.27803632146E+02 -0.74137436545E+02  0.87916706112E+02  0.00000000000E+00 0. -1.
         11    1    1    2    0    0  0.21873163818E+02  0.63843501604E+02 -0.10868186932E+03  0.12793035883E+03  0.00000000000E+00 0.  1.
</event>
<event>
 7    1  0.2686828E-009  0.7866569E+02  0.7561462E-02  0.1332881E+00
         -1   -1    0    0    0  501 -0.00000000000E+00  0.00000000000E+00  0.27899069103E+02  0.27899069103E+02  0.00000000000E+00 0.  1.
          1   -1    0    0  501    0  0.00000000000E+00 -0.00000000000E+00 -0.64879863207E+03  0.64879863207E+03  0.00000000000E+00 0. -1.
         25    2    1    2    0    0 -0.21259124827E+02 -0.60227361924E+02 -0.46134557999E+03  0.48225207876E+03  0.12509211717E+03 0.  0.
          5    1    3    3  502    0 -0.13929401290E+02 -0.33249705072E+02 -0.45052658869E+03  0.45198589649E+03  0.41800000000E+01 0.  1.
         -5    1    3    3    0  502 -0.73297235364E+01 -0.26977656852E+02 -0.10818991296E+02  0.30266182267E+02  0.41800000000E+01 0.  1.
        -11    1    1    2    0    0  0.41454209009E+02  0.16516763467E+02 -0.24158894867E+02  0.50743542655E+02  0.00000000000E+00 0.  1.
         11    1    1    2    0    0 -0.20195084183E+02  0.43710598457E+02 -0.13539508811E+03  0.14370207976E+03  0.00000000000E+00 0. -1.
</event>
<event>
 7    1  0.2686828E-009  0.1057193E+03  0.7561462E-02  0.1268709E+00
          1   -1    0    0  501    0  0.00000000000E+00  0.00000000000E+00  0.93432768520E+02  0.93432768520E+02  0.00000000000E+00 0. -1.
         -1   -1    0    0    0  501 -0.00000000000E+00 -0.00000000000E+00 -0.13654724588E+03  0.13654724588E+03  0.00000000000E+00 0.  1.
         25    2    1    2    0    0  0.15405740146E+02 -0.89701241851E+01 -0.52464029162E+02  0.13681137831E+03  0.12508828451E+03 0.  0.
          5    1    3    3  502    0 -0.15949274740E+00  0.55177106016E+02 -0.42825973577E+02  0.69971957805E+02  0.41800000000E+01 0. -1.
         -5    1    3    3    0  502  0.15565232893E+02 -0.64147230201E+02 -0.96380555849E+01  0.66839420501E+02  0.41800000000E+01 0. -1.
        -11    1    1    2    0    0 -0.22384687068E+02  0.46596329426E+02 -0.57843235115E+01  0.52016829292E+02  0.00000000000E+00 0.  1.
         11    1    1    2    0    0  0.69789469223E+01 -0.37626205241E+02  0.15133875313E+02  0.41151806801E+02  0.00000000000E+00 0. -1.
</event>
<event>
 7    1  0.2686828E-009  0.1391304E+03  0.7561462E-02  0.1214504E+00
          2   -1    0    0  501    0  0.00000000000E+00  0.00000000000E+00  0.40122749159E+03  0.40122749159E+03  0.00000000000E+00 0. -1.
         -2   -1    0    0    0  501 -0.00000000000E+00 -0.00000000000E+00 -0.60322859837E+02  0.60322859837E+02  0.00000000000E+00 0.  1.
         25    2    1    2    0    0  0.15040788992E+01 -0.10968762456E+03  0.21066040893E+03  0.26843848194E+03  0.12509106067E+03 0.  0.
          5    1    3    3  502    0 -0.28249035809E+02 -0.10121860743E+03  0.74848296360E+02  0.12908506645E+03  0.41800000000E+01 0.  1.
         -5    1    3    3    0  502  0.29753114708E+02 -0.84690171365E+01  0.13581211257E+03  0.13935341548E+03  0.41800000000E+01 0.  1.
        -11    1    1    2    0    0  0.37419204086E+02  0.16520149869E+02  0.46510459053E+02  0.61938154537E+02  0.00000000000E+00 0. -1.
         11    1    1    2    0    0 -0.38923282986E+02  0.93167474694E+02  0.83733763768E+02  0.13117371495E+03  0.00000000000E+00 0.  1.
</event>
<event>
 7    1  0.2686828E-009  0.8098227E+02  0.7561462E-02  0.1326287E+00
          1   -1    0    0  501    0  0.00000000000E+00  0.00000000000E+00  0.67767841933E+03  0.67767841933E+03  0.00000000000E+00 0. -1.
         -1   -1    0    0    0  501 -0.00000000000E+00 -0.00000000000E+00 -0.23433378448E+02  0.23433378448E+02  0.00000000000E+00 0.  1.
         25    2    1    2    0    0 -0.76775706008E+01 -0.14987970114E+02  0.53118189060E+03  0.54597135096E+03  0.12508769255E+03 0.  0.
          5    1    3    3  502    0 -0.40615242693E+02 -0.73701249583E+01  0.49323775754E+03  0.49497967084E+03  0.41800000000E+01 0.  1.
         -5    1    3    3    0  502  0.32937672092E+02 -0.76178451555E+01  0.37944133062E+02  0.50991680120E+02  0.41800000000E+01 0.  1.
        -11    1    1    2    0    0  0.31305817573E+02 -0.24932716287E+02  0.26462595780E+02  0.47978782089E+02  0.00000000000E+00 0.  1.
         11    1    1    2    0    0 -0.23628246972E+02  0.39920686400E+02  0.96600554498E+02  0.10716166473E+03  0.00000000000E+00 0. -1.
</event>
<event>
 7    1  0.2686828E-009  0.2186392E+03  0.7561462E-02  0.1134902E+00
          1   -1    0    0  501    0  0.00000000000E+00  0.00000000000E+00  0.17230007403E+04  0.17230007403E+04  0.00000000000E+00 0. -1.
         -1   -1    0    0    0  501 -0.00000000000E+00 -0.00000000000E+00 -0.29952520968E+02  0.29952520968E+02  0.00000000000E+00 0.  1.
         25    2    1    2    0    0 -0.56671171483E+02 -0.19035415572E+03  0.82001841556E+03  0.85295186381E+03  0.12510137426E+03 0.  0.
          5    1    3    3  502    0  0.18968449865E+02 -0.96588419437E+02  0.52660138551E+03  0.53573838437E+03  0.41800000000E+01 0. -1.
         -5    1    3    3    0  502 -0.75639621347E+02 -0.93765736283E+02  0.29341703004E+03  0.31721347944E+03  0.41800000000E+01 0. -1.
        -11    1    1    2    0    0  0.81136673543E+02  0.13207524660E+03  0.59264042637E+03  0.61257628547E+03  0.00000000000E+00 0.  1.
         11    1    1    2    0    0 -0.24465502060E+02  0.58278909124E+02  0.28038937743E+03  0.28742511202E+03  0.00000000000E+00 0. -1.
</event>
<event>
 7    1  0.2686828E-009  0.6802433E+02  0.7561462E-02  0.1366943E+00
          1   -1    0    0  501    0  0.00000000000E+00  0.00000000000E+00  0.11448257327E+03  0.11448257327E+03  0.00000000000E+00 0. -1.
         -1   -1    0    0    0  501 -0.00000000000E+00 -0.00000000000E+00 -0.12341415627E+03  0.12341415627E+03  0.00000000000E+00 0.  1.
         25    2    1    2    0    0 -0.22005303791E+02 -0.37481484631E+02 -0.28968724048E+02  0.13555758423E+03  0.12509027374E+03 0.  0.
          5    1    3    3  502    0 -0.50577589876E+02 -0.28764662240E+02  0.32723301478E+02  0.66886360725E+02  0.41800000000E+01 0.  1.
         -5    1    3    3    0  502  0.28572286085E+02 -0.87168223907E+01 -0.61692025526E+02  0.68671223509E+02  0.41800000000E+01 0.  1.
        -11    1    1    2    0    0  0.11835293717E+02  0.38980028752E+01 -0.34952774655E+02  0.37107479837E+02  0.00000000000E+00 0.  1.
         11    1    1    2    0    0  0.10170010074E+02  0.33583481755E+02  0.54989915701E+02  0.65231665474E+02  0.00000000000E+00 0. -1.
</event>
<event>
 7    1  0.2686828E-009  0.1023601E+03  0.7561462E-02  0.1275410E+00
         -2   -1    0    0    0  501 -0.00000000000E+00  0.00000000000E+00  0.29069072622E+02  0.29069072622E+02  0.00000000000E+00 0.  1.
          2   -1    0    0  501    0  0.00000000000E+00 -0.00000000000E+00 -0.54784445843E+03  0.54784445843E+03  0.00000000000E+00 0. -1.
         25    2    1    2    0    0 -0.40968223017E+01 -0.59413911900E+02 -0.23343814610E+03  0.27145476483E+03  0.12509006520E+03 0.  0.
          5    1    3    3  502    0 -0.36871900398E+02 -0.84721610041E+02 -0.18988477937E+03  0.21121313899E+03  0.41800000000E+01 0.  1.
         -5    1    3    3    0  502  0.32775078097E+02  0.25307698142E+02 -0.43553366736E+02  0.60241625837E+02  0.41800000000E+01 0.  1.
        -11    1    1    2    0    0 -0.13143301460E+02  0.59371242251E+01  0.22252019615E+00  0.14423776640E+02  0.00000000000E+00 0.  1.
         11    1    1    2    0    0  0.17240123762E+02  0.53476787675E+02 -0.28555975990E+03  0.29103498958E+03  0.00000000000E+00 0. -1.
</event>
<event>
 7    1  0.3095049E-009  0.9657888E+02  0.7561462E-02  0.1287659E+00
         -1   -1    0    0    0  501 -0.00000000000E+00  0.00000000000E+00  0.26722575849E+02  0.26722575849E+02  0.00000000000E+00 0.  1.
          1   -1    0    0  501    0  0.00000000000E+00 -0.00000000000E+00 -0.69883912414E+03  0.69883912414E+03  0.00000000000E+00 0. -1.
         25    2    1    2    0    0 -0.22178249999E+02 -0.37750387887E+01 -0.58232950486E+03  0.59603772371E+03  0.12508872916E+03 0.  0.
          5    1    3    3  502    0 -0.63596450963E+02 -0.37122860328E+02 -0.33818787705E+03  0.34613744080E+03  0.41800000000E+01 0.  1.
         -5    1    3    3    0  502  0.41418200964E+02  0.33347821539E+02 -0.24414162781E+03  0.24990028292E+03  0.41800000000E+01 0.  1.
        -11    1    1    2    0    0 -0.21247987788E+02 -0.48335441151E+01  0.71680987056E+01  0.22939524250E+02  0.00000000000E+00 0.  1.
         11    1    1    2    0    0  0.43426237787E+02  0.86085829038E+01 -0.96955142140E+02  0.10658445203E+03  0.00000000000E+00 0. -1.
</event>
<event>
 7    1  0.2686828E-009  0.9567012E+02  0.7561462E-02  0.1289674E+00
         -2   -1    0    0    0  501 -0.00000000000E+00  0.00000000000E+00  0.19085585913E+03  0.19085585913E+03  0.00000000000E+00 0.  1.
          2   -1    0    0  501    0  0.00000000000E+00 -0.00000000000E+00 -0.17488236536E+03  0.17488236536E+03  0.00000000000E+00 0. -1.
         25    2    1    2    0    0 -0.89958060852E+01  0.72743136436E+02  0.13512801659E+03  0.19818614536E+03  0.12508268833E+03 0.  0.
          5    1    3    3  502    0 -0.31026589600E+02  0.75111723498E+02  0.24067190462E+02  0.84859426853E+02  0.41800000000E+01 0.  1.
         -5    1    3    3    0  502  0.22030783515E+02 -0.23685870624E+01  0.11106082613E+03  0.11332671851E+03  0.41800000000E+01 0.  1.
        -11    1    1    2    0    0 -0.18916982879E+02 -0.18747878708E+02  0.69826799949E+01  0.27533489013E+02  0.00000000000E+00 0.  1.
         11    1    1    2    0    0  0.27912788964E+02 -0.53995257728E+02 -0.12613720281E+03  0.14001859012E+03  0.00000000000E+00 0. -1.
</event>
<event>
 7    1  0.2686828E-009  0.9848906E+02  0.7561462E-02  0.1283506E+00
          1   -1    0    0  501    0  0.00000000000E+00  0.00000000000E+00  0.13532099431E+03  0.13532099431E+03  0.00000000000E+00 0. -1.
         -1   -1    0    0    0  501 -0.00000000000E+00 -0.00000000000E+00 -0.10093209099E+03  0.10093209099E+03  0.00000000000E+00 0.  1.
         25    2    1    2    0    0 -0.23319969367E+02 -0.26539049148E+02  0.36446685159E+02  0.13499647695E+03  0.12509015081E+03 0.  0.
          5    1    3    3  502    0  0.27181479120E+02  0.20521254922E+02  0.53694409079E+02  0.63722183555E+02  0.41800000000E+01 0. -1.
         -5    1    3    3    0  502 -0.50501448487E+02 -0.47060304069E+02 -0.17247723920E+02  0.71274293394E+02  0.41800000000E+01 0. -1.
        -11    1    1    2    0    0 -0.29377052704E+02  0.28287838889E+02  0.18347750975E+02  0.44719716239E+02  0.00000000000E+00 0.  1.
         11    1    1    2    0    0  0.52697022072E+02 -0.17487897415E+01 -0.20405532806E+02  0.56536892114E+02  0.00000000000E+00 0. -1.
</event>
<event>
 7    1  0.2686828E-009  0.1171293E+03  0.7561462E-02  0.1247909E+00
         -2   -1    0    0    0  501 -0.00000000000E+00  0.00000000000E+00  0.17039354489E+03  0.17039354489E+03  0.00000000000E+00 0.  1.
          2   -1    0    0  501    0  0.00000000000E+00 -0.00000000000E+00 -0.14963343156E+03  0.14963343156E+03  0.00000000000E+00 0. -1.
         25    2    1    2    0    0  0.17523660736E+01  0.10317357360E+03 -0.43036179287E+02  0.16775939695E+03  0.12507296056E+03 0.  0.
          5    1    3    3  502    0  0.22230390439E+02  0.93984315583E+01 -0.64777620298E+02  0.69254120934E+02  0.41800000000E+01 0.  1.
         -5    1    3    3    0  502 -0.20478024366E+02  0.93775142039E+02  0.21741441011E+02  0.98505276019E+02  0.41800000000E+01 0.  1.
        -11    1    1    2    0    0  0.22841337865E+02 -0.43183958138E+02  0.71901620968E+02  0.86927694400E+02  0.00000000000E+00 0.  1.
         11    1    1    2    0    0 -0.24593703938E+02 -0.59989615459E+02 -0.81053283501E+01  0.65339885094E+02  0.00000000000E+00 0. -1.
</event>
<event>
 7    1  0.2686828E-009  0.1063965E+03  0.7561462E-02  0.1267392E+00
         -2   -1    0    0    0  501 -0.00000000000E+00  0.00000000000E+00  0.95721652822E+02  0.95721652822E+02  0.00000000000E+00 0.  1.
          2   -1    0    0  501    0  0.00000000000E+00 -0.00000000000E+00 -0.13295400817E+03  0.13295400817E+03  0.00000000000E+00 0. -1.
         25    2    1    2    0    0  0.42415034234E+01  0.19264321457E+02 -0.41373926733E+02  0.13322406021E+03  0.12509094281E+03 0.  0.
          5    1    3    3  502    0 -0.38837942131E+02 -0.34773593867E+02  0.52153483314E+00  0.52300410878E+02  0.41800000000E+01 0.  1.
         -5    1    3    3    0  502  0.43079445555E+02  0.54037915324E+02 -0.41895461566E+02  0.80923649335E+02  0.41800000000E+01 0.  1.
        -11    1    1    2    0    0  0.42480533973E+02 -0.94617115318E+01  0.15814887114E+02  0.46305835552E+02  0.00000000000E+00 0.  1.
         11    1    1    2    0    0 -0.46722037396E+02 -0.98026099256E+01 -0.11673315732E+02  0.49145765230E+02  0.00000000000E+00 0. -1.
</event>
<event>
 7    1  0.2686828E-009  0.8287539E+02  0.7561462E-02  0.1321084E+00
          2   -1    0    0  501    0  0.00000000000E+00  0.00000000000E+00  0.27669953365E+03  0.27669953365E+03  0.00000000000E+00 0. -1.
         -2   -1    0    0    0  501 -0.00000000000E+00 -0.00000000000E+00 -0.50733656675E+02  0.50733656675E+02  0.00000000000E+00 0.  1.
         25    2    1    2    0    0  0.27484411951E+02 -0.34171582313E+02  0.10077089048E+03  0.16650157427E+03  0.12507962235E+03 0.  0.
          5    1    3    3  502    0  0.39035572935E+02 -0.14062476954E+02  0.12555742223E+03  0.13230142815E+03  0.41800000000E+01 0. -1.
         -5    1    3    3    0  502 -0.11551160984E+02 -0.20109105359E+02 -0.24786531753E+02  0.34200146121E+02  0.41800000000E+01 0. -1.
        -11    1    1    2    0    0  0.94145399658E+01 -0.27250945157E+02  0.28101047670E+02  0.40260606737E+02  0.00000000000E+00 0.  1.
         11    1    1    2    0    0 -0.36898951917E+02  0.61422527470E+02  0.97093938829E+02  0.12067100932E+03  0.00000000000E+00 0. -1.
</event>
<event>
 7    1  0.2686828E-009  0.1058352E+03  0.7561462E-02  0.1268483E+00
         -2   -1    0    0    0  501 -0.00000000000E+00  0.00000000000E+00  0.68811143099E+03  0.68811143099E+03  0.00000000000E+00 0.  1.
          2   -1    0    0  501    0  0.00000000000E+00 -0.00000000000E+00 -0.24671163038E+02  0.24671163038E+02  0.00000000000E+00 0. -1.
         25    2    1    2    0    0 -0.89351433338E+00  0.47741373209E+02  0.51334996072E+03  0.53052499851E+03  0.12509418366E+03 0.  0.
          5    1    3    3  502    0  0.19855498067E+02  0.76545196992E+02  0.19943332942E+03  0.21457989950E+03  0.41800000000E+01 0. -1.
         -5    1    3    3    0  502 -0.20749012400E+02 -0.28803823783E+02  0.31391663130E+03  0.31594509900E+03  0.41800000000E+01 0. -1.
        -11    1    1    2    0    0  0.19238465503E+02  0.19288266210E+02  0.16988102729E+02  0.32105317357E+02  0.00000000000E+00 0. -1.
         11    1    1    2    0    0 -0.18344951169E+02 -0.67029639419E+02  0.13310220451E+03  0.15015227817E+03  0.00000000000E+00 0.  1.
</event>
<event>
 7    1  0.2686828E-009  0.1036101E+03  0.7561462E-02  0.1272883E+00
          1   -1    0    0  501    0  0.00000000000E+00  0.00000000000E+00  0.39258238199E+02  0.39258238199E+02  0.00000000000E+00 0. -1.
         -1   -1    0    0    0  501 -0.00000000000E+00 -0.00000000000E+00 -0.50175428544E+03  0.50175428544E+03  0.00000000000E+00 0.  1.
         25    2    1    2    0    0 -0.23880962938E+02  0.64920954532E+02 -0.14591445764E+03  0.20426223881E+03  0.12508797914E+03 0.  0.
          5    1    3    3  502    0 -0.41468894622E+02  0.22976302563E+02  0.37918913083E+01  0.47743382163E+02  0.41800000000E+01 0. -1.
         -5    1    3    3    0  502  0.17587931684E+02  0.41944651970E+02 -0.14970634895E+03  0.15651885665E+03  0.41800000000E+01 0. -1.
        -11    1    1    2    0    0  0.39862113864E+02 -0.81623156379E+02 -0.26738484447E+03  0.28239331230E+03  0.00000000000E+00 0.  1.
         11    1    1    2    0    0 -0.15981150927E+02  0.16702201847E+02 -0.49196745137E+02  0.54356972538E+02  0.00000000000E+00 0. -1.
</event>
<event>
 7    1  0.2686828E-009  0.1140019E+03  0.7561462E-02  0.1253333E+00
         -1   -1    0    0    0  501 -0.00000000000E+00  0.00000000000E+00  0.42086178573E+02  0.42086178573E+02  0.00000000000E+00 0.  1.
          1   -1    0    0  501    0  0.00000000000E+00 -0.00000000000E+00 -0.41317907784E+03  0.41317907784E+03  0.00000000000E+00 0. -1.
         25    2    1    2    0    0 -0.25410875663E+02 -0.34560725641E+02 -0.31798046091E+03  0.34438334113E+03  0.12509258879E+03 0.  0.
          5    1    3    3  502    0  0.36149770219E+02  0.25977741347E+02 -0.13017520419E+03  0.13763976576E+03  0.41800000000E+01 0. -1.
         -5    1    3    3    0  502 -0.61560645882E+02 -0.60538466988E+02 -0.18780525671E+03  0.20674357537E+03  0.41800000000E+01 0. -1.
        -11    1    1    2    0    0 -0.31834313214E+02  0.43709450003E+01 -0.12513521891E+02  0.34483574178E+02  0.00000000000E+00 0.  1.
         11    1    1    2    0    0  0.57245188877E+02  0.30189780641E+02 -0.40598916463E+02  0.76398341099E+02  0.00000000000E+00 0. -1.
</event>
<event>
 7    1  0.2686828E-009  0.6547640E+02  0.7561462E-02  0.1376188E+00
          2   -1    0    0  501    0  0.00000000000E+00  0.00000000000E+00  0.38544924640E+03  0.38544924640E+03  0.00000000000E+00 0.  1.
         -2   -1    0    0    0  501 -0.00000000000E+00 -0.00000000000E+00 -0.31404297710E+02  0.31404297710E+02  0.00000000000E+00 0. -1.
         25    2    1    2    0    0  0.16900580669E+02  0.41949201673E+01  0.18427610170E+03  0.22340347622E+03  0.12509278376E+03 0.  0.
          5    1    3    3  502    0 -0.11600580079E+02 -0.45312599525E+01  0.19190406354E+03  0.19235318499E+03  0.41800000000E+01 0.  1.
         -5    1    3    3    0  502  0.28501160749E+02  0.87261801198E+01 -0.76279618396E+01  0.31050291228E+02  0.41800000000E+01 0.  1.
        -11    1    1    2    0    0  0.23983008466E+02 -0.30727185394E+02  0.10767376287E+03  0.11451193749E+03  0.00000000000E+00 0.  1.
         11    1    1    2    0    0 -0.40883589135E+02  0.26532265226E+02  0.62095084122E+02  0.78938130398E+02  0.00000000000E+00 0. -1.
</event>
<event>
 7    1  0.2686828E-009  0.1857747E+03  0.7561462E-02  0.1162328E+00
         -1   -1    0    0    0  501 -0.00000000000E+00  0.00000000000E+00  0.17194736807E+03  0.17194736807E+03  0.00000000000E+00 0.  1.
          1   -1    0    0  501    0  0.00000000000E+00 -0.00000000000E+00 -0.22305613544E+03  0.22305613544E+03  0.00000000000E+00 0. -1.
         25    2    1    2    0    0  0.27755273908E+02  0.15997280230E+03 -0.21006943262E+02  0.20604478301E+03  0.12510598800E+03 0.  0.
          5    1    3    3  502    0  0.71792387309E+02  0.11465643560E+03  0.96516804535E+01  0.13568667007E+03  0.41800000000E+01 0. -1.
         -5    1    3    3    0  502 -0.44037113401E+02  0.45316366704E+02 -0.30658623715E+02  0.70358112937E+02  0.41800000000E+01 0. -1.
        -11    1    1    2    0    0  0.17176905669E+02 -0.22873311348E+02  0.21446424579E+02  0.35751693493E+02  0.00000000000E+00 0.  1.
         11    1    1    2    0    0 -0.44932179577E+02 -0.13709949095E+03 -0.51548248685E+02  0.15320702700E+03  0.00000000000E+00 0. -1.
</event>
<event>
 7    1  0.2686828E-009  0.1455640E+03  0.7561462E-02  0.1206032E+00
         -2   -1    0    0    0  501 -0.00000000000E+00  0.00000000000E+00  0.57885005815E+02  0.57885005815E+02  0.00000000000E+00 0.  1.
          2   -1    0    0  501    0  0.00000000000E+00 -0.00000000000E+00 -0.52945817864E+03  0.52945817864E+03  0.00000000000E+00 0. -1.
         25    2    1    2    0    0  0.80123663546E+02 -0.85082321084E+02 -0.13007300207E+03  0.21500346547E+03  0.12509476999E+03 0.  0.
          5    1    3    3  502    0 -0.16332242009E+02  0.21073475932E+02 -0.13773739969E+02  0.30298875056E+02  0.41800000000E+01 0.  1.
         -5    1    3    3    0  502  0.96455905555E+02 -0.10615579702E+03 -0.11629926210E+03  0.18470459042E+03  0.41800000000E+01 0.  1.
        -11    1    1    2    0    0 -0.10272251495E+02 -0.36979622497E+00  0.29055027959E+01  0.10681659353E+02  0.00000000000E+00 0.  1.
         11    1    1    2    0    0 -0.69851412051E+02  0.85452117309E+02 -0.34440567356E+03  0.36165805963E+03  0.00000000000E+00 0. -1.
</event>
<event>
 7    1  0.2686828E-009  0.1493860E+03  0.7561462E-02  0.1201230E+00
          2   -1    0    0  501    0  0.00000000000E+00  0.00000000000E+00  0.13770489022E+04  0.13770489022E+04  0.00000000000E+00 0. -1.
         -2   -1    0    0    0  501 -0.00000000000E+00 -0.00000000000E+00 -0.30310130382E+02  0.30310130382E+02  0.00000000000E+00 0.  1.
         25    2    1    2    0    0  0.11683709219E+03  0.16004741866E+02  0.11187945339E+04  0.11319256805E+04  0.12508988393E+03 0.  0.
          5    1    3    3  502    0  0.92866613546E+02 -0.32038747121E+02  0.94181504498E+03  0.94693386283E+03  0.41800000000E+01 0. -1.
         -5    1    3    3    0  502  0.23970478647E+02  0.48043488987E+02  0.17697948895E+03  0.18499181763E+03  0.41800000000E+01 0. -1.
        -11    1    1    2    0    0 -0.11257849385E+03  0.16524318395E+02  0.20786392018E+03  0.23696915345E+03  0.00000000000E+00 0. -1.
         11    1    1    2    0    0 -0.42585983414E+01 -0.32529060261E+02  0.20080317750E+02  0.38464198708E+02  0.00000000000E+00 0.  1.
</event>
<event>
 7    1  0.2686828E-009  0.1217019E+03  0.7561462E-02  0.1240316E+00
          2   -1    0    0  501    0  0.00000000000E+00  0.00000000000E+00  0.51398895847E+03  0.51398895847E+03  0.00000000000E+00 0. -1.
         -2   -1    0    0    0  501 -0.00000000000E+00 -0.00000000000E+00 -0.36581389047E+02  0.36581389047E+02  0.00000000000E+00 0.  1.
         25    2    1    2    0    0 -0.12022635943E+02  0.82058082716E+02  0.30716167322E+03  0.34186740658E+03  0.12508779905E+03 0.  0.
          5    1    3    3  502    0  0.36037520617E+02 -0.16779736946E+02  0.88271588829E+02  0.96899991014E+02  0.41800000000E+01 0.  1.
         -5    1    3    3    0  502 -0.48060156560E+02  0.98837819662E+02  0.21889008439E+03  0.24496741556E+03  0.41800000000E+01 0.  1.
        -11    1    1    2    0    0 -0.12725109881E+02 -0.56336527236E+02  0.32217294388E+02  0.66133855023E+02  0.00000000000E+00 0.  1.
         11    1    1    2    0    0  0.24747745825E+02 -0.25721555481E+02  0.13802860181E+03  0.14256908591E+03  0.00000000000E+00 0. -1.
</event>
<event>
 7    1  0.2686829E-009  0.2000478E+03  0.7561462E-02  0.1149699E+00
         -1   -1    0    0    0  501 -0.00000000000E+00  0.00000000000E+00  0.17176678763E+03  0.17176678763E+03  0.00000000000E+00 0.  1.
          1   -1    0    0  501    0  0.00000000000E+00 -0.00000000000E+00 -0.24795423724E+03  0.24795423724E+03  0.00000000000E+00 0. -1.
         25    2    1    2    0    0 -0.14444023841E+03 -0.86539977826E+02  0.97785693894E+01  0.20998679351E+03  0.12508670111E+03 0.  0.
          5    1    3    3  502    0 -0.51437205173E+02  0.30702502669E+02  0.30361975780E+01  0.60125873315E+02  0.41800000000E+01 0.  1.
         -5    1    3    3    0  502 -0.93003033233E+02 -0.11724248049E+03  0.67423718114E+01  0.14986092019E+03  0.41800000000E+01 0.  1.
        -11    1    1    2    0    0  0.11318301322E+03  0.17469352449E+02 -0.41309893109E+02  0.12174596513E+03  0.00000000000E+00 0. -1.
         11    1    1    2    0    0  0.31257225181E+02  0.69070625377E+02 -0.44656125887E+02  0.87988266236E+02  0.00000000000E+00 0.  1.
</event>
<event>
 7    1  0.2686828E-009  0.7546639E+02  0.7561462E-02  0.1342433E+00
          2   -1    0    0  501    0  0.00000000000E+00  0.00000000000E+00  0.52176662961E+02  0.52176662961E+02  0.00000000000E+00 0. -1.
         -2   -1    0    0    0  501 -0.00000000000E+00 -0.00000000000E+00 -0.23119189048E+03  0.23119189048E+03  0.00000000000E+00 0.  1.
         25    2    1    2    0    0  0.14286118032E+02 -0.79789206477E+01 -0.11920798160E+03  0.17356771387E+03  0.12508977608E+03 0.  0.
          5    1    3    3  502    0  0.13089128107E+02 -0.38139669208E+02 -0.13378201663E+03  0.13978934156E+03  0.41800000000E+01 0.  1.
         -5    1    3    3    0  502  0.11969899252E+01  0.30160748561E+02  0.14574035032E+02  0.33778372307E+02  0.41800000000E+01 0.  1.
        -11    1    1    2    0    0 -0.46667788422E+02  0.42421367626E+00 -0.60663725615E+02  0.76538552631E+02  0.00000000000E+00 0.  1.
         11    1    1    2    0    0  0.32381670390E+02  0.75547069714E+01  0.85647969432E+00  0.33262286935E+02  0.00000000000E+00 0. -1.
</event>
<event>
 7    1  0.2686828E-009  0.1403252E+03  0.7561462E-02  0.1212892E+00
          2   -1    0    0  501    0  0.00000000000E+00  0.00000000000E+00  0.51945599611E+03  0.51945599611E+03  0.00000000000E+00 0. -1.
         -2   -1    0    0    0  501 -0.00000000000E+00 -0.00000000000E+00 -0.54801589546E+02  0.54801589546E+02  0.00000000000E+00 0.  1.
         25    2    1    2    0    0 -0.11195025015E+03 -0.54848914591E+02  0.29946086382E+03  0.34765408233E+03  0.12508113391E+03 0.  0.
          5    1    3    3  502    0 -0.52113055307E+02 -0.34489997645E+02  0.27111782337E+03  0.27825829191E+03  0.41800000000E+01 0.  1.
         -5    1    3    3    0  502 -0.59837194840E+02 -0.20358916946E+02  0.28343040457E+02  0.69395790419E+02  0.41800000000E+01 0.  1.
        -11    1    1    2    0    0  0.30782250431E+02 -0.25864772644E+02  0.50647002613E+02  0.64665696309E+02  0.00000000000E+00 0.  1.
         11    1    1    2    0    0  0.81167999716E+02  0.80713687235E+02  0.11454654012E+03  0.16193780701E+03  0.00000000000E+00 0. -1.
</event>
<event>
 7    1  0.2686828E-009  0.6937276E+02  0.7561462E-02  0.1362239E+00
         -1   -1    0    0    0  501 -0.00000000000E+00  0.00000000000E+00  0.17790414104E+03  0.17790414104E+03  0.00000000000E+00 0.  1.
          1   -1    0    0  501    0  0.00000000000E+00 -0.00000000000E+00 -0.82323293297E+02  0.82323293297E+02  0.00000000000E+00 0. -1.
         25    2    1    2    0    0  0.47009857063E+01  0.49556257930E+02  0.71946827503E+02  0.15264811723E+03  0.12508868750E+03 0.  0.
          5    1    3    3  502    0  0.30870912483E+02  0.13187928732E+02  0.95884733961E+02  0.10167737855E+03  0.41800000000E+01 0. -1.
         -5    1    3    3    0  502 -0.26169926776E+02  0.36368329198E+02 -0.23937906458E+02  0.50970738682E+02  0.41800000000E+01 0. -1.
        -11    1    1    2    0    0  0.10848829235E+02 -0.40486695072E+02  0.56354903759E+02  0.70233501631E+02  0.00000000000E+00 0.  1.
         11    1    1    2    0    0 -0.15549814941E+02 -0.90695628578E+01 -0.32720883520E+02  0.37345815474E+02  0.00000000000E+00 0. -1.
</event>
<event>
 7    1  0.2686828E-009  0.1498512E+03  0.7561462E-02  0.1200656E+00
         -4   -1    0    0    0  501 -0.00000000000E+00  0.00000000000E+00  0.51998236886E+03  0.51998236886E+03  0.00000000000E+00 0.  1.
          4   -1    0    0  501    0  0.00000000000E+00 -0.00000000000E+00 -0.68080351216E+02  0.68080351216E+02  0.00000000000E+00 0. -1.
         25    2    1    2    0    0  0.12892715588E+03  0.10768784822E+02  0.36764978673E+03  0.40933074646E+03  0.12508843298E+03 0.  0.
          5    1    3    3  502    0 -0.19517556457E+02 -0.73180666418E+00  0.10937753848E+03  0.11118628007E+03  0.41800000000E+01 0. -1.
         -5    1    3    3    0  502  0.14844471234E+03  0.11500591486E+02  0.25827224825E+03  0.29814446639E+03  0.41800000000E+01 0. -1.
        -11    1    1    2    0    0 -0.95266422060E+02  0.54970191716E+00  0.10153996284E+03  0.13923490007E+03  0.00000000000E+00 0.  1.
         11    1    1    2    0    0 -0.33660733819E+02 -0.11318486739E+02 -0.17287731928E+02  0.39497073544E+02  0.00000000000E+00 0. -1.
</event>
<event>
 7    1  0.2686828E-009  0.2449955E+03  0.7561462E-02  0.1116509E+00
          4   -1    0    0  501    0  0.00000000000E+00  0.00000000000E+00  0.17074732476E+03  0.17074732476E+03  0.00000000000E+00 0. -1.
         -4   -1    0    0    0  501 -0.00000000000E+00 -0.00000000000E+00 -0.38636827491E+03  0.38636827491E+03  0.00000000000E+00 0.  1.
         25    2    1    2    0    0 -0.20558597334E+03  0.82144436638E+02 -0.18517211662E+03  0.31456025022E+03  0.12508452077E+03 0.  0.
          5    1    3    3  502    0 -0.63013176006E+02  0.91482547415E+02 -0.75155410186E+02  0.13418466720E+03  0.41800000000E+01 0.  1.
         -5    1    3    3    0  502 -0.14257279734E+03 -0.93381107767E+01 -0.11001670644E+03  0.18037558302E+03  0.41800000000E+01 0.  1.
        -11    1    1    2    0    0  0.60520795306E+02 -0.66603818229E+02 -0.35073932582E+02  0.96586831472E+02  0.00000000000E+00 0. -1.
         11    1    1    2    0    0  0.14506517804E+03 -0.15540618410E+02  0.46250990550E+01  0.14596851798E+03  0.00000000000E+00 0.  1.
</event>
<event>
 7    1  0.2686828E-009  0.1041809E+03  0.7561462E-02  0.1271742E+00
          2   -1    0    0  501    0  0.00000000000E+00  0.00000000000E+00  0.50887479674E+02  0.50887479674E+02  0.00000000000E+00 0. -1.
         -2   -1    0    0    0  501 -0.00000000000E+00 -0.00000000000E+00 -0.39475971745E+03  0.39475971745E+03  0.00000000000E+00 0.  1.
         25    2    1    2    0    0 -0.41585076246E+02 -0.75221270411E+02 -0.22769463575E+03  0.27364198108E+03  0.12509008182E+03 0.  0.
          5    1    3    3  502    0 -0.28737108765E+02 -0.12179365363E+02  0.52631343389E+01  0.31926968912E+02  0.41800000000E+01 0. -1.
         -5    1    3    3    0  502 -0.12847967480E+02 -0.63041905048E+02 -0.23295777009E+03  0.24171501217E+03  0.41800000000E+01 0. -1.
        -11    1    1    2    0    0  0.61674906568E+02  0.46013239105E+02 -0.11259180189E+03  0.13637421356E+03  0.00000000000E+00 0.  1.
         11    1    1    2    0    0 -0.20089830323E+02  0.29208031306E+02 -0.35858001366E+01  0.35631002481E+02  0.00000000000E+00 0. -1.
</event>
<event>
 7    1  0.2686828E-009  0.1268997E+03  0.7561462E-02  0.1232130E+00
         -3   -1    0    0    0  501 -0.00000000000E+00  0.00000000000E+00  0.11164970557E+03  0.11164970557E+03  0.00000000000E+00 0.  1.
          3   -1    0    0  501    0  0.00000000000E+00 -0.00000000000E+00 -0.18304120830E+03  0.18304120830E+03  0.00000000000E+00 0. -1.
         25    2    1    2    0    0  0.29568377022E+01  0.89986402477E+02 -0.36827674372E+02  0.15846002799E+03  0.12508799843E+03 0.  0.
          5    1    3    3  502    0 -0.36268045869E+02  0.88179725915E+02  0.11412790475E+02  0.96118465447E+02  0.41800000000E+01 0. -1.
         -5    1    3    3    0  502  0.39224883571E+02  0.18066765621E+01 -0.48240464848E+02  0.62341562541E+02  0.41800000000E+01 0. -1.
        -11    1    1    2    0    0 -0.39233352415E+02 -0.32738772653E+02  0.13848461148E+02  0.52942072615E+02  0.00000000000E+00 0. -1.
         11    1    1    2    0    0  0.36276514713E+02 -0.57247629824E+02 -0.48412289512E+02  0.83288813270E+02  0.00000000000E+00 0.  1.
</event>
<event>
 7    1  0.2686828E-009  0.1145220E+03  0.7561462E-02  0.1252418E+00
         -1   -1    0    0    0  501 -0.00000000000E+00  0.00000000000E+00  0.20052190452E+02  0.20052190452E+02  0.00000000000E+00 0.  1.
          1   -1    0    0  501    0  0.00000000000E+00 -0.00000000000E+00 -0.73270612920E+03  0.73270612920E+03  0.00000000000E+00 0. -1.
         25    2    1    2    0    0 -0.19110601442E+02  0.36798492499E+02 -0.49770458359E+03  0.51485545768E+03  0.12508775174E+03 0.  0.
          5    1    3    3  502    0  0.42402232146E+02 -0.19691107642E+02 -0.14661812239E+03  0.15394815759E+03  0.41800000000E+01 0.  1.
         -5    1    3    3    0  502 -0.61512833589E+02  0.56489600140E+02 -0.35108646120E+03  0.36090730009E+03  0.41800000000E+01 0.  1.
        -11    1    1    2    0    0  0.23472566649E+02  0.26291672350E+02 -0.49389062645E+02  0.60675307407E+02  0.00000000000E+00 0. -1.
         11    1    1    2    0    0 -0.43619652067E+01 -0.63090164848E+02 -0.16556029251E+03  0.17722755456E+03  0.00000000000E+00 0.  1.
</event>
<event>
 7    1  0.2686828E-009  0.5581392E+02  0.7561462E-02  0.1416289E+00
         -1   -1    0    0    0  501 -0.00000000000E+00  0.00000000000E+00  0.30013871357E+03  0.30013871357E+03  0.00000000000E+00 0.  1.
          1   -1    0    0  501    0  0.00000000000E+00 -0.00000000000E+00 -0.58655220386E+02  0.58655220386E+02  0.00000000000E+00 0. -1.
         25    2    1    2    0    0  0.33769724791E+01  0.15855885746E+02  0.22951768027E+03  0.26189029470E+03  0.12508136490E+03 0.  0.
          5    1    3    3  502    0  0.24203459749E+01 -0.30628671104E+02  0.20833041764E+03  0.21062528073E+03  0.41800000000E+01 0. -1.
         -5    1    3    3    0  502  0.95662650418E+00  0.46484556850E+02  0.21187262631E+02  0.51265013973E+02  0.41800000000E+01 0. -1.
        -11    1    1    2    0    0  0.94173820869E+01  0.40696965318E+01  0.50578430208E+02  0.51608401618E+02  0.00000000000E+00 0.  1.
         11    1    1    2    0    0 -0.12794354566E+02 -0.19925582278E+02 -0.38612617297E+02  0.45295237635E+02  0.00000000000E+00 0. -1.
</event>
<event>
 7    1  0.2686828E-009  0.1053038E+03  0.7561462E-02  0.1269522E+00
         -1   -1    0    0    0  501 -0.00000000000E+00  0.00000000000E+00  0.98563985346E+02  0.98563985346E+02  0.00000000000E+00 0.  1.
          1   -1    0    0  501    0  0.00000000000E+00 -0.00000000000E+00 -0.14927611241E+03  0.14927611241E+03  0.00000000000E+00 0. -1.
         25    2    1    2    0    0  0.51050757512E+02 -0.17025526187E+02 -0.40246301025E+02  0.14198567859E+03  0.12507645579E+03 0.  0.
          5    1    3    3  502    0 -0.28988405313E+02  0.14580983265E+02 -0.45072995274E+02  0.55695421881E+02  0.41800000000E+01 0. -1.
         -5    1    3    3    0  502  0.80039162825E+02 -0.31606509453E+02  0.48266942497E+01  0.86290256709E+02  0.41800000000E+01 0. -1.
        -11    1    1    2    0    0  0.13895902715E+02  0.22621021260E+02  0.20638415628E+02  0.33626639957E+02  0.00000000000E+00 0.  1.
         11    1    1    2    0    0 -0.64946660228E+02 -0.55954950727E+01 -0.31104241667E+02  0.72227779210E+02  0.00000000000E+00 0. -1.
</event>
<event>
 7    1  0.2686828E-009  0.9082935E+02  0.7561462E-02  0.1300856E+00
         -2   -1    0    0    0  501 -0.00000000000E+00  0.00000000000E+00  0.15953785850E+02  0.15953785850E+02  0.00000000000E+00 0.  1.
          2   -1    0    0  501    0  0.00000000000E+00 -0.00000000000E+00 -0.10079406756E+04  0.10079406756E+04  0.00000000000E+00 0. -1.
         25    2    1    2    0    0 -0.32192981186E+02 -0.28941427292E+02 -0.76474874285E+03  0.77612023429E+03  0.12509190275E+03 0.  0.
          5    1    3    3  502    0  0.16161004911E+02 -0.30327540880E+02 -0.65729306353E+03  0.65820405771E+03  0.41800000000E+01 0. -1.
         -5    1    3    3    0  502 -0.48353986098E+02  0.13861135884E+01 -0.10745567932E+03  0.11791617658E+03  0.41800000000E+01 0. -1.
        -11    1    1    2    0    0 -0.23668965662E+02 -0.14468277747E+02 -0.72684513058E+02  0.77798389668E+02  0.00000000000E+00 0.  1.
         11    1    1    2    0    0  0.55861946848E+02  0.43409705039E+02 -0.15455363385E+03  0.16997583750E+03  0.00000000000E+00 0. -1.
</event>
<event>
 7    1  0.3478115E-009  0.9804073E+02  0.7561462E-02  0.1284471E+00
         -2   -1    0    0    0  501 -0.00000000000E+00  0.00000000000E+00  0.61165079563E+02  0.61165079563E+02  0.00000000000E+00 0.  1.
          2   -1    0    0  501    0  0.00000000000E+00 -0.00000000000E+00 -0.25434549888E+03  0.25434549888E+03  0.00000000000E+00 0. -1.
         25    2    1    2    0    0 -0.28466767312E+02  0.54030455456E+02 -0.11051885326E+03  0.17774470141E+03  0.12509642280E+03 0.  0.
          5    1    3    3  502    0 -0.53046419061E+02  0.57515811583E+02 -0.12586472342E+03  0.14826122945E+03  0.41800000000E+01 0. -1.
         -5    1    3    3    0  502  0.24579651750E+02 -0.34853561263E+01  0.15345870167E+02  0.29483471957E+02  0.41800000000E+01 0. -1.
        -11    1    1    2    0    0  0.50943671308E+02 -0.46132998716E+02 -0.21317411982E+02  0.71957927086E+02  0.00000000000E+00 0.  1.
         11    1    1    2    0    0 -0.22476903996E+02 -0.78974567404E+01 -0.61344154082E+02  0.65807949948E+02  0.00000000000E+00 0. -1.
</event>
<event>
 7    1  0.2686828E-009  0.1970697E+03  0.7561462E-02  0.1152235E+00
         -1   -1    0    0    0  501 -0.00000000000E+00  0.00000000000E+00  0.59221611103E+02  0.59221611103E+02  0.00000000000E+00 0.  1.
          1   -1    0    0  501    0  0.00000000000E+00 -0.00000000000E+00 -0.86299930616E+03  0.86299930616E+03  0.00000000000E+00 0. -1.
         25    2    1    2    0    0  0.12439825327E+03  0.12031814193E+03 -0.22149516678E+03  0.30767017801E+03  0.12509775711E+03 0.  0.
          5    1    3    3  502    0  0.11972982846E+03  0.49769144874E+02 -0.88656623540E+02  0.15712946542E+03  0.41800000000E+01 0.  1.
         -5    1    3    3    0  502  0.46684248008E+01  0.70548997059E+02 -0.13283854324E+03  0.15054071259E+03  0.41800000000E+01 0.  1.
        -11    1    1    2    0    0 -0.13759888716E+03 -0.10337078874E+03 -0.54493594552E+03  0.57146667307E+03  0.00000000000E+00 0. -1.
         11    1    1    2    0    0  0.13200633891E+02 -0.16947353194E+02 -0.37346582755E+02  0.43084066184E+02  0.00000000000E+00 0.  1.
</event>
<event>
 7    1  0.2686828E-009  0.1281604E+03  0.7561462E-02  0.1230211E+00
          4   -1    0    0  501    0  0.00000000000E+00  0.00000000000E+00  0.44399309318E+02  0.44399309318E+02  0.00000000000E+00 0. -1.
         -4   -1    0    0    0  501 -0.00000000000E+00 -0.00000000000E+00 -0.52566832618E+03  0.52566832618E+03  0.00000000000E+00 0.  1.
         25    2    1    2    0    0  0.68283369724E+02 -0.88792569411E+02 -0.22626459146E+03  0.28175906178E+03  0.12508303074E+03 0.  0.
          5    1    3    3  502    0  0.36196727948E+02 -0.22960058012E+00 -0.16578076003E+03  0.16973799995E+03  0.41800000000E+01 0.  1.
         -5    1    3    3    0  502  0.32086641777E+02 -0.88562968831E+02 -0.60483831435E+02  0.11202106183E+03  0.41800000000E+01 0.  1.
        -11    1    1    2    0    0 -0.39792525211E+02  0.88573975337E+02 -0.14381523269E+03  0.17352698730E+03  0.00000000000E+00 0. -1.
         11    1    1    2    0    0 -0.28490844514E+02  0.21859407386E+00 -0.11118919272E+03  0.11478158642E+03  0.00000000000E+00 0.  1.
</event>
<event>
 7    1  0.2686828E-009  0.1061605E+03  0.7561462E-02  0.1267850E+00
         -1   -1    0    0    0  501 -0.00000000000E+00  0.00000000000E+00  0.92532148307E+02  0.92532148307E+02  0.00000000000E+00 0.  1.
          1   -1    0    0  501    0  0.00000000000E+00 -0.00000000000E+00 -0.16592184080E+03  0.16592184080E+03  0.00000000000E+00 0. -1.
         25    2    1    2    0    0 -0.36491560787E+02  0.53318622328E+01 -0.87475627169E+02  0.15703551227E+03  0.12509238187E+03 0.  0.
          5    1    3    3  502    0  0.33913631789E+02  0.35871285172E+02 -0.15951037932E+02  0.52046052032E+02  0.41800000000E+01 0. -1.
         -5    1    3    3    0  502 -0.70405192576E+02 -0.30539422939E+02 -0.71524589237E+02  0.10498946024E+03  0.41800000000E+01 0. -1.
        -11    1    1    2    0    0  0.22573411560E+02  0.35898690275E+02  0.33232275048E+02  0.53876330404E+02  0.00000000000E+00 0.  1.
         11    1    1    2    0    0  0.13918149226E+02 -0.41230552508E+02 -0.19146340372E+02  0.47542146434E+02  0.00000000000E+00 0. -1.
</event>
<event>
 7    1  0.2686828E-009  0.1501022E+03  0.7561462E-02  0.1200347E+00
         -1   -1    0    0    0  501 -0.00000000000E+00  0.00000000000E+00  0.75635072921E+03  0.75635072921E+03  0.00000000000E+00 0.  1.
          1   -1    0    0  501    0  0.00000000000E+00 -0.00000000000E+00 -0.36432531052E+02  0.36432531052E+02  0.00000000000E+00 0. -1.
         25    2    1    2    0    0 -0.10397479437E+02 -0.12425030685E+03  0.34704025109E+03  0.38939804623E+03  0.12509059198E+03 0.  0.
          5    1    3    3  502    0 -0.41868544651E+02 -0.30791876891E+02  0.23214164147E+03  0.23792504874E+03  0.41800000000E+01 0.  1.
         -5    1    3    3    0  502  0.31471065214E+02 -0.93458429963E+02  0.11489860961E+03  0.15147299749E+03  0.41800000000E+01 0.  1.
        -11    1    1    2    0    0  0.30560394633E+02  0.82957565590E+01  0.12554771918E+03  0.12947967828E+03  0.00000000000E+00 0.  1.
         11    1    1    2    0    0 -0.20162915196E+02  0.11595455030E+03  0.24733022789E+03  0.27390553574E+03  0.00000000000E+00 0. -1.
</event>
<event>
 7    1  0.2686828E-009  0.9693479E+02  0.7561462E-02  0.1286877E+00
          1   -1    0    0  501    0  0.00000000000E+00  0.00000000000E+00  0.53441462602E+03  0.53441462602E+03  0.00000000000E+00 0. -1.
         -1   -1    0    0    0  501 -0.00000000000E+00 -0.00000000000E+00 -0.25075310056E+02  0.25075310056E+02  0.00000000000E+00 0.  1.
         25    2    1    2    0    0 -0.90627846112E+01  0.40869763611E+02  0.30769276193E+03  0.33477339906E+03  0.12508365732E+03 0.  0.
          5    1    3    3  502    0 -0.25901743088E+01  0.80851437694E+02  0.25861847880E+03  0.27100674154E+03  0.41800000000E+01 0. -1.
         -5    1    3    3    0  502 -0.64726103024E+01 -0.39981674083E+02  0.49074283131E+02  0.63766657521E+02  0.41800000000E+01 0. -1.
        -11    1    1    2    0    0  0.10562420801E+02 -0.55979583830E+02  0.20163973109E+03  0.20953247885E+03  0.00000000000E+00 0. -1.
         11    1    1    2    0    0 -0.14996361894E+01  0.15109820219E+02  0.68229359603E-02  0.15184058163E+02  0.00000000000E+00 0.  1.
</event>
<event>
 7    1  0.2686828E-009  0.1305498E+03  0.7561462E-02  0.1226642E+00
         -1   -1    0    0    0  501 -0.00000000000E+00  0.00000000000E+00  0.18873683028E+03  0.18873683028E+03  0.00000000000E+00 0. -1.
          1   -1    0    0  501    0  0.00000000000E+00 -0.00000000000E+00 -0.17841402365E+03  0.17841402365E+03  0.00000000000E+00 0.  1.
         25    2    1    2    0    0  0.72674554415E+02 -0.32124508405E+02 -0.11962035292E+03  0.19044656505E+03  0.12508912985E+03 0.  0.
          5    1    3    3  502    0 -0.25911175852E+02  0.22506414708E+02 -0.36964680626E+02  0.50614106244E+02  0.41800000000E+01 0. -1.
         -5    1    3    3    0  502  0.98585730267E+02 -0.54630923113E+02 -0.82655672295E+02  0.13983245880E+03  0.41800000000E+01 0. -1.
        -11    1    1    2    0    0 -0.69292775371E+02 -0.11276508508E+02  0.51773591474E+02  0.87230459914E+02  0.00000000000E+00 0.  1.
         11    1    1    2    0    0 -0.33817790441E+01  0.43401016913E+02  0.78169568074E+02  0.89473828975E+02  0.00000000000E+00 0. -1.
</event>
<event>
 7    1  0.2686828E-009  0.7643106E+02  0.7561462E-02  0.1339496E+00
          1   -1    0    0  501    0  0.00000000000E+00  0.00000000000E+00  0.31653730444E+03  0.31653730444E+03  0.00000000000E+00 0. -1.
         -1   -1    0    0    0  501 -0.00000000000E+00 -0.00000000000E+00 -0.57097211427E+02  0.57097211427E+02  0.00000000000E+00 0.  1.
         25    2    1    2    0    0 -0.34475455517E+02  0.15658717151E+02  0.23814043613E+03  0.27164659817E+03  0.12508898640E+03 0.  0.
          5    1    3    3  502    0 -0.42416484624E+01 -0.40202897326E+02  0.21766463323E+02  0.46103317241E+02  0.41800000000E+01 0. -1.
         -5    1    3    3    0  502 -0.30233807054E+02  0.55861614476E+02  0.21637397281E+03  0.22554328092E+03  0.41800000000E+01 0. -1.
        -11    1    1    2    0    0  0.74095775998E+01  0.92016976333E+01  0.52479370233E+02  0.53792726084E+02  0.00000000000E+00 0. -1.
         11    1    1    2    0    0  0.27065877917E+02 -0.24860414784E+02 -0.31179713350E+02  0.48195191619E+02  0.00000000000E+00 0.  1.
</event>
<event>
 7    1  0.2686828E-009  0.1147229E+03  0.7561462E-02  0.1252066E+00
          2   -1    0    0  501    0  0.00000000000E+00  0.00000000000E+00  0.21346854806E+03  0.21346854806E+03  0.00000000000E+00 0. -1.
         -2   -1    0    0    0  501 -0.00000000000E+00 -0.00000000000E+00 -0.89231425175E+02  0.89231425175E+02  0.00000000000E+00 0.  1.
         25    2    1    2    0    0 -0.56276432066E+02  0.13945566838E+02  0.22483770353E+01  0.13790590116E+03  0.12510582214E+03 0.  0.
          5    1    3    3  502    0 -0.82362256723E+02  0.38987790668E+02 -0.22418389212E+02  0.93934262804E+02  0.41800000000E+01 0. -1.
         -5    1    3    3    0  502  0.26085824657E+02 -0.25042223830E+02  0.24666766247E+02  0.43971638353E+02  0.41800000000E+01 0. -1.
        -11    1    1    2    0    0  0.14434222128E+02 -0.46577160830E+02  0.26362649248E+02  0.55432553205E+02  0.00000000000E+00 0.  1.
         11    1    1    2    0    0  0.41842209938E+02  0.32631593991E+02  0.95626096600E+02  0.10936151887E+03  0.00000000000E+00 0. -1.
</event>
<event>
 7    1  0.2686828E-009  0.9516084E+02  0.7561462E-02  0.1290814E+00
         -2   -1    0    0    0  501 -0.00000000000E+00  0.00000000000E+00  0.24210348878E+02  0.24210348878E+02  0.00000000000E+00 0. -1.
          2   -1    0    0  501    0  0.00000000000E+00 -0.00000000000E+00 -0.89105762117E+03  0.89105762117E+03  0.00000000000E+00 0.  1.
         25    2    1    2    0    0  0.25444809214E+00 -0.19231274018E+02 -0.77697748002E+03  0.78721674258E+03  0.12508512577E+03 0.  0.
          5    1    3    3  502    0  0.15658347663E+02  0.46251500113E+02 -0.48934332682E+03  0.49179136737E+03  0.41800000000E+01 0. -1.
         -5    1    3    3    0  502 -0.15403899571E+02 -0.65482774131E+02 -0.28763415320E+03  0.29542537521E+03  0.41800000000E+01 0. -1.
        -11    1    1    2    0    0 -0.34135089247E+02 -0.15439905560E+01 -0.80160301428E+02  0.87139326080E+02  0.00000000000E+00 0.  1.
         11    1    1    2    0    0  0.33880641155E+02  0.20775264574E+02 -0.97094908456E+01  0.40911901394E+02  0.00000000000E+00 0. -1.
</event>
<event>
 7    1  0.2686828E-009  0.1178278E+03  0.7561462E-02  0.1246724E+00
         -1   -1    0    0    0  501 -0.00000000000E+00  0.00000000000E+00  0.29994065914E+02  0.29994065914E+02  0.00000000000E+00 0.  1.
          1   -1    0    0  501    0  0.00000000000E+00 -0.00000000000E+00 -0.63524902013E+03  0.63524902013E+03  0.00000000000E+00 0. -1.
         25    2    1    2    0    0 -0.64643010536E+02  0.43692928033E+02 -0.39719900419E+03  0.42367728924E+03  0.12509039017E+03 0.  0.
          5    1    3    3  502    0 -0.89878518072E+02  0.40889491792E+02 -0.38020376140E+03  0.39283898882E+03  0.41800000000E+01 0.  1.
         -5    1    3    3    0  502  0.25235507536E+02  0.28034362413E+01 -0.16995242790E+02  0.30838300421E+02  0.41800000000E+01 0.  1.
        -11    1    1    2    0    0 -0.81230243078E+01 -0.37155413957E+02 -0.12639518739E+03  0.13199337751E+03  0.00000000000E+00 0. -1.
         11    1    1    2    0    0  0.72766034844E+02 -0.65375140764E+01 -0.81660762628E+02  0.10957241930E+03  0.00000000000E+00 0.  1.
</event>
<event>
 7    1  0.2686828E-009  0.1396935E+03  0.7561462E-02  0.1213742E+00
          2   -1    0    0  501    0  0.00000000000E+00  0.00000000000E+00  0.45646113355E+03  0.45646113355E+03  0.00000000000E+00 0. -1.
         -2   -1    0    0    0  501 -0.00000000000E+00 -0.00000000000E+00 -0.15204265014E+03  0.15204265014E+03  0.00000000000E+00 0.  1.
         25    2    1    2    0    0 -0.73600797781E+02  0.10168700330E+03 -0.79328204295E+02  0.19416115558E+03  0.12509303044E+03 0.  0.
          5    1    3    3  502    0  0.68155650923E+01  0.20017745548E+02  0.29177600472E+02  0.36276257162E+02  0.41800000000E+01 0.  1.
         -5    1    3    3    0  502 -0.80416362873E+02  0.81669257750E+02 -0.10850580477E+03  0.15788489841E+03  0.41800000000E+01 0.  1.
        -11    1    1    2    0    0  0.30169061228E+02 -0.94397110505E+02  0.17603039725E+03  0.20200912723E+03  0.00000000000E+00 0.  1.
         11    1    1    2    0    0  0.43431736553E+02 -0.72898927937E+01  0.20771629045E+03  0.21233350088E+03  0.00000000000E+00 0. -1.
</event>
<event>
 7    1  0.2686828E-009  0.1004122E+03  0.7561462E-02  0.1279432E+00
         -1   -1    0    0    0  501 -0.00000000000E+00  0.00000000000E+00  0.57247613705E+02  0.57247613705E+02  0.00000000000E+00 0.  1.
          1   -1    0    0  501    0  0.00000000000E+00 -0.00000000000E+00 -0.27412913645E+03  0.27412913645E+03  0.00000000000E+00 0. -1.
         25    2    1    2    0    0 -0.46298849294E+02  0.32368131082E+01 -0.17611457746E+03  0.22093758549E+03  0.12507202679E+03 0.  0.
          5    1    3    3  502    0 -0.11630269359E+02 -0.54857743325E+02 -0.40408968488E+02  0.69245882927E+02  0.41800000000E+01 0.  1.
         -5    1    3    3    0  502 -0.34668579935E+02  0.58094556433E+02 -0.13570560897E+03  0.15169170257E+03  0.41800000000E+01 0.  1.
        -11    1    1    2    0    0 -0.14360882268E+02 -0.71143684726E+01  0.19229887711E+02  0.25032733763E+02  0.00000000000E+00 0.  1.
         11    1    1    2    0    0  0.60659731562E+02  0.38775553644E+01 -0.59996832998E+02  0.85406430897E+02  0.00000000000E+00 0. -1.
</event>
<event>
 7    1  0.2686828E-009  0.3235294E+03  0.7561462E-02  0.1074036E+00
          2   -1    0    0  501    0  0.00000000000E+00  0.00000000000E+00  0.10814620683E+04  0.10814620683E+04  0.00000000000E+00 0. -1.
         -2   -1    0    0    0  501 -0.00000000000E+00 -0.00000000000E+00 -0.11258240855E+03  0.11258240855E+03  0.00000000000E+00 0.  1.
         25    2    1    2    0    0  0.25034203827E+03 -0.20068509822E+03  0.37629766847E+03  0.51008991843E+03  0.12508455067E+03 0.  0.
          5    1    3    3  502    0  0.86272976608E+02 -0.84058668720E+02  0.23503725846E+03  0.26413797823E+03  0.41800000000E+01 0. -1.
         -5    1    3    3    0  502  0.16406906166E+03 -0.11662642950E+03  0.14126041001E+03  0.24595194020E+03  0.41800000000E+01 0. -1.
        -11    1    1    2    0    0 -0.65908558251E+02  0.25044459556E+02  0.56152293709E+02  0.90134583230E+02  0.00000000000E+00 0. -1.
         11    1    1    2    0    0 -0.18443348002E+03  0.17564063866E+03  0.53642969756E+03  0.59381997518E+03  0.00000000000E+00 0.  1.
</event>
<event>
 7    1  0.2686828E-009  0.1121265E+03  0.7561462E-02  0.1256682E+00
          2   -1    0    0  501    0  0.00000000000E+00  0.00000000000E+00  0.14879785820E+03  0.14879785820E+03  0.00000000000E+00 0. -1.
         -2   -1    0    0    0  501 -0.00000000000E+00 -0.00000000000E+00 -0.11460106501E+03  0.11460106501E+03  0.00000000000E+00 0.  1.
         25    2    1    2    0    0  0.59294744056E+02 -0.45313292972E+01 -0.21557642267E+02  0.14017742963E+03  0.12509428532E+03 0.  0.
          5    1    3    3  502    0  0.27035469978E+02 -0.62161981187E+02 -0.28467701044E+02  0.73640416517E+02  0.41800000000E+01 0. -1.
         -5    1    3    3    0  502  0.32259274077E+02  0.57630651890E+02  0.69100587768E+01  0.66537013110E+02  0.41800000000E+01 0. -1.
        -11    1    1    2    0    0 -0.23579936060E+02 -0.31552729662E+02 -0.95227613795E+01  0.40524944393E+02  0.00000000000E+00 0.  1.
         11    1    1    2    0    0 -0.35714807995E+02  0.36084058959E+02  0.65277196842E+02  0.82696549194E+02  0.00000000000E+00 0. -1.
</event>
<event>
 7    1  0.2686828E-009  0.3633321E+03  0.7561462E-02  0.1057272E+00
         -1   -1    0    0    0  501 -0.00000000000E+00  0.00000000000E+00  0.69983565900E+02  0.69983565900E+02  0.00000000000E+00 0.  1.
          1   -1    0    0  501    0  0.00000000000E+00 -0.00000000000E+00 -0.19613313391E+04  0.19613313391E+04  0.00000000000E+00 0. -1.
         25    2    1    2    0    0 -0.47911083581E+02 -0.35079958873E+03 -0.97621391851E+03  0.10459432138E+04  0.12509104040E+03 0.  0.
          5    1    3    3  502    0  0.20193346061E+02 -0.29983441661E+02 -0.19988995596E+03  0.20317540425E+03  0.41800000000E+01 0.  1.
         -5    1    3    3    0  502 -0.68104429642E+02 -0.32081614707E+03 -0.77632396255E+03  0.84276780953E+03  0.41800000000E+01 0.  1.
        -11    1    1    2    0    0 -0.20933524336E+02  0.64058310039E+02 -0.22498407555E+03  0.23486062628E+03  0.00000000000E+00 0. -1.
         11    1    1    2    0    0  0.68844607917E+02  0.28674127869E+03 -0.69014977917E+03  0.75051106496E+03  0.00000000000E+00 0.  1.
</event>
<event>
 7    1  0.2686828E-009  0.1370983E+03  0.7561462E-02  0.1217288E+00
         -1   -1    0    0    0  501 -0.00000000000E+00  0.00000000000E+00  0.37355467216E+03  0.37355467216E+03  0.00000000000E+00 0.  1.
          1   -1    0    0  501    0  0.00000000000E+00 -0.00000000000E+00 -0.10102046247E+03  0.10102046247E+03  0.00000000000E+00 0. -1.
         25    2    1    2    0    0  0.80933925771E+02 -0.84162814103E+02  0.85676126050E+01  0.17133069871E+03  0.12508846757E+03 0.  0.
          5    1    3    3  502    0  0.78027603791E+02 -0.53425548894E+02  0.59369898916E+02  0.11173564125E+03  0.41800000000E+01 0. -1.
         -5    1    3    3    0  502  0.29063219806E+01 -0.30737265209E+02 -0.50802286311E+02  0.59595057466E+02  0.41800000000E+01 0. -1.
        -11    1    1    2    0    0 -0.98450503784E+02  0.50994966230E+02  0.21077509884E+03  0.23815778502E+03  0.00000000000E+00 0.  1.
         11    1    1    2    0    0  0.17516578012E+02  0.33167847874E+02  0.53191498247E+02  0.65086650886E+02  0.00000000000E+00 0. -1.
</event>
<event>
 7    1  0.2686828E-009  0.1081476E+03  0.7561462E-02  0.1264039E+00
          3   -1    0    0  501    0  0.00000000000E+00  0.00000000000E+00  0.77382120544E+02  0.77382120544E+02  0.00000000000E+00 0. -1.
         -3   -1    0    0    0  501 -0.00000000000E+00 -0.00000000000E+00 -0.21209199669E+03  0.21209199669E+03  0.00000000000E+00 0.  1.
         25    2    1    2    0    0 -0.49015545996E+02 -0.31310120131E+02 -0.33928821183E+02  0.14206147018E+03  0.12508976389E+03 0.  0.
          5    1    3    3  502    0  0.13963791985E+02  0.25821152000E+02 -0.47357887328E+02  0.55874513594E+02  0.41800000000E+01 0. -1.
         -5    1    3    3    0  502 -0.62979337981E+02 -0.57131272131E+02  0.13429066144E+02  0.86186956585E+02  0.41800000000E+01 0. -1.
        -11    1    1    2    0    0 -0.23624633763E+02  0.11151834511E+02 -0.69181324288E+01  0.27024938292E+02  0.00000000000E+00 0. -1.
         11    1    1    2    0    0  0.72640179759E+02  0.20158285620E+02 -0.93862922529E+02  0.12038770876E+03  0.00000000000E+00 0.  1.
</event>
<event>
 7    1  0.3056414E-009  0.1110994E+03  0.7561462E-02  0.1258547E+00
         -2   -1    0    0    0  501 -0.00000000000E+00  0.00000000000E+00  0.21960455231E+02  0.21960455231E+02  0.00000000000E+00 0.  1.
          2   -1    0    0  501    0  0.00000000000E+00 -0.00000000000E+00 -0.93310183731E+03  0.93310183731E+03  0.00000000000E+00 0. -1.
         25    2    1    2    0    0  0.89764850549E+02  0.19091968458E+02 -0.44239748135E+03  0.46881175765E+03  0.12508677370E+03 0.  0.
          5    1    3    3  502    0  0.68454716833E+02  0.95233089044E+01 -0.80684771959E+02  0.10632143008E+03  0.41800000000E+01 0. -1.
         -5    1    3    3    0  502  0.21310133716E+02  0.95686595540E+01 -0.36171270939E+03  0.36249032757E+03  0.41800000000E+01 0. -1.
        -11    1    1    2    0    0 -0.24792926523E+02 -0.51101726511E+02 -0.19793069177E+03  0.20591899961E+03  0.00000000000E+00 0. -1.
         11    1    1    2    0    0 -0.64971924025E+02  0.32009758053E+02 -0.27081320896E+03  0.28033153528E+03  0.00000000000E+00 0.  1.
</event>
<event>
 7    1  0.2686828E-009  0.1492971E+03  0.7561462E-02  0.1201339E+00
         -2   -1    0    0    0  501 -0.00000000000E+00  0.00000000000E+00  0.34276313191E+02  0.34276313191E+02  0.00000000000E+00 0. -1.
          2   -1    0    0  501    0  0.00000000000E+00 -0.00000000000E+00 -0.96497163814E+03  0.96497163814E+03  0.00000000000E+00 0.  1.
         25    2    1    2    0    0  0.42931496844E+02  0.11541633672E+03 -0.70455124185E+03  0.72608778244E+03  0.12508785400E+03 0.  0.
          5    1    3    3  502    0 -0.25554938665E+02 -0.12632556003E+02 -0.85682654902E+02  0.90397047034E+02  0.41800000000E+01 0. -1.
         -5    1    3    3    0  502  0.68486435508E+02  0.12804889272E+03 -0.61886858695E+03  0.63569073541E+03  0.41800000000E+01 0. -1.
        -11    1    1    2    0    0 -0.23095392840E+02 -0.85870854035E+02 -0.21967534095E+03  0.23699041365E+03  0.00000000000E+00 0.  1.
         11    1    1    2    0    0 -0.19836104003E+02 -0.29545482683E+02 -0.64687421582E+01  0.36169755240E+02  0.00000000000E+00 0. -1.
</event>
<event>
 7    1  0.2686828E-009  0.1193299E+03  0.7561462E-02  0.1244207E+00
         -3   -1    0    0    0  501 -0.00000000000E+00  0.00000000000E+00  0.13468586202E+03  0.13468586202E+03  0.00000000000E+00 0.  1.
          3   -1    0    0  501    0  0.00000000000E+00 -0.00000000000E+00 -0.13904954183E+03  0.13904954183E+03  0.00000000000E+00 0. -1.
         25    2    1    2    0    0  0.72378989069E+02 -0.39773104317E+00  0.38412609265E+02  0.14954331727E+03  0.12509515954E+03 0.  0.
          5    1    3    3  502    0  0.47538959177E+02 -0.51400401447E+02  0.56271754842E+02  0.89921836623E+02  0.41800000000E+01 0. -1.
         -5    1    3    3    0  502  0.24840029892E+02  0.51002670404E+02 -0.17859145578E+02  0.59621480643E+02  0.41800000000E+01 0. -1.
        -11    1    1    2    0    0 -0.29260570120E+02  0.42351552875E+02 -0.20016357292E+01  0.51515449530E+02  0.00000000000E+00 0.  1.
         11    1    1    2    0    0 -0.43118418949E+02 -0.41953821832E+02 -0.40774653342E+02  0.72676637059E+02  0.00000000000E+00 0. -1.
</event>
<event>
 7    1  0.2686828E-009  0.1099750E+03  0.7561462E-02  0.1260616E+00
          1   -1    0    0  501    0  0.00000000000E+00  0.00000000000E+00  0.91896334621E+02  0.91896334621E+02  0.00000000000E+00 0. -1.
         -1   -1    0    0    0  501 -0.00000000000E+00 -0.00000000000E+00 -0.14769194920E+03  0.14769194920E+03  0.00000000000E+00 0.  1.
         25    2    1    2    0    0  0.38939654401E+01 -0.25297535959E+02  0.57678028962E+00  0.12767095140E+03  0.12507761935E+03 0.  0.
          5    1    3    3  502    0 -0.54578566932E+02  0.14720570166E+02 -0.44739176458E+00  0.56684986670E+02  0.41800000000E+01 0.  1.
         -5    1    3    3    0  502  0.58472532372E+02 -0.40018106124E+02  0.10241720542E+01  0.70985964727E+02  0.41800000000E+01 0.  1.
        -11    1    1    2    0    0  0.75955260087E+01  0.57550621649E+02 -0.18646054907E+02  0.60970824425E+02  0.00000000000E+00 0. -1.
         11    1    1    2    0    0 -0.11489491449E+02 -0.32253085690E+02 -0.37726339958E+02  0.50946507995E+02  0.00000000000E+00 0.  1.
</event>
<event>
 7    1  0.2686828E-009  0.1280663E+03  0.7561462E-02  0.1230354E+00
          2   -1    0    0  501    0  0.00000000000E+00  0.00000000000E+00  0.11395798473E+03  0.11395798473E+03  0.00000000000E+00 0. -1.
         -2   -1    0    0    0  501 -0.00000000000E+00 -0.00000000000E+00 -0.35678750241E+03  0.35678750241E+03  0.00000000000E+00 0.  1.
         25    2    1    2    0    0  0.87619423649E+02  0.23284192187E+02  0.40705227791E+02  0.15977707555E+03  0.12510987689E+03 0.  0.
          5    1    3    3  502    0 -0.48986333094E+01  0.47437263930E+02 -0.13557261918E+02  0.49755023547E+02  0.41800000000E+01 0.  1.
         -5    1    3    3    0  502  0.92518056958E+02 -0.24153071743E+02  0.54262489710E+02  0.11002205201E+03  0.41800000000E+01 0.  1.
        -11    1    1    2    0    0 -0.70232856557E+02 -0.45990970586E+02 -0.26213352666E+03  0.27524863181E+03  0.00000000000E+00 0. -1.
         11    1    1    2    0    0 -0.17386567092E+02  0.22706778399E+02 -0.21401218816E+02  0.35719779777E+02  0.00000000000E+00 0.  1.
</event>
<event>
 7    1  0.2686828E-009  0.1147198E+03  0.7561462E-02  0.1252071E+00
          2   -1    0    0  501    0  0.00000000000E+00  0.00000000000E+00  0.46629208827E+03  0.46629208827E+03  0.00000000000E+00 0. -1.
         -2   -1    0    0    0  501 -0.00000000000E+00 -0.00000000000E+00 -0.35102766824E+02  0.35102766824E+02  0.00000000000E+00 0.  1.
         25    2    1    2    0    0 -0.43793770755E+02 -0.65245397404E+01  0.34736448784E+03  0.37185179422E+03  0.12510477798E+03 0.  0.
          5    1    3    3  502    0 -0.54245942659E+02 -0.57563811980E+02  0.18381885069E+03  0.20015758045E+03  0.41800000000E+01 0.  1.
         -5    1    3    3    0  502  0.10452171904E+02  0.51039272239E+02  0.16354563715E+03  0.17169421376E+03  0.41800000000E+01 0.  1.
        -11    1    1    2    0    0  0.73868558823E+01  0.44646344855E+02  0.46972805556E+02  0.65225042818E+02  0.00000000000E+00 0. -1.
         11    1    1    2    0    0  0.36406914872E+02 -0.38121805115E+02  0.36852028049E+02  0.64318018059E+02  0.00000000000E+00 0.  1.
</event>
<event>
 7    1  0.2686828E-009  0.1304553E+03  0.7561462E-02  0.1226782E+00
         -1   -1    0    0    0  501 -0.00000000000E+00  0.00000000000E+00  0.47803107131E+02  0.47803107131E+02  0.00000000000E+00 0.  1.
          1   -1    0    0  501    0  0.00000000000E+00 -0.00000000000E+00 -0.43639224703E+03  0.43639224703E+03  0.00000000000E+00 0. -1.
         25    2    1    2    0    0  0.70609437207E+02 -0.63585236180E+02 -0.19396726559E+03  0.24959923472E+03  0.12509077892E+03 0.  0.
          5    1    3    3  502    0  0.58462527524E+02 -0.88515009897E+02 -0.81915003049E+02  0.13409069403E+03  0.41800000000E+01 0.  1.
         -5    1    3    3    0  502  0.12146909684E+02  0.24929773717E+02 -0.11205226254E+03  0.11550854069E+03  0.41800000000E+01 0.  1.
        -11    1    1    2    0    0 -0.89903855150E+02  0.48086423982E+02 -0.17682548736E+03  0.20411335165E+03  0.00000000000E+00 0. -1.
         11    1    1    2    0    0  0.19294417943E+02  0.15498812197E+02 -0.17796386945E+02  0.30482767781E+02  0.00000000000E+00 0.  1.
</event>
<event>
 7    1  0.2686828E-009  0.8681398E+02  0.7561462E-02  0.1310756E+00
          1   -1    0    0  501    0  0.00000000000E+00  0.00000000000E+00  0.69374121323E+03  0.69374121323E+03  0.00000000000E+00 0. -1.
         -1   -1    0    0    0  501 -0.00000000000E+00 -0.00000000000E+00 -0.24723522959E+02  0.24723522959E+02  0.00000000000E+00 0.  1.
         25    2    1    2    0    0 -0.25239614543E+02 -0.18345764696E+02  0.55042996957E+03  0.56532576948E+03  0.12508584655E+03 0.  0.
          5    1    3    3  502    0 -0.41041800275E+02  0.18896879272E+02  0.49226208841E+03  0.49434902397E+03  0.41800000000E+01 0. -1.
         -5    1    3    3    0  502  0.15802185732E+02 -0.37242643968E+02  0.58167881162E+02  0.70976745505E+02  0.41800000000E+01 0. -1.
        -11    1    1    2    0    0 -0.13520976043E+02  0.40664154682E+02  0.91007968017E+02  0.10059244759E+03  0.00000000000E+00 0. -1.
         11    1    1    2    0    0  0.38760590586E+02 -0.22318389986E+02  0.27579752684E+02  0.52546519126E+02  0.00000000000E+00 0.  1.
</event>
<event>
 7    1  0.2686828E-009  0.7810272E+02  0.7561462E-02  0.1334524E+00
         -2   -1    0    0    0  501 -0.00000000000E+00  0.00000000000E+00  0.46020678996E+02  0.46020678996E+02  0.00000000000E+00 0.  1.
          2   -1    0    0  501    0  0.00000000000E+00 -0.00000000000E+00 -0.31782290694E+03  0.31782290694E+03  0.00000000000E+00 0. -1.
         25    2    1    2    0    0 -0.24113229370E+02 -0.43611240681E+02 -0.14161856777E+03  0.19541488934E+03  0.12509105520E+03 0.  0.
          5    1    3    3  502    0  0.16424807787E+02 -0.32957153216E+02  0.97285595199E+01  0.38315343262E+02  0.41800000000E+01 0. -1.
         -5    1    3    3    0  502 -0.40538037156E+02 -0.10654087466E+02 -0.15134712729E+03  0.15709954607E+03  0.41800000000E+01 0. -1.
        -11    1    1    2    0    0  0.10751821770E+02  0.57060733139E+02 -0.13658817645E+03  0.14841785231E+03  0.00000000000E+00 0. -1.
         11    1    1    2    0    0  0.13361407599E+02 -0.13449492458E+02  0.64045162837E+01  0.20010844291E+02  0.00000000000E+00 0.  1.
</event>
<event>
 7    1  0.2686828E-009  0.1241365E+03  0.7561462E-02  0.1236425E+00
          2   -1    0    0  501    0  0.00000000000E+00  0.00000000000E+00  0.39059495104E+03  0.39059495104E+03  0.00000000000E+00 0. -1.
         -2   -1    0    0    0  501 -0.00000000000E+00 -0.00000000000E+00 -0.95980925527E+02  0.95980925527E+02  0.00000000000E+00 0.  1.
         25    2    1    2    0    0 -0.91794173727E+02  0.37392170170E+02  0.31211922964E+03  0.35055784854E+03  0.12509215380E+03 0.  0.
          5    1    3    3  502    0 -0.93567909458E+02  0.64447262364E+02  0.29951548359E+03  0.32036760233E+03  0.41800000000E+01 0.  1.
         -5    1    3    3    0  502  0.17737357312E+01 -0.27055092194E+02  0.12603746044E+02  0.30190246214E+02  0.41800000000E+01 0.  1.
        -11    1    1    2    0    0  0.26786485852E+02 -0.32269105093E+02 -0.48246414345E+02  0.63925952984E+02  0.00000000000E+00 0.  1.
         11    1    1    2    0    0  0.65007687875E+02 -0.51230650771E+01  0.30741210222E+02  0.72092075047E+02  0.00000000000E+00 0. -1.
</event>
<event>
 7    1  0.2686828E-009  0.1025025E+03  0.7561462E-02  0.1275120E+00
         -3   -1    0    0    0  501 -0.00000000000E+00  0.00000000000E+00  0.23499186139E+03  0.23499186139E+03  0.00000000000E+00 0.  1.
          3   -1    0    0  501    0  0.00000000000E+00 -0.00000000000E+00 -0.69794053661E+02  0.69794053661E+02  0.00000000000E+00 0. -1.
         25    2    1    2    0    0  0.27185741779E+02 -0.60396824867E+02  0.73016356864E+02  0.15926706836E+03  0.12509104558E+03 0.  0.
          5    1    3    3  502    0  0.30541389639E+02 -0.87576013394E+02  0.13762874588E+02  0.93857464913E+02  0.41800000000E+01 0.  1.
         -5    1    3    3    0  502 -0.33556478598E+01  0.27179188527E+02  0.59253482276E+02  0.65409603449E+02  0.41800000000E+01 0.  1.
        -11    1    1    2    0    0 -0.13472524032E+02  0.67627658024E+02  0.20153327922E+02  0.71841253190E+02  0.00000000000E+00 0. -1.
         11    1    1    2    0    0 -0.13713217747E+02 -0.72308331569E+01  0.72028122946E+02  0.73677593502E+02  0.00000000000E+00 0.  1.
</event>
<event>
 7    1  0.2686828E-009  0.1376377E+03  0.7561462E-02  0.1216543E+00
          2   -1    0    0  501    0  0.00000000000E+00  0.00000000000E+00  0.31328871725E+03  0.31328871725E+03  0.00000000000E+00 0. -1.
         -2   -1    0    0    0  501 -0.00000000000E+00 -0.00000000000E+00 -0.87950635629E+02  0.87950635629E+02  0.00000000000E+00 0.  1.
         25    2    1    2    0    0 -0.75375206050E+02 -0.96711403268E+02  0.13881488826E+03  0.22349825894E+03  0.12508949332E+03 0.  0.
          5    1    3    3  502    0 -0.24299943032E+02 -0.81783486766E+02  0.14648787223E+03  0.16957356825E+03  0.41800000000E+01 0.  1.
         -5    1    3    3    0  502 -0.51075263018E+02 -0.14927916502E+02 -0.76729839656E+01  0.53924690694E+02  0.41800000000E+01 0.  1.
        -11    1    1    2    0    0  0.32775221425E+02  0.86743886902E+02  0.95463502188E+02  0.13308642795E+03  0.00000000000E+00 0. -1.
         11    1    1    2    0    0  0.42599984625E+02  0.99675163662E+01 -0.89403088276E+01  0.44654665988E+02  0.00000000000E+00 0.  1.
</event>
<event>
 7    1  0.2686828E-009  0.5132085E+02  0.7561462E-02  0.1438345E+00
         -2   -1    0    0    0  501 -0.00000000000E+00  0.00000000000E+00  0.40013090525E+02  0.40013090525E+02  0.00000000000E+00 0. -1.
          2   -1    0    0  501    0  0.00000000000E+00 -0.00000000000E+00 -0.23154767355E+03  0.23154767355E+03  0.00000000000E+00 0.  1.
         25    2    1    2    0    0  0.32867281252E+02  0.27520176743E+02 -0.16069524450E+03  0.20810568426E+03  0.12508955157E+03 0.  0.
          5    1    3    3  502    0  0.13125067516E+02 -0.81181301735E+01  0.18406395657E+02  0.24381124582E+02  0.41800000000E+01 0.  1.
         -5    1    3    3    0  502  0.19742213736E+02  0.35638306917E+02 -0.17910164015E+03  0.18372455968E+03  0.41800000000E+01 0.  1.
        -11    1    1    2    0    0 -0.47002165382E+01 -0.13378205612E+02  0.56272097432E+01  0.15255618978E+02  0.00000000000E+00 0.  1.
         11    1    1    2    0    0 -0.28167064714E+02 -0.14141971131E+02 -0.36466548266E+02  0.48199460832E+02  0.00000000000E+00 0. -1.
</event>
<event>
 7    1  0.2884902E-009  0.1730018E+03  0.7561462E-02  0.1174753E+00
          1   -1    0    0  501    0  0.00000000000E+00  0.00000000000E+00  0.41730455275E+03  0.41730455275E+03  0.00000000000E+00 0. -1.
         -1   -1    0    0    0  501 -0.00000000000E+00 -0.00000000000E+00 -0.88724808340E+02  0.88724808340E+02  0.00000000000E+00 0.  1.
         25    2    1    2    0    0 -0.14258944919E+03 -0.66188884690E+02  0.19627927333E+03  0.28086605902E+03  0.12508984970E+03 0.  0.
          5    1    3    3  502    0 -0.72020864174E+01 -0.47659523503E+02  0.93481777920E+01  0.49276374231E+02  0.41800000000E+01 0. -1.
         -5    1    3    3    0  502 -0.13538736277E+03 -0.18529361187E+02  0.18693109554E+03  0.23158968479E+03  0.41800000000E+01 0. -1.
        -11    1    1    2    0    0  0.10188617067E+03  0.29398688493E+02  0.31878897387E+02  0.11073092954E+03  0.00000000000E+00 0.  1.
         11    1    1    2    0    0  0.40703278520E+02  0.36790196197E+02  0.10042157370E+03  0.11443237253E+03  0.00000000000E+00 0. -1.
</event>
<event>
 7    1  0.2686828E-009  0.1180955E+03  0.7561462E-02  0.1246272E+00
          2   -1    0    0  501    0  0.00000000000E+00  0.00000000000E+00  0.54318024199E+03  0.54318024199E+03  0.00000000000E+00 0. -1.
         -2   -1    0    0    0  501 -0.00000000000E+00 -0.00000000000E+00 -0.34451914562E+02  0.34451914562E+02  0.00000000000E+00 0.  1.
         25    2    1    2    0    0  0.62421891661E+02  0.34410314040E+01  0.16082706263E+03  0.21312122750E+03  0.12508789023E+03 0.  0.
          5    1    3    3  502    0  0.28371403437E+02  0.57165761493E+02  0.12395430129E+03  0.13948118879E+03  0.41800000000E+01 0. -1.
         -5    1    3    3    0  502  0.34050488224E+02 -0.53724730089E+02  0.36872761343E+02  0.73640038705E+02  0.41800000000E+01 0. -1.
        -11    1    1    2    0    0 -0.85154012740E+02 -0.71714982274E+01  0.28434951975E+03  0.29691292605E+03  0.00000000000E+00 0.  1.
         11    1    1    2    0    0  0.22732121080E+02  0.37304668234E+01  0.63551745050E+02  0.67598003006E+02  0.00000000000E+00 0. -1.
</event>
<event>
 7    1  0.2686828E-009  0.1607134E+03  0.7561462E-02  0.1187894E+00
         -1   -1    0    0    0  501 -0.00000000000E+00  0.00000000000E+00  0.10425596856E+03  0.10425596856E+03  0.00000000000E+00 0.  1.
          1   -1    0    0  501    0  0.00000000000E+00 -0.00000000000E+00 -0.29670234413E+03  0.29670234413E+03  0.00000000000E+00 0. -1.
         25    2    1    2    0    0 -0.13333728003E+03 -0.30837500089E+02 -0.76725751679E+02  0.20065917824E+03  0.12508990041E+03 0.  0.
          5    1    3    3  502    0 -0.86459943313E+02  0.43142641600E+02 -0.50684179556E+02  0.10919234304E+03  0.41800000000E+01 0. -1.
         -5    1    3    3    0  502 -0.46877336713E+02 -0.73980141689E+02 -0.26041572122E+02  0.91466835194E+02  0.41800000000E+01 0. -1.
        -11    1    1    2    0    0  0.25375493296E+02  0.31246524646E+01  0.14096832722E+02  0.29195886797E+02  0.00000000000E+00 0.  1.
         11    1    1    2    0    0  0.10796178673E+03  0.27712847625E+02 -0.12981745661E+03  0.17110324766E+03  0.00000000000E+00 0. -1.
</event>
<event>
 7    1  0.2686828E-009  0.8630378E+02  0.7561462E-02  0.1312058E+00
          2   -1    0    0  501    0  0.00000000000E+00  0.00000000000E+00  0.53597221801E+02  0.53597221801E+02  0.00000000000E+00 0. -1.
         -2   -1    0    0    0  501 -0.00000000000E+00 -0.00000000000E+00 -0.25204571176E+03  0.25204571176E+03  0.00000000000E+00 0.  1.
         25    2    1    2    0    0  0.31038735751E+01  0.30201810281E+02 -0.78669195047E+02  0.15085560752E+03  0.12508712442E+03 0.  0.
          5    1    3    3  502    0 -0.38012325237E+02 -0.14376571627E+02  0.11196433777E+02  0.42361010505E+02  0.41800000000E+01 0.  1.
         -5    1    3    3    0  502  0.41116198813E+02  0.44578381908E+02 -0.89865628824E+02  0.10849459702E+03  0.41800000000E+01 0.  1.
        -11    1    1    2    0    0 -0.32850347770E+02 -0.23722819139E+02 -0.11746273953E+03  0.12425543317E+03  0.00000000000E+00 0.  1.
         11    1    1    2    0    0  0.29746474195E+02 -0.64789911415E+01 -0.23165553921E+01  0.30531892868E+02  0.00000000000E+00 0. -1.
</event>
<event>
 7    1  0.2686828E-009  0.8044627E+02  0.7561462E-02  0.1327790E+00
         -3   -1    0    0    0  501 -0.00000000000E+00  0.00000000000E+00  0.42561100556E+03  0.42561100556E+03  0.00000000000E+00 0.  1.
          3   -1    0    0  501    0  0.00000000000E+00 -0.00000000000E+00 -0.31841083594E+02  0.31841083594E+02  0.00000000000E+00 0. -1.
         25    2    1    2    0    0 -0.14824462686E+02  0.28459368067E+02  0.16543097906E+03  0.20986441594E+03  0.12508382757E+03 0.  0.
          5    1    3    3  502    0 -0.23305532741E+02 -0.17469889392E+02  0.15997163616E+03  0.16265528478E+03  0.41800000000E+01 0. -1.
         -5    1    3    3    0  502  0.84810700558E+01  0.45929257459E+02  0.54593429010E+01  0.47209131161E+02  0.41800000000E+01 0. -1.
        -11    1    1    2    0    0 -0.27413536716E+02 -0.32062231479E+02  0.17190812068E+03  0.17700816546E+03  0.00000000000E+00 0.  1.
         11    1    1    2    0    0  0.42237999401E+02  0.36028634115E+01  0.56430822234E+02  0.70579507764E+02  0.00000000000E+00 0. -1.
</event>
<event>
 7    1  0.2686828E-009  0.1948339E+03  0.7561462E-02  0.1154172E+00
         -1   -1    0    0    0  501 -0.00000000000E+00  0.00000000000E+00  0.23598405752E+03  0.23598405752E+03  0.00000000000E+00 0.  1.
          1   -1    0    0  501    0  0.00000000000E+00 -0.00000000000E+00 -0.20631297023E+03  0.20631297023E+03  0.00000000000E+00 0. -1.
         25    2    1    2    0    0 -0.11628649347E+03 -0.14844482354E+03  0.52181770347E+02  0.23222659386E+03  0.12509132480E+03 0.  0.
          5    1    3    3  502    0 -0.38622814560E+02 -0.59011453952E+02  0.83752447967E+02  0.10957197836E+03  0.41800000000E+01 0.  1.
         -5    1    3    3    0  502 -0.77663678908E+02 -0.89433369584E+02 -0.31570677620E+02  0.12265461549E+03  0.41800000000E+01 0.  1.
        -11    1    1    2    0    0  0.89401959658E+02  0.59044682193E+02  0.17396815907E+02  0.10854323604E+03  0.00000000000E+00 0.  1.
         11    1    1    2    0    0  0.26884533809E+02  0.89400141342E+02 -0.39907498961E+02  0.10152719785E+03  0.00000000000E+00 0. -1.
</event>
<event>
 7    1  0.2686828E-009  0.1298344E+03  0.7561462E-02  0.1227702E+00
          1   -1    0    0  501    0  0.00000000000E+00  0.00000000000E+00  0.42966732520E+02  0.42966732520E+02  0.00000000000E+00 0. -1.
         -1   -1    0    0    0  501 -0.00000000000E+00 -0.00000000000E+00 -0.51941596816E+03  0.51941596816E+03  0.00000000000E+00 0.  1.
         25    2    1    2    0    0 -0.62587976256E+02  0.56039456099E+02 -0.14558137379E+03  0.20952167701E+03  0.12509085231E+03 0.  0.
          5    1    3    3  502    0 -0.25495457669E+02 -0.35939572532E+02 -0.77182367127E+02  0.88973374842E+02  0.41800000000E+01 0.  1.
         -5    1    3    3    0  502 -0.37092518587E+02  0.91979028631E+02 -0.68399006661E+02  0.12054830217E+03  0.41800000000E+01 0.  1.
        -11    1    1    2    0    0 -0.43126839316E+01  0.16739537590E+02 -0.18936247105E+02  0.25639672694E+02  0.00000000000E+00 0. -1.
         11    1    1    2    0    0  0.66900660187E+02 -0.72778993689E+02 -0.31193161475E+03  0.32722135098E+03  0.00000000000E+00 0.  1.
</event>
<event>
 7    1  0.2686828E-009  0.9876588E+02  0.7561462E-02  0.1282913E+00
          3   -1    0    0  501    0  0.00000000000E+00  0.00000000000E+00  0.20671803692E+03  0.20671803692E+03  0.00000000000E+00 0. -1.
         -3   -1    0    0    0  501 -0.00000000000E+00 -0.00000000000E+00 -0.60957619610E+02  0.60957619610E+02  0.00000000000E+00 0.  1.
         25    2    1    2    0    0  0.15642045882E+02  0.11688817332E+01  0.10303185030E+03  0.16281556784E+03  0.12508919646E+03 0.  0.
          5    1    3    3  502    0 -0.24575174317E+02 -0.52865493999E+02  0.44098000662E+02  0.73217523250E+02  0.41800000000E+01 0. -1.
         -5    1    3    3    0  502  0.40217220198E+02  0.54034375732E+02  0.58933849643E+02  0.89598044593E+02  0.41800000000E+01 0. -1.
        -11    1    1    2    0    0 -0.26787352872E+02  0.28973372080E+02 -0.12130079363E+02  0.41281441217E+02  0.00000000000E+00 0.  1.
         11    1    1    2    0    0  0.11145306990E+02 -0.30142253813E+02  0.54858646367E+02  0.63578647469E+02  0.00000000000E+00 0. -1.
</event>
<event>
 7    1  0.2686828E-009  0.4612051E+03  0.7561462E-02  0.1024432E+00
          1   -1    0    0  501    0  0.00000000000E+00  0.00000000000E+00  0.55065176292E+03  0.55065176292E+03  0.00000000000E+00 0. -1.
         -1   -1    0    0    0  501 -0.00000000000E+00 -0.00000000000E+00 -0.42465826388E+03  0.42465826388E+03  0.00000000000E+00 0.  1.
         25    2    1    2    0    0 -0.44561445692E+03 -0.10662473074E+03 -0.46139960603E+02  0.47719770033E+03  0.12509065437E+03 0.  0.
          5    1    3    3  502    0 -0.12529024927E+03 -0.63621702105E+02 -0.61864490761E+02  0.15359054384E+03  0.41800000000E+01 0.  1.
         -5    1    3    3    0  502 -0.32032420765E+03 -0.43003028632E+02  0.15724530158E+02  0.32360715648E+03  0.41800000000E+01 0.  1.
        -11    1    1    2    0    0  0.16662452437E+03  0.49560817876E+02  0.19249362461E+02  0.17490152871E+03  0.00000000000E+00 0.  1.
         11    1    1    2    0    0  0.27898993255E+03  0.57063912860E+02  0.15288409719E+03  0.32321079776E+03  0.00000000000E+00 0. -1.
</event>
<event>
 7    1  0.2686828E-009  0.1776407E+03  0.7561462E-02  0.1170106E+00
         -2   -1    0    0    0  501 -0.00000000000E+00  0.00000000000E+00  0.40101946960E+02  0.40101946960E+02  0.00000000000E+00 0.  1.
          2   -1    0    0  501    0  0.00000000000E+00 -0.00000000000E+00 -0.91328558202E+03  0.91328558202E+03  0.00000000000E+00 0. -1.
         25    2    1    2    0    0 -0.14223602561E+03  0.89701086289E+01 -0.29197158538E+03  0.34814693601E+03  0.12508929833E+03 0.  0.
          5    1    3    3  502    0 -0.16466854877E+03  0.12443769665E+02 -0.26836448321E+03  0.31513099912E+03  0.41800000000E+01 0.  1.
         -5    1    3    3    0  502  0.22432523159E+02 -0.34736610362E+01 -0.23607102170E+02  0.33015936896E+02  0.41800000000E+01 0.  1.
        -11    1    1    2    0    0  0.74092129484E+01  0.26564114209E+02 -0.66842365831E+02  0.72308024936E+02  0.00000000000E+00 0.  1.
         11    1    1    2    0    0  0.13482681266E+03 -0.35534222838E+02 -0.51436968385E+03  0.53293256803E+03  0.00000000000E+00 0. -1.
</event>
<event>
 7    1  0.2686828E-009  0.2130069E+03  0.7561462E-02  0.1139207E+00
         -1   -1    0    0    0  501 -0.00000000000E+00  0.00000000000E+00  0.14672900064E+03  0.14672900064E+03  0.00000000000E+00 0.  1.
          1   -1    0    0  501    0  0.00000000000E+00 -0.00000000000E+00 -0.47287956967E+03  0.47287956967E+03  0.00000000000E+00 0. -1.
         25    2    1    2    0    0 -0.18354787000E+03  0.49050541432E+02 -0.33942571542E+03  0.40859894775E+03  0.12508999807E+03 0.  0.
          5    1    3    3  502    0 -0.13707452148E+03 -0.17275849864E+02 -0.15833360820E+03  0.21017821798E+03  0.41800000000E+01 0. -1.
         -5    1    3    3    0  502 -0.46473348523E+02  0.66326391296E+02 -0.18109210722E+03  0.19842072977E+03  0.41800000000E+01 0. -1.
        -11    1    1    2    0    0 -0.12253796554E+01 -0.19543632349E+02  0.13693158647E+02  0.23894721476E+02  0.00000000000E+00 0. -1.
         11    1    1    2    0    0  0.18477324966E+03 -0.29506909083E+02 -0.41801226006E+00  0.18711490108E+03  0.00000000000E+00 0.  1.
</event>
<event>
 7    1  0.2686828E-009  0.1054813E+03  0.7561462E-02  0.1269174E+00
         -2   -1    0    0    0  501 -0.00000000000E+00  0.00000000000E+00  0.33001170913E+02  0.33001170913E+02  0.00000000000E+00 0.  1.
          2   -1    0    0  501    0  0.00000000000E+00 -0.00000000000E+00 -0.48104619341E+03  0.48104619341E+03  0.00000000000E+00 0. -1.
         25    2    1    2    0    0 -0.34124885698E+02  0.51362870254E+02 -0.22330726782E+03  0.26328069189E+03  0.12509170474E+03 0.  0.
          5    1    3    3  502    0 -0.44720132268E+02  0.67173126849E+02 -0.22911561834E+03  0.24294764491E+03  0.41800000000E+01 0.  1.
         -5    1    3    3    0  502  0.10595246570E+02 -0.15810256595E+02  0.58083505209E+01  0.20333046974E+02  0.41800000000E+01 0.  1.
        -11    1    1    2    0    0  0.52906812396E+02  0.31626571304E+01 -0.94898480461E+02  0.10869615813E+03  0.00000000000E+00 0.  1.
         11    1    1    2    0    0 -0.18781926698E+02 -0.54525527384E+02 -0.12983927422E+03  0.14207051431E+03  0.00000000000E+00 0. -1.
</event>
<event>
 7    1  0.2686828E-009  0.1102283E+03  0.7561462E-02  0.1260148E+00
          2   -1    0    0  501    0  0.00000000000E+00  0.00000000000E+00  0.24939030684E+03  0.24939030684E+03  0.00000000000E+00 0. -1.
         -2   -1    0    0    0  501 -0.00000000000E+00 -0.00000000000E+00 -0.54957254554E+02  0.54957254554E+02  0.00000000000E+00 0.  1.
         25    2    1    2    0    0  0.79464902205E+01  0.26338203695E+02  0.68813879416E+02  0.14539586075E+03  0.12509100145E+03 0.  0.
          5    1    3    3  502    0 -0.19916956866E+00  0.74964831279E+02  0.24515404342E+02  0.78982549005E+02  0.41800000000E+01 0. -1.
         -5    1    3    3    0  502  0.81456597892E+01 -0.48626627585E+02  0.44298475074E+02  0.66413311750E+02  0.41800000000E+01 0. -1.
        -11    1    1    2    0    0  0.38812053854E+01  0.34094575136E+02  0.58833077631E+02  0.68108992302E+02  0.00000000000E+00 0. -1.
         11    1    1    2    0    0 -0.11827695606E+02 -0.60432778831E+02  0.66786095238E+02  0.90842708335E+02  0.00000000000E+00 0.  1.
</event>
<event>
 7    1  0.2686828E-009  0.1824720E+03  0.7561462E-02  0.1165432E+00
          2   -1    0    0  501    0  0.00000000000E+00  0.00000000000E+00  0.30180095465E+03  0.30180095465E+03  0.00000000000E+00 0. -1.
         -2   -1    0    0    0  501 -0.00000000000E+00 -0.00000000000E+00 -0.12382535362E+03  0.12382535362E+03  0.00000000000E+00 0.  1.
         25    2    1    2    0    0 -0.14961760720E+03 -0.21378337617E+02  0.35327844956E+02  0.19935528720E+03  0.12510800216E+03 0.  0.
          5    1    3    3  502    0 -0.13899220365E+03 -0.61278739410E+02  0.41188197412E+02  0.15744159738E+03  0.41800000000E+01 0. -1.
         -5    1    3    3    0  502 -0.10625403548E+02  0.39900401794E+02 -0.58603524563E+01  0.41913689825E+02  0.41800000000E+01 0. -1.
        -11    1    1    2    0    0  0.67040055586E+02 -0.30826796174E+02  0.37599946465E+02  0.82815556447E+02  0.00000000000E+00 0.  1.
         11    1    1    2    0    0  0.82577551611E+02  0.52205133791E+02  0.10504780961E+03  0.14345546462E+03  0.00000000000E+00 0. -1.
</event>
<event>
 7    1  0.2686828E-009  0.1235805E+03  0.7561462E-02  0.1237305E+00
          1   -1    0    0  501    0  0.00000000000E+00  0.00000000000E+00  0.22035540641E+03  0.22035540641E+03  0.00000000000E+00 0. -1.
         -1   -1    0    0    0  501 -0.00000000000E+00 -0.00000000000E+00 -0.10454157968E+03  0.10454157968E+03  0.00000000000E+00 0.  1.
         25    2    1    2    0    0  0.99438386465E+02  0.36125231965E+02  0.64103019852E+02  0.17592236782E+03  0.12508579958E+03 0.  0.
          5    1    3    3  502    0  0.56628160797E+02  0.52475793238E+02  0.93492797866E+02  0.12132119816E+03  0.41800000000E+01 0. -1.
         -5    1    3    3    0  502  0.42810225669E+02 -0.16350561273E+02 -0.29389778014E+02  0.54601169653E+02  0.41800000000E+01 0. -1.
        -11    1    1    2    0    0 -0.26689235013E+02  0.18822488717E+02 -0.15066055018E+02  0.35966475514E+02  0.00000000000E+00 0.  1.
         11    1    1    2    0    0 -0.72749151452E+02 -0.54947720682E+02  0.66776861891E+02  0.11300814276E+03  0.00000000000E+00 0. -1.
</event>
<event>
 7    1  0.2686828E-009  0.1183180E+03  0.7561462E-02  0.1245898E+00
         -1   -1    0    0    0  501 -0.00000000000E+00  0.00000000000E+00  0.12151546017E+02  0.12151546017E+02  0.00000000000E+00 0.  1.
          1   -1    0    0  501    0  0.00000000000E+00 -0.00000000000E+00 -0.12788734483E+04  0.12788734483E+04  0.00000000000E+00 0. -1.
         25    2    1    2    0    0 -0.26344771862E+02  0.48835939561E+02 -0.83464798579E+03  0.84579102822E+03  0.12508480024E+03 0.  0.
          5    1    3    3  502    0  0.46666037640E+02  0.25606026926E+02 -0.47857879805E+03  0.48154805163E+03  0.41800000000E+01 0. -1.
         -5    1    3    3    0  502 -0.73010809502E+02  0.23229912635E+02 -0.35606918773E+03  0.36424297659E+03  0.41800000000E+01 0. -1.
        -11    1    1    2    0    0 -0.18697549167E+02 -0.57657375873E+02 -0.21628624449E+03  0.22461903502E+03  0.00000000000E+00 0. -1.
         11    1    1    2    0    0  0.45042321030E+02  0.88214363116E+01 -0.21578767201E+03  0.22061493107E+03  0.00000000000E+00 0.  1.
</event>
<event>
 7    1  0.2686828E-009  0.1622271E+03  0.7561462E-02  0.1186205E+00
         -1   -1    0    0    0  501 -0.00000000000E+00  0.00000000000E+00  0.40826161604E+02  0.40826161604E+02  0.00000000000E+00 0.  1.
          1   -1    0    0  501    0  0.00000000000E+00 -0.00000000000E+00 -0.80675965221E+03  0.80675965221E+03  0.00000000000E+00 0. -1.
         25    2    1    2    0    0 -0.86585408829E+02 -0.88201217480E+02 -0.22822953080E+03  0.28811934829E+03  0.12509017684E+03 0.  0.
          5    1    3    3  502    0 -0.10600887475E+03 -0.28030130465E+02 -0.11923309089E+03  0.16204188379E+03  0.41800000000E+01 0. -1.
         -5    1    3    3    0  502  0.19423465918E+02 -0.60171087015E+02 -0.10899643991E+03  0.12607746450E+03  0.41800000000E+01 0. -1.
        -11    1    1    2    0    0  0.45770194534E+02 -0.83561360296E+01 -0.22166437979E+03  0.22649466437E+03  0.00000000000E+00 0.  1.
         11    1    1    2    0    0  0.40815214295E+02  0.96557353509E+02 -0.31603958001E+03  0.33297180116E+03  0.00000000000E+00 0. -1.
</event>
<event>
 7    1  0.2686828E-009  0.2086702E+03  0.7561462E-02  0.1142623E+00
         -1   -1    0    0    0  501 -0.00000000000E+00  0.00000000000E+00  0.30051473608E+02  0.30051473608E+02  0.00000000000E+00 0.  1.
          1   -1    0    0  501    0  0.00000000000E+00 -0.00000000000E+00 -0.16237534763E+04  0.16237534763E+04  0.00000000000E+00 0. -1.
         25    2    1    2    0    0  0.19188275367E+03  0.34705798844E+02 -0.88714853397E+03  0.91689880332E+03  0.12508961020E+03 0.  0.
          5    1    3    3  502    0  0.19667865733E+03  0.20341453225E+02 -0.65468701532E+03  0.68390703271E+03  0.41800000000E+01 0.  1.
         -5    1    3    3    0  502 -0.47959036638E+01  0.14364345619E+02 -0.23246151865E+03  0.23299177061E+03  0.41800000000E+01 0.  1.
        -11    1    1    2    0    0 -0.10303988308E+03 -0.48616182952E+02 -0.30970856252E+03  0.33000021886E+03  0.00000000000E+00 0. -1.
         11    1    1    2    0    0 -0.88842870591E+02  0.13910384108E+02 -0.39684490618E+03  0.40690592771E+03  0.00000000000E+00 0.  1.
</event>
<event>
 7    1  0.2686828E-009  0.1111462E+03  0.7561462E-02  0.1258462E+00
         -1   -1    0    0    0  501 -0.00000000000E+00  0.00000000000E+00  0.53642401098E+02  0.53642401098E+02  0.00000000000E+00 0.  1.
          1   -1    0    0  501    0  0.00000000000E+00 -0.00000000000E+00 -0.25205891047E+03  0.25205891047E+03  0.00000000000E+00 0. -1.
         25    2    1    2    0    0  0.79899477389E+01  0.32502413830E+02 -0.82357742919E+02  0.15347006908E+03  0.12510003244E+03 0.  0.
          5    1    3    3  502    0 -0.41509071615E+02 -0.26849663302E+02 -0.47142525539E+02  0.68438275548E+02  0.41800000000E+01 0.  1.
         -5    1    3    3    0  502  0.49499019354E+02  0.59352077132E+02 -0.35215217381E+02  0.85031793537E+02  0.41800000000E+01 0.  1.
        -11    1    1    2    0    0  0.81882685874E+01  0.29805151771E+02 -0.57143133739E+02  0.64967165153E+02  0.00000000000E+00 0. -1.
         11    1    1    2    0    0 -0.16178216326E+02 -0.62307565601E+02 -0.58915632718E+02  0.87264077335E+02  0.00000000000E+00 0.  1.
</event>
<event>
 7    1  0.2686828E-009  0.6917188E+02  0.7561462E-02  0.1362932E+00
          1   -1    0    0  501    0  0.00000000000E+00  0.00000000000E+00  0.52495431897E+02  0.52495431897E+02  0.00000000000E+00 0. -1.
         -1   -1    0    0    0  501 -0.00000000000E+00 -0.00000000000E+00 -0.27415973305E+03  0.27415973305E+03  0.00000000000E+00 0.  1.
         25    2    1    2    0    0  0.29969393868E+02  0.12204158854E+02 -0.18245911422E+03  0.22356930619E+03  0.12507917590E+03 0.  0.
          5    1    3    3  502    0  0.47693361108E+02 -0.28952406036E-01 -0.89830724421E+01  0.48711656947E+02  0.41800000000E+01 0.  1.
         -5    1    3    3    0  502 -0.17723967240E+02  0.12233111260E+02 -0.17347604178E+03  0.17485764924E+03  0.41800000000E+01 0.  1.
        -11    1    1    2    0    0 -0.46786789882E+02 -0.18857661530E+02 -0.58091474184E+02  0.76936561391E+02  0.00000000000E+00 0.  1.
         11    1    1    2    0    0  0.16817396014E+02  0.66535026758E+01  0.18886287255E+02  0.26149297368E+02  0.00000000000E+00 0. -1.
</event>
<event>
 7    1  0.2686828E-009  0.1389606E+03  0.7561462E-02  0.1214734E+00
         -1   -1    0    0    0  501 -0.00000000000E+00  0.00000000000E+00  0.27242478109E+02  0.27242478109E+02  0.00000000000E+00 0.  1.
          1   -1    0    0  501    0  0.00000000000E+00 -0.00000000000E+00 -0.90632573880E+03  0.90632573880E+03  0.00000000000E+00 0. -1.
         25    2    1    2    0    0 -0.91034526639E+02 -0.36755956677E+02 -0.30532462952E+03  0.34425222565E+03  0.12509268597E+03 0.  0.
          5    1    3    3  502    0 -0.96567118198E+02  0.19920918931E+02 -0.15847095626E+03  0.18668842413E+03  0.41800000000E+01 0. -1.
         -5    1    3    3    0  502  0.55325915593E+01 -0.56676875607E+02 -0.14685367327E+03  0.15756380152E+03  0.41800000000E+01 0. -1.
        -11    1    1    2    0    0  0.96936413432E+02  0.13178878076E+02 -0.53265682977E+03  0.54156592339E+03  0.00000000000E+00 0. -1.
         11    1    1    2    0    0 -0.59018867928E+01  0.23577078600E+02 -0.41101801402E+02  0.47750067869E+02  0.00000000000E+00 0.  1.
</event>
<event>
 7    1  0.2686828E-009  0.1097044E+03  0.7561462E-02  0.1261118E+00
         -1   -1    0    0    0  501 -0.00000000000E+00  0.00000000000E+00  0.12097449126E+02  0.12097449126E+02  0.00000000000E+00 0.  1.
          1   -1    0    0  501    0  0.00000000000E+00 -0.00000000000E+00 -0.10786666955E+04  0.10786666955E+04  0.00000000000E+00 0. -1.
         25    2    1    2    0    0 -0.45958444080E+00 -0.34175771110E+02 -0.69096340718E+03  0.70302656244E+03  0.12509085852E+03 0.  0.
          5    1    3    3  502    0 -0.59590135921E+02 -0.34983599557E+02 -0.41862883256E+03  0.42431404453E+03  0.41800000000E+01 0. -1.
         -5    1    3    3    0  502  0.59130551480E+02  0.80782844625E+00 -0.27233457462E+03  0.27871251790E+03  0.41800000000E+01 0. -1.
        -11    1    1    2    0    0  0.19777156358E+02  0.57387756486E+02 -0.30439343655E+03  0.31038662137E+03  0.00000000000E+00 0.  1.
         11    1    1    2    0    0 -0.19317571917E+02 -0.23211985376E+02 -0.71212402687E+02  0.77350960862E+02  0.00000000000E+00 0. -1.
</event>
<event>
 7    1  0.2686828E-009  0.1650930E+03  0.7561462E-02  0.1183064E+00
          1   -1    0    0  501    0  0.00000000000E+00  0.00000000000E+00  0.12315700215E+04  0.12315700215E+04  0.00000000000E+00 0. -1.
         -1   -1    0    0    0  501 -0.00000000000E+00 -0.00000000000E+00 -0.29950852522E+02  0.29950852522E+02  0.00000000000E+00 0.  1.
         25    2    1    2    0    0  0.11731320299E+03 -0.60840595100E+02  0.91586049682E+03  0.93376209724E+03  0.12508892438E+03 0.  0.
          5    1    3    3  502    0  0.41847330204E+02 -0.85673140091E+02  0.36887943666E+03  0.38102571720E+03  0.41800000000E+01 0. -1.
         -5    1    3    3    0  502  0.75465872784E+02  0.24832544991E+02  0.54698106016E+03  0.55273638004E+03  0.41800000000E+01 0. -1.
        -11    1    1    2    0    0  0.28400331527E+01 -0.13568937783E+02  0.77317532399E+01  0.15873306809E+02  0.00000000000E+00 0. -1.
         11    1    1    2    0    0 -0.12015323614E+03  0.74409532884E+02  0.27802691896E+03  0.31188547001E+03  0.00000000000E+00 0.  1.
</event>
<event>
 7    1  0.2686828E-009  0.8208164E+02  0.7561462E-02  0.1323246E+00
         -2   -1    0    0    0  501 -0.00000000000E+00  0.00000000000E+00  0.66611846171E+02  0.66611846171E+02  0.00000000000E+00 0.  1.
          2   -1    0    0  501    0  0.00000000000E+00 -0.00000000000E+00 -0.26691982216E+03  0.26691982216E+03  0.00000000000E+00 0. -1.
         25    2    1    2    0    0 -0.45487543985E+02 -0.43124719521E+02 -0.52147059951E+02  0.14931662844E+03  0.12508909455E+03 0.  0.
          5    1    3    3  502    0 -0.42031384450E+02  0.11507829849E+02  0.28148100542E+02  0.52046665510E+02  0.41800000000E+01 0. -1.
         -5    1    3    3    0  502 -0.34561595350E+01 -0.54632549370E+02 -0.80295160493E+02  0.97269962928E+02  0.41800000000E+01 0. -1.
        -11    1    1    2    0    0  0.28112960567E+02  0.13608305934E+02  0.92334253590E+00  0.31247033518E+02  0.00000000000E+00 0.  1.
         11    1    1    2    0    0  0.17374583418E+02  0.29516413586E+02 -0.14908425858E+03  0.15296800638E+03  0.00000000000E+00 0. -1.
</event>
<event>
 7    1  0.2686828E-009  0.1245121E+03  0.7561462E-02  0.1235834E+00
         -2   -1    0    0    0  501 -0.00000000000E+00  0.00000000000E+00  0.14157127933E+03  0.14157127933E+03  0.00000000000E+00 0. -1.
          2   -1    0    0  501    0  0.00000000000E+00 -0.00000000000E+00 -0.12349331636E+03  0.12349331636E+03  0.00000000000E+00 0.  1.
         25    2    1    2    0    0 -0.72196783329E+02  0.17375798818E+02  0.20409710575E+02  0.14689587394E+03  0.12509015784E+03 0.  0.
          5    1    3    3  502    0 -0.81974268452E+01  0.59273628224E+02 -0.15992287937E+02  0.62078873083E+02  0.41800000000E+01 0. -1.
         -5    1    3    3    0  502 -0.63999356484E+02 -0.41897829406E+02  0.36401998513E+02  0.84817000860E+02  0.41800000000E+01 0. -1.
        -11    1    1    2    0    0 -0.15554323836E+02  0.12267356650E+02 -0.14776385506E+02  0.24713692517E+02  0.00000000000E+00 0.  1.
         11    1    1    2    0    0  0.87751107165E+02 -0.29643155468E+02  0.12444637905E+02  0.93455029225E+02  0.00000000000E+00 0. -1.
</event>
<event>
 7    1  0.2686828E-009  0.2095783E+03  0.7561462E-02  0.1141900E+00
          2   -1    0    0  501    0  0.00000000000E+00  0.00000000000E+00  0.21961512395E+03  0.21961512395E+03  0.00000000000E+00 0. -1.
         -2   -1    0    0    0  501 -0.00000000000E+00 -0.00000000000E+00 -0.24578822336E+03  0.24578822336E+03  0.00000000000E+00 0.  1.
         25    2    1    2    0    0 -0.16541702392E+03  0.12306941049E+03 -0.34444224058E+02  0.24360638060E+03  0.12509513379E+03 0.  0.
          5    1    3    3  502    0 -0.14443913511E+03  0.94605520089E+02 -0.76160633906E+02  0.18876117911E+03  0.41800000000E+01 0.  1.
         -5    1    3    3    0  502 -0.20977888810E+02  0.28463890397E+02  0.41716409848E+02  0.54845201486E+02  0.41800000000E+01 0.  1.
        -11    1    1    2    0    0  0.88736837106E+02 -0.92800409828E+02 -0.28510173059E+02  0.13152555756E+03  0.00000000000E+00 0.  1.
         11    1    1    2    0    0  0.76680186811E+02 -0.30269000657E+02  0.36781297702E+02  0.90271409154E+02  0.00000000000E+00 0. -1.
</event>
<event>
 7    1  0.2686828E-009  0.1299911E+03  0.7561462E-02  0.1227469E+00
         -2   -1    0    0    0  501 -0.00000000000E+00  0.00000000000E+00  0.19429137972E+03  0.19429137972E+03  0.00000000000E+00 0.  1.
          2   -1    0    0  501    0  0.00000000000E+00 -0.00000000000E+00 -0.10361358415E+03  0.10361358415E+03  0.00000000000E+00 0. -1.
         25    2    1    2    0    0  0.97351246924E+01 -0.73307863821E+02  0.10722846905E+03  0.18059428870E+03  0.12509011546E+03 0.  0.
          5    1    3    3  502    0 -0.42249142245E+02 -0.80724987016E+02  0.55509226463E+02  0.10677200088E+03  0.41800000000E+01 0. -1.
         -5    1    3    3    0  502  0.51984266937E+02  0.74171231953E+01  0.51719242590E+02  0.73822287824E+02  0.41800000000E+01 0. -1.
        -11    1    1    2    0    0  0.12662907096E+02  0.88261815909E+02 -0.14015568905E+02  0.90260365252E+02  0.00000000000E+00 0.  1.
         11    1    1    2    0    0 -0.22398031788E+02 -0.14953952089E+02 -0.25351045832E+01  0.27050309911E+02  0.00000000000E+00 0. -1.
</event>
<event>
 7    1  0.2686828E-009  0.1151792E+03  0.7561462E-02  0.1251269E+00
         -3   -1    0    0    0  501 -0.00000000000E+00  0.00000000000E+00  0.19342865481E+03  0.19342865481E+03  0.00000000000E+00 0.  1.
          3   -1    0    0  501    0  0.00000000000E+00 -0.00000000000E+00 -0.11252582507E+03  0.11252582507E+03  0.00000000000E+00 0. -1.
         25    2    1    2    0    0  0.45631617643E+02  0.10719281165E+02  0.13496233834E+03  0.18989358845E+03  0.12509034593E+03 0.  0.
          5    1    3    3  502    0  0.72400711295E+02  0.48337450463E+02  0.85135230242E+02  0.12183534767E+03  0.41800000000E+01 0. -1.
         -5    1    3    3    0  502 -0.26769093653E+02 -0.37618169298E+02  0.49827108100E+02  0.68058240779E+02  0.41800000000E+01 0. -1.
        -11    1    1    2    0    0 -0.39368811596E+02  0.33799684642E+02 -0.94766939815E+01  0.52745897824E+02  0.00000000000E+00 0.  1.
         11    1    1    2    0    0 -0.62628060466E+01 -0.44518965807E+02 -0.44582814619E+02  0.63314993607E+02  0.00000000000E+00 0. -1.
</event>
<event>
 7    1  0.2686828E-009  0.7190742E+02  0.7561462E-02  0.1353724E+00
          2   -1    0    0  501    0  0.00000000000E+00  0.00000000000E+00  0.26159214763E+03  0.26159214763E+03  0.00000000000E+00 0. -1.
         -2   -1    0    0    0  501 -0.00000000000E+00 -0.00000000000E+00 -0.52914585383E+02  0.52914585383E+02  0.00000000000E+00 0.  1.
         25    2    1    2    0    0 -0.14437166432E+02  0.24702309823E+02  0.70058157339E+02  0.14620423217E+03  0.12509554832E+03 0.  0.
          5    1    3    3  502    0 -0.48866010257E+02 -0.92026650271E+01  0.82241522259E+02  0.96196238936E+02  0.41800000000E+01 0.  1.
         -5    1    3    3    0  502  0.34428843825E+02  0.33904974850E+02 -0.12183364920E+02  0.50007993236E+02  0.41800000000E+01 0.  1.
        -11    1    1    2    0    0  0.16609742121E+02  0.36267033166E+01 -0.81179453820E+01  0.18839786291E+02  0.00000000000E+00 0.  1.
         11    1    1    2    0    0 -0.21725756893E+01 -0.28329013139E+02  0.14673735029E+03  0.14946271455E+03  0.00000000000E+00 0. -1.
</event>
<event>
 7    1  0.2686828E-009  0.1044719E+03  0.7561462E-02  0.1271164E+00
          2   -1    0    0  501    0  0.00000000000E+00  0.00000000000E+00  0.18633354278E+03  0.18633354278E+03  0.00000000000E+00 0. -1.
         -2   -1    0    0    0  501 -0.00000000000E+00 -0.00000000000E+00 -0.80003840917E+02  0.80003840917E+02  0.00000000000E+00 0.  1.
         25    2    1    2    0    0 -0.22920225654E+02 -0.43627379611E+02  0.31713025828E+02  0.13813952281E+03  0.12509247283E+03 0.  0.
          5    1    3    3  502    0 -0.54446079843E+02 -0.54216407903E+02 -0.17195522033E+02  0.78847656111E+02  0.41800000000E+01 0.  1.
         -5    1    3    3    0  502  0.31525854189E+02  0.10589028292E+02  0.48908547860E+02  0.59291866696E+02  0.41800000000E+01 0.  1.
        -11    1    1    2    0    0 -0.24404204412E+02  0.44933859189E+02  0.59604489477E+02  0.78532235804E+02  0.00000000000E+00 0. -1.
         11    1    1    2    0    0  0.47324430066E+02 -0.13064795778E+01  0.15012186560E+02  0.49665625086E+02  0.00000000000E+00 0.  1.
</event>
<event>
 7    1  0.2686828E-009  0.1054690E+03  0.7561462E-02  0.1269198E+00
          2   -1    0    0  501    0  0.00000000000E+00  0.00000000000E+00  0.75472370332E+03  0.75472370332E+03  0.00000000000E+00 0. -1.
         -2   -1    0    0    0  501 -0.00000000000E+00 -0.00000000000E+00 -0.15758538784E+02  0.15758538784E+02  0.00000000000E+00 0.  1.
         25    2    1    2    0    0  0.33298846863E+02  0.52972600824E+01  0.45155051673E+03  0.46976812875E+03  0.12508937391E+03 0.  0.
          5    1    3    3  502    0  0.28351176095E+02  0.61013383594E+02  0.31526863696E+03  0.32239449129E+03  0.41800000000E+01 0.  1.
         -5    1    3    3    0  502  0.49476707680E+01 -0.55716123512E+02  0.13628187977E+03  0.14737363746E+03  0.41800000000E+01 0.  1.
        -11    1    1    2    0    0 -0.28229484006E+02  0.36046489212E+02  0.17289655810E+03  0.17885601180E+03  0.00000000000E+00 0.  1.
         11    1    1    2    0    0 -0.50693628565E+01 -0.41343749295E+02  0.11451808970E+03  0.12185810155E+03  0.00000000000E+00 0. -1.
</event>
<event>
 7    1  0.2686828E-009  0.1157234E+03  0.7561462E-02  0.1250324E+00
         -2   -1    0    0    0  501 -0.00000000000E+00  0.00000000000E+00  0.38860012440E+02  0.38860012440E+02  0.00000000000E+00 0.  1.
          2   -1    0    0  501    0  0.00000000000E+00 -0.00000000000E+00 -0.48616609420E+03  0.48616609420E+03  0.00000000000E+00 0. -1.
         25    2    1    2    0    0 -0.68569807800E+02 -0.13263745055E+02 -0.15058770720E+03  0.20784983344E+03  0.12508856953E+03 0.  0.
          5    1    3    3  502    0 -0.67026020728E+02 -0.53257332382E+02 -0.14326699201E+03  0.16694829830E+03  0.41800000000E+01 0. -1.
         -5    1    3    3    0  502 -0.15437870717E+01  0.39993587327E+02 -0.73207151950E+01  0.40901535140E+02  0.41800000000E+01 0. -1.
        -11    1    1    2    0    0  0.19872519406E+01 -0.27403541144E+02 -0.37612940493E+02  0.46579357338E+02  0.00000000000E+00 0.  1.
         11    1    1    2    0    0  0.66582555859E+02  0.40667286199E+02 -0.25910543406E+03  0.27059691586E+03  0.00000000000E+00 0. -1.
</event>
<event>
 7    1  0.3781311E-009  0.1478306E+03  0.7561462E-02  0.1203164E+00
          1   -1    0    0  501    0  0.00000000000E+00  0.00000000000E+00  0.42358862664E+03  0.42358862664E+03  0.00000000000E+00 0. -1.
         -1   -1    0    0    0  501 -0.00000000000E+00 -0.00000000000E+00 -0.62678940458E+02  0.62678940458E+02  0.00000000000E+00 0.  1.
         25    2    1    2    0    0 -0.10900184427E+03  0.53384806185E+02  0.19336605797E+03  0.26032654031E+03  0.12509250828E+03 0.  0.
          5    1    3    3  502    0 -0.12209593194E+03  0.64202562279E+01  0.15859673499E+03  0.20029736153E+03  0.41800000000E+01 0.  1.
         -5    1    3    3    0  502  0.13094087667E+02  0.46964549957E+02  0.34769322984E+02  0.60029178782E+02  0.41800000000E+01 0.  1.
        -11    1    1    2    0    0  0.77221262855E+02 -0.23378475438E+02  0.37924912139E+02  0.89151419010E+02  0.00000000000E+00 0.  1.
         11    1    1    2    0    0  0.31780581417E+02 -0.30006330746E+02  0.12961871607E+03  0.13678960778E+03  0.00000000000E+00 0. -1.
</event>
<event>
 7    1  0.2686828E-009  0.2166120E+03  0.7561462E-02  0.1136434E+00
         -1   -1    0    0    0  501 -0.00000000000E+00  0.00000000000E+00  0.13760745840E+03  0.13760745840E+03  0.00000000000E+00 0.  1.
          1   -1    0    0  501    0  0.00000000000E+00 -0.00000000000E+00 -0.42327716848E+03  0.42327716848E+03  0.00000000000E+00 0. -1.
         25    2    1    2    0    0 -0.86778643809E+02 -0.19732995339E+03 -0.15443978731E+03  0.29320427706E+03  0.12508979437E+03 0.  0.
          5    1    3    3  502    0 -0.55247016691E+02 -0.11839563548E+03 -0.17373473860E+02  0.13186762055E+03  0.41800000000E+01 0. -1.
         -5    1    3    3    0  502 -0.31531627119E+02 -0.78934317906E+02 -0.13706631346E+03  0.16133665652E+03  0.41800000000E+01 0. -1.
        -11    1    1    2    0    0  0.40369858572E+02  0.58941808353E+02 -0.63266726229E-01  0.71441348362E+02  0.00000000000E+00 0.  1.
         11    1    1    2    0    0  0.46408785237E+02  0.13838814503E+03 -0.13116665604E+03  0.19623900145E+03  0.00000000000E+00 0. -1.
</event>
<event>
 7    1  0.2686828E-009  0.1175845E+03  0.7561462E-02  0.1247136E+00
         -1   -1    0    0    0  501 -0.00000000000E+00  0.00000000000E+00  0.70009392359E+02  0.70009392359E+02  0.00000000000E+00 0.  1.
          1   -1    0    0  501    0  0.00000000000E+00 -0.00000000000E+00 -0.23838730258E+03  0.23838730258E+03  0.00000000000E+00 0. -1.
         25    2    1    2    0    0  0.70022010237E+01 -0.69555189247E+02 -0.90960547450E+02  0.16972958464E+03  0.12508939019E+03 0.  0.
          5    1    3    3  502    0 -0.79612149772E+01 -0.10322341246E+03 -0.80476332007E+02  0.13119590785E+03  0.41800000000E+01 0.  1.
         -5    1    3    3    0  502  0.14963416001E+02  0.33668223216E+02 -0.10484215443E+02  0.38533676783E+02  0.41800000000E+01 0.  1.
        -11    1    1    2    0    0 -0.31924437897E+02  0.16677688592E+02  0.62954586601E+01  0.36564297225E+02  0.00000000000E+00 0.  1.
         11    1    1    2    0    0  0.24922236873E+02  0.52877500655E+02 -0.83712821435E+02  0.10210281308E+03  0.00000000000E+00 0. -1.
</event>
<event>
 7    1  0.2686828E-009  0.1747926E+03  0.7561462E-02  0.1172940E+00
          2   -1    0    0  501    0  0.00000000000E+00  0.00000000000E+00  0.99377069296E+03  0.99377069296E+03  0.00000000000E+00 0. -1.
         -2   -1    0    0    0  501 -0.00000000000E+00 -0.00000000000E+00 -0.46116644898E+02  0.46116644898E+02  0.00000000000E+00 0.  1.
         25    2    1    2    0    0 -0.14188384063E+03 -0.79945787725E+02  0.28394565860E+03  0.35042009529E+03  0.12508698150E+03 0.  0.
          5    1    3    3  502    0 -0.14599809359E+02 -0.16692264407E+02  0.16061053317E+03  0.16218816815E+03  0.41800000000E+01 0. -1.
         -5    1    3    3    0  502 -0.12728403128E+03 -0.63253523318E+02  0.12333512543E+03  0.18823192714E+03  0.41800000000E+01 0. -1.
        -11    1    1    2    0    0  0.13293929872E+03  0.32921461307E+02  0.44577781541E+03  0.46634165637E+03  0.00000000000E+00 0.  1.
         11    1    1    2    0    0  0.89445419134E+01  0.47024326418E+02  0.21793057406E+03  0.22312558619E+03  0.00000000000E+00 0. -1.
</event>
<event>
 7    1  0.2686828E-009  0.1252314E+03  0.7561462E-02  0.1234708E+00
         -1   -1    0    0    0  501 -0.00000000000E+00  0.00000000000E+00  0.31547314502E+03  0.31547314502E+03  0.00000000000E+00 0.  1.
          1   -1    0    0  501    0  0.00000000000E+00 -0.00000000000E+00 -0.53691105555E+02  0.53691105555E+02  0.00000000000E+00 0. -1.
         25    2    1    2    0    0  0.63175711514E+02 -0.16510028310E+02  0.10317655164E+03  0.17480501861E+03  0.12509053586E+03 0.  0.
          5    1    3    3  502    0  0.99980915779E+02 -0.10398451173E+02  0.58235458871E+02  0.11624608543E+03  0.41800000000E+01 0. -1.
         -5    1    3    3    0  502 -0.36805204265E+02 -0.61115771374E+01  0.44941092774E+02  0.58558933185E+02  0.41800000000E+01 0. -1.
        -11    1    1    2    0    0 -0.24039549064E+02  0.53380904730E+02  0.84712706226E+02  0.10297409143E+03  0.00000000000E+00 0.  1.
         11    1    1    2    0    0 -0.39136162449E+02 -0.36870876420E+02  0.73892781598E+02  0.91385140540E+02  0.00000000000E+00 0. -1.
</event>
<event>
 7    1  0.2686828E-009  0.9726171E+02  0.7561462E-02  0.1286162E+00
         -2   -1    0    0    0  501 -0.00000000000E+00  0.00000000000E+00  0.17133362526E+02  0.17133362526E+02  0.00000000000E+00 0.  1.
          2   -1    0    0  501    0  0.00000000000E+00 -0.00000000000E+00 -0.92450190034E+03  0.92450190034E+03  0.00000000000E+00 0. -1.
         25    2    1    2    0    0 -0.21061699198E+02 -0.44468778941E+02 -0.66302858126E+03  0.67651768625E+03  0.12509281661E+03 0.  0.
          5    1    3    3  502    0  0.49279651145E+02 -0.20686655465E+00 -0.30202989148E+03  0.30605237224E+03  0.41800000000E+01 0. -1.
         -5    1    3    3    0  502 -0.70341350342E+02 -0.44261912387E+02 -0.36099868979E+03  0.37046531401E+03  0.41800000000E+01 0. -1.
        -11    1    1    2    0    0  0.32024237195E+02  0.32711233155E+02 -0.24479232166E+03  0.24903585543E+03  0.00000000000E+00 0. -1.
         11    1    1    2    0    0 -0.10962537997E+02  0.11757545787E+02  0.45236510874E+00  0.16081721191E+02  0.00000000000E+00 0.  1.
</event>
<event>
 7    1  0.2686828E-009  0.8751903E+02  0.7561462E-02  0.1308973E+00
          1   -1    0    0  501    0  0.00000000000E+00  0.00000000000E+00  0.35319473571E+03  0.35319473571E+03  0.00000000000E+00 0. -1.
         -1   -1    0    0    0  501 -0.00000000000E+00 -0.00000000000E+00 -0.76399660168E+02  0.76399660168E+02  0.00000000000E+00 0.  1.
         25    2    1    2    0    0  0.65970390758E+01 -0.10734506285E+02  0.30798198493E+03  0.33265423817E+03  0.12508872286E+03 0.  0.
          5    1    3    3  502    0 -0.25790821835E+02 -0.54176555289E+02  0.91830909258E+02  0.10977547053E+03  0.41800000000E+01 0. -1.
         -5    1    3    3    0  502  0.32387860910E+02  0.43442049003E+02  0.21615107567E+03  0.22287876765E+03  0.41800000000E+01 0. -1.
        -11    1    1    2    0    0  0.13355570191E+02 -0.19910401447E+02  0.21903919114E+02  0.32474251546E+02  0.00000000000E+00 0. -1.
         11    1    1    2    0    0 -0.19952609266E+02  0.30644907732E+02 -0.53090828498E+02  0.64465906160E+02  0.00000000000E+00 0.  1.
</event>
<event>
 7    1  0.2686828E-009  0.1049616E+03  0.7561462E-02  0.1270195E+00
          2   -1    0    0  501    0  0.00000000000E+00  0.00000000000E+00  0.80425093158E+02  0.80425093158E+02  0.00000000000E+00 0. -1.
         -2   -1    0    0    0  501 -0.00000000000E+00 -0.00000000000E+00 -0.18623421568E+03  0.18623421568E+03  0.00000000000E+00 0.  1.
         25    2    1    2    0    0  0.27952845886E+01 -0.46841109323E+02 -0.20222166299E+02  0.13512478485E+03  0.12509143989E+03 0.  0.
          5    1    3    3  502    0  0.52724258392E+02 -0.35690144535E+02 -0.45049625398E+02  0.78106177659E+02  0.41800000000E+01 0.  1.
         -5    1    3    3    0  502 -0.49928973804E+02 -0.11150964788E+02  0.24827459099E+02  0.57018607192E+02  0.41800000000E+01 0.  1.
        -11    1    1    2    0    0 -0.40684037395E+02  0.38456890629E+02 -0.29355151159E+02  0.63212722099E+02  0.00000000000E+00 0. -1.
         11    1    1    2    0    0  0.37888752807E+02  0.83842186934E+01 -0.56231805062E+02  0.68321801885E+02  0.00000000000E+00 0.  1.
</event>
<event>
 7    1  0.2686828E-009  0.8910548E+02  0.7561462E-02  0.1305032E+00
          1   -1    0    0  501    0  0.00000000000E+00  0.00000000000E+00  0.26173665134E+02  0.26173665134E+02  0.00000000000E+00 0. -1.
         -1   -1    0    0    0  501 -0.00000000000E+00 -0.00000000000E+00 -0.57258298114E+03  0.57258298114E+03  0.00000000000E+00 0.  1.
         25    2    1    2    0    0  0.12395012084E+02  0.12448417922E+02 -0.44506730577E+03  0.46264726427E+03  0.12509590334E+03 0.  0.
          5    1    3    3  502    0 -0.29958642124E+02 -0.18151935565E+02 -0.36653021209E+03  0.36822395601E+03  0.41800000000E+01 0. -1.
         -5    1    3    3    0  502  0.42353654208E+02  0.30600353487E+02 -0.78537093680E+02  0.94423308256E+02  0.41800000000E+01 0. -1.
        -11    1    1    2    0    0 -0.26821044853E+02 -0.46417868287E+02 -0.65773280673E+02  0.84853470134E+02  0.00000000000E+00 0.  1.
         11    1    1    2    0    0  0.14426032769E+02  0.33969450365E+02 -0.35568729558E+02  0.51255911873E+02  0.00000000000E+00 0. -1.
</event>
<event>
 7    1  0.2686828E-009  0.1005822E+03  0.7561462E-02  0.1279076E+00
          1   -1    0    0  501    0  0.00000000000E+00  0.00000000000E+00  0.26345996620E+02  0.26345996620E+02  0.00000000000E+00 0. -1.
         -1   -1    0    0    0  501 -0.00000000000E+00 -0.00000000000E+00 -0.65681083581E+03  0.65681083581E+03  0.00000000000E+00 0.  1.
         25    2    1    2    0    0  0.60996735554E+02  0.29492058325E+02 -0.43429817199E+03  0.45700213020E+03  0.12508261895E+03 0.  0.
          5    1    3    3  502    0  0.88163337221E+01  0.41861684801E+02 -0.37292362990E+03  0.37539264049E+03  0.41800000000E+01 0.  1.
         -5    1    3    3    0  502  0.52180401832E+02 -0.12369626476E+02 -0.61374542089E+02  0.81609489713E+02  0.41800000000E+01 0.  1.
        -11    1    1    2    0    0 -0.29092366855E+02  0.26885103971E+02 -0.11890528672E+03  0.12533013139E+03  0.00000000000E+00 0.  1.
         11    1    1    2    0    0 -0.31904368700E+02 -0.56377162296E+02 -0.77261380479E+02  0.10082457084E+03  0.00000000000E+00 0. -1.
</event>
<event>
 7    1  0.2686828E-009  0.1111109E+03  0.7561462E-02  0.1258526E+00
         -1   -1    0    0    0  501 -0.00000000000E+00  0.00000000000E+00  0.91969198586E+03  0.91969198586E+03  0.00000000000E+00 0.  1.
          1   -1    0    0  501    0  0.00000000000E+00 -0.00000000000E+00 -0.15946804863E+02  0.15946804863E+02  0.00000000000E+00 0. -1.
         25    2    1    2    0    0  0.33687809598E+02  0.39288204979E+02  0.55198884776E+03  0.56834566092E+03  0.12508665268E+03 0.  0.
          5    1    3    3  502    0 -0.45062473498E+02  0.88130223456E+01  0.27167670363E+03  0.27556124469E+03  0.41800000000E+01 0. -1.
         -5    1    3    3    0  502  0.78750283096E+02  0.30475182634E+02  0.28031214412E+03  0.29278441623E+03  0.41800000000E+01 0. -1.
        -11    1    1    2    0    0  0.10193135795E+02 -0.46056644512E+02  0.88187630469E+02  0.10001086285E+03  0.00000000000E+00 0. -1.
         11    1    1    2    0    0 -0.43880945393E+02  0.67684395326E+01  0.26356870277E+03  0.26728226694E+03  0.00000000000E+00 0.  1.
</event>
<event>
 7    1  0.2686828E-009  0.1720438E+03  0.7561462E-02  0.1175733E+00
          3   -1    0    0  501    0  0.00000000000E+00  0.00000000000E+00  0.27197762025E+03  0.27197762025E+03  0.00000000000E+00 0. -1.
         -3   -1    0    0    0  501 -0.00000000000E+00 -0.00000000000E+00 -0.12677930434E+03  0.12677930434E+03  0.00000000000E+00 0.  1.
         25    2    1    2    0    0  0.14582882481E+03 -0.62681614613E+01  0.37335074352E+02  0.19582423738E+03  0.12509151920E+03 0.  0.
          5    1    3    3  502    0  0.50934848660E+02 -0.63145090829E+02  0.21069937138E+02  0.83923035901E+02  0.41800000000E+01 0.  1.
         -5    1    3    3    0  502  0.94893976152E+02  0.56876929368E+02  0.16265137214E+02  0.11190120148E+03  0.41800000000E+01 0.  1.
        -11    1    1    2    0    0 -0.34194413913E+02 -0.16874953929E+02  0.75236660637E+02  0.84347952653E+02  0.00000000000E+00 0. -1.
         11    1    1    2    0    0 -0.11163441090E+03  0.23143115390E+02  0.32626580920E+02  0.11858473455E+03  0.00000000000E+00 0.  1.
</event>
<event>
 7    1  0.2686828E-009  0.9656315E+02  0.7561462E-02  0.1287694E+00
         -3   -1    0    0    0  501 -0.00000000000E+00  0.00000000000E+00  0.28713238479E+03  0.28713238479E+03  0.00000000000E+00 0.  1.
          3   -1    0    0  501    0  0.00000000000E+00 -0.00000000000E+00 -0.48397001463E+02  0.48397001463E+02  0.00000000000E+00 0. -1.
         25    2    1    2    0    0  0.23750600936E+02 -0.32771007116E+02  0.10530894024E+03  0.16844562324E+03  0.12508367257E+03 0.  0.
          5    1    3    3  502    0  0.56881111825E+02  0.20860306994E+02  0.23584379275E+02  0.65148358660E+02  0.41800000000E+01 0.  1.
         -5    1    3    3    0  502 -0.33130510889E+02 -0.53631314111E+02  0.81724560964E+02  0.10329726458E+03  0.41800000000E+01 0.  1.
        -11    1    1    2    0    0 -0.27821931475E+02 -0.74422827918E+01  0.12160897110E+03  0.12497275422E+03  0.00000000000E+00 0.  1.
         11    1    1    2    0    0  0.40713305388E+01  0.40213289908E+02  0.11817471985E+02  0.42111008795E+02  0.00000000000E+00 0. -1.
</event>
<event>
 7    1  0.2686828E-009  0.1116107E+03  0.7561462E-02  0.1257616E+00
          2   -1    0    0  501    0  0.00000000000E+00  0.00000000000E+00  0.45324131634E+03  0.45324131634E+03  0.00000000000E+00 0. -1.
         -2   -1    0    0    0  501 -0.00000000000E+00 -0.00000000000E+00 -0.33205678509E+02  0.33205678509E+02  0.00000000000E+00 0.  1.
         25    2    1    2    0    0 -0.33497421741E+02 -0.34010326893E+01  0.32575014073E+03  0.35055854442E+03  0.12507795407E+03 0.  0.
          5    1    3    3  502    0 -0.67145780956E+02 -0.37736422045E+02  0.15518623065E+03  0.17329983275E+03  0.41800000000E+01 0.  1.
         -5    1    3    3    0  502  0.33648359215E+02  0.34335389355E+02  0.17056391009E+03  0.17725871167E+03  0.41800000000E+01 0.  1.
        -11    1    1    2    0    0  0.16384006604E+02 -0.44256587660E+02  0.43872956350E+02  0.64435374776E+02  0.00000000000E+00 0. -1.
         11    1    1    2    0    0  0.17113415138E+02  0.47657620349E+02  0.50412540743E+02  0.71453075645E+02  0.00000000000E+00 0.  1.
</event>
<event>
 7    1  0.2686828E-009  0.1561445E+03  0.7561462E-02  0.1193120E+00
          1   -1    0    0  501    0  0.00000000000E+00  0.00000000000E+00  0.14488892446E+04  0.14488892446E+04  0.00000000000E+00 0. -1.
         -1   -1    0    0    0  501 -0.00000000000E+00 -0.00000000000E+00 -0.29053383684E+02  0.29053383684E+02  0.00000000000E+00 0.  1.
         25    2    1    2    0    0 -0.11752019520E+03  0.80734074023E+02  0.10917675919E+04  0.11081214056E+04  0.12509031840E+03 0.  0.
          5    1    3    3  502    0 -0.86597229830E+01 -0.95149509904E+01  0.92232636161E+01  0.16372723849E+02  0.41800000000E+01 0. -1.
         -5    1    3    3    0  502 -0.10886047221E+03  0.90249025013E+02  0.10825443283E+04  0.10917486817E+04  0.41800000000E+01 0. -1.
        -11    1    1    2    0    0  0.10440069726E+03 -0.35618044929E+02  0.28681385216E+03  0.30729519440E+03  0.00000000000E+00 0. -1.
         11    1    1    2    0    0  0.13119497938E+02 -0.45116029094E+02  0.41254416865E+02  0.62526028326E+02  0.00000000000E+00 0.  1.
</event>
<event>
 7    1  0.2686828E-009  0.1320746E+03  0.7561462E-02  0.1224410E+00
          1   -1    0    0  501    0  0.00000000000E+00  0.00000000000E+00  0.51145233180E+03  0.51145233180E+03  0.00000000000E+00 0. -1.
         -1   -1    0    0    0  501 -0.00000000000E+00 -0.00000000000E+00 -0.36802069469E+02  0.36802069469E+02  0.00000000000E+00 0.  1.
         25    2    1    2    0    0 -0.83680234105E+02 -0.11905992017E+02  0.25892930019E+03  0.29972258611E+03  0.12508042173E+03 0.  0.
          5    1    3    3  502    0 -0.87731988953E+02 -0.51393498035E+02  0.22644571469E+03  0.24826060426E+03  0.41800000000E+01 0.  1.
         -5    1    3    3    0  502  0.40517548477E+01  0.39487506018E+02  0.32483585504E+02  0.51461981851E+02  0.41800000000E+01 0.  1.
        -11    1    1    2    0    0  0.10277594634E+03  0.10851853069E+02  0.16966224028E+03  0.19866034743E+03  0.00000000000E+00 0.  1.
         11    1    1    2    0    0 -0.19095712239E+02  0.10541389488E+01  0.46058721858E+02  0.49871467735E+02  0.00000000000E+00 0. -1.
</event>
<event>
 7    1  0.2686828E-009  0.2495283E+03  0.7561462E-02  0.1113603E+00
          1   -1    0    0  501    0  0.00000000000E+00  0.00000000000E+00  0.49214542908E+03  0.49214542908E+03  0.00000000000E+00 0. -1.
         -1   -1    0    0    0  501 -0.00000000000E+00 -0.00000000000E+00 -0.14371505583E+03  0.14371505583E+03  0.00000000000E+00 0.  1.
         25    2    1    2    0    0 -0.14632360715E+02 -0.23578970679E+03  0.11211971380E+03  0.28987884952E+03  0.12509206756E+03 0.  0.
          5    1    3    3  502    0  0.19216055242E+02 -0.17638977448E+02  0.56212165171E+02  0.62110145852E+02  0.41800000000E+01 0.  1.
         -5    1    3    3    0  502 -0.33848415957E+02 -0.21815072934E+03  0.55907548632E+02  0.22776870367E+03  0.41800000000E+01 0.  1.
        -11    1    1    2    0    0  0.27238870093E+02  0.15802656825E+02  0.20640328506E+02  0.37652399227E+02  0.00000000000E+00 0. -1.
         11    1    1    2    0    0 -0.12606509378E+02  0.21998704997E+03  0.21567033094E+03  0.30832923617E+03  0.00000000000E+00 0.  1.
</event>
<event>
 7    1  0.2686828E-009  0.1722296E+03  0.7561462E-02  0.1175543E+00
          1   -1    0    0  501    0  0.00000000000E+00  0.00000000000E+00  0.80381668178E+02  0.80381668178E+02  0.00000000000E+00 0. -1.
         -1   -1    0    0    0  501 -0.00000000000E+00 -0.00000000000E+00 -0.39316137011E+03  0.39316137011E+03  0.00000000000E+00 0.  1.
         25    2    1    2    0    0  0.13250164562E+03  0.14216175253E+02 -0.11604528633E+03  0.21649489107E+03  0.12507894966E+03 0.  0.
          5    1    3    3  502    0 -0.88083468107E+01 -0.31412832717E+02 -0.11505751041E+02  0.34845483780E+02  0.41800000000E+01 0. -1.
         -5    1    3    3    0  502  0.14130999243E+03  0.45629007970E+02 -0.10453953529E+03  0.18164940729E+03  0.41800000000E+01 0. -1.
        -11    1    1    2    0    0 -0.56527122623E+02 -0.53198389518E+02 -0.11570203287E+03  0.13932819044E+03  0.00000000000E+00 0. -1.
         11    1    1    2    0    0 -0.75974523001E+02  0.38982214265E+02 -0.81032382734E+02  0.11771995679E+03  0.00000000000E+00 0.  1.
</event>
<event>
 7    1  0.2686828E-009  0.1065100E+03  0.7561462E-02  0.1267173E+00
          2   -1    0    0  501    0  0.00000000000E+00  0.00000000000E+00  0.50439569514E+03  0.50439569514E+03  0.00000000000E+00 0. -1.
         -2   -1    0    0    0  501 -0.00000000000E+00 -0.00000000000E+00 -0.24884206342E+02  0.24884206342E+02  0.00000000000E+00 0.  1.
         25    2    1    2    0    0  0.10497642604E+02  0.26044331204E+02  0.24773175851E+03  0.27893630607E+03  0.12508369591E+03 0.  0.
          5    1    3    3  502    0 -0.31325631799E+02 -0.33881189368E+02  0.14895780952E+03  0.15599721670E+03  0.41800000000E+01 0.  1.
         -5    1    3    3    0  502  0.41823274403E+02  0.59925520572E+02  0.98773948992E+02  0.12293908938E+03  0.41800000000E+01 0.  1.
        -11    1    1    2    0    0 -0.42511833460E+02  0.11608147235E+02  0.90287689276E+02  0.10046826315E+03  0.00000000000E+00 0.  1.
         11    1    1    2    0    0  0.32014190856E+02 -0.37652478439E+02  0.14149204101E+03  0.14987533225E+03  0.00000000000E+00 0. -1.
</event>
<event>
 7    1  0.2686828E-009  0.1089698E+03  0.7561462E-02  0.1262490E+00
          1   -1    0    0  501    0  0.00000000000E+00  0.00000000000E+00  0.77190592051E+02  0.77190592051E+02  0.00000000000E+00 0. -1.
         -1   -1    0    0    0  501 -0.00000000000E+00 -0.00000000000E+00 -0.17386648191E+03  0.17386648191E+03  0.00000000000E+00 0.  1.
         25    2    1    2    0    0  0.15073348357E+02  0.26351678350E+02 -0.22666336443E+02  0.13069943668E+03  0.12508782178E+03 0.  0.
          5    1    3    3  502    0  0.67510148643E+02  0.15790550028E+02 -0.31598901620E+02  0.76308090158E+02  0.41800000000E+01 0.  1.
         -5    1    3    3    0  502 -0.52436800286E+02  0.10561128322E+02  0.89325651772E+01  0.54391346520E+02  0.41800000000E+01 0.  1.
        -11    1    1    2    0    0  0.17591762334E+02 -0.50973199603E+02 -0.44595186437E+02  0.69974765689E+02  0.00000000000E+00 0.  1.
         11    1    1    2    0    0 -0.32665110691E+02  0.24621521253E+02 -0.29414366979E+02  0.50382871594E+02  0.00000000000E+00 0. -1.
</event>
<event>
 7    1  0.2686828E-009  0.1253095E+03  0.7561462E-02  0.1234586E+00
          1   -1    0    0  501    0  0.00000000000E+00  0.00000000000E+00  0.65097779463E+02  0.65097779463E+02  0.00000000000E+00 0. -1.
         -1   -1    0    0    0  501 -0.00000000000E+00 -0.00000000000E+00 -0.36096202177E+03  0.36096202177E+03  0.00000000000E+00 0.  1.
         25    2    1    2    0    0  0.10258427563E+03  0.27168946574E+02 -0.19743819134E+03  0.25669225656E+03  0.12508952758E+03 0.  0.
          5    1    3    3  502    0  0.54251673102E+01  0.23990684679E+02  0.10535801786E+02  0.27082483471E+02  0.41800000000E+01 0.  1.
         -5    1    3    3    0  502  0.97159108318E+02  0.31782618951E+01 -0.20797399313E+03  0.22960977308E+03  0.41800000000E+01 0.  1.
        -11    1    1    2    0    0 -0.83486339948E+02  0.12428788235E+02 -0.33182644070E+02  0.90694716507E+02  0.00000000000E+00 0. -1.
         11    1    1    2    0    0 -0.19097935680E+02 -0.39597734809E+02 -0.65243406898E+02  0.78672828174E+02  0.00000000000E+00 0.  1.
</event>
<event>
 7    1  0.2686828E-009  0.1812549E+03  0.7561462E-02  0.1166594E+00
          1   -1    0    0  501    0  0.00000000000E+00  0.00000000000E+00  0.19011393638E+03  0.19011393638E+03  0.00000000000E+00 0. -1.
         -1   -1    0    0    0  501 -0.00000000000E+00 -0.00000000000E+00 -0.20938149476E+03  0.20938149476E+03  0.00000000000E+00 0.  1.
         25    2    1    2    0    0 -0.43583662118E+01 -0.15720249517E+03 -0.64384883882E+02  0.21100806647E+03  0.12508945199E+03 0.  0.
          5    1    3    3  502    0 -0.14317988107E+01 -0.17858534843E+03 -0.60988451138E+02  0.18876398039E+03  0.41800000000E+01 0. -1.
         -5    1    3    3    0  502 -0.29265674011E+01  0.21382853257E+02 -0.33964327432E+01  0.22244086080E+02  0.41800000000E+01 0. -1.
        -11    1    1    2    0    0  0.12909531957E+02  0.16622676148E+02  0.42724686421E+02  0.47627389257E+02  0.00000000000E+00 0. -1.
         11    1    1    2    0    0 -0.85511657448E+01  0.14057981902E+03  0.23926390843E+01  0.14085997542E+03  0.00000000000E+00 0.  1.
</event>
<event>
 7    1  0.2686828E-009  0.2995574E+03  0.7561462E-02  0.1085462E+00
         -1   -1    0    0    0  501 -0.00000000000E+00  0.00000000000E+00  0.12271627886E+03  0.12271627886E+03  0.00000000000E+00 0.  1.
          1   -1    0    0  501    0  0.00000000000E+00 -0.00000000000E+00 -0.14397056268E+04  0.14397056268E+04  0.00000000000E+00 0. -1.
         25    2    1    2    0    0  0.55062033622E+02 -0.29131594297E+03 -0.11872340716E+04  0.12300686590E+04  0.12508940430E+03 0.  0.
          5    1    3    3  502    0  0.10515305816E+02 -0.29326512809E+02 -0.32784548791E+02  0.45419324625E+02  0.41800000000E+01 0.  1.
         -5    1    3    3    0  502  0.44546727806E+02 -0.26198943017E+03 -0.11544495228E+04  0.11846493344E+04  0.41800000000E+01 0.  1.
        -11    1    1    2    0    0 -0.37610717724E+02  0.66443403968E+02 -0.10053314163E+02  0.77008838092E+02  0.00000000000E+00 0.  1.
         11    1    1    2    0    0 -0.17451315898E+02  0.22487253901E+03 -0.11970196225E+03  0.25534440858E+03  0.00000000000E+00 0. -1.
</event>
<event>
 7    1  0.2686828E-009  0.8396413E+02  0.7561462E-02  0.1318164E+00
         -2   -1    0    0    0  501 -0.00000000000E+00  0.00000000000E+00  0.91817764770E+02  0.91817764770E+02  0.00000000000E+00 0.  1.
          2   -1    0    0  501    0  0.00000000000E+00 -0.00000000000E+00 -0.21069981327E+03  0.21069981327E+03  0.00000000000E+00 0. -1.
         25    2    1    2    0    0  0.47062026293E+02  0.12401556864E+02  0.44825378752E+01  0.13430029595E+03  0.12509134028E+03 0.  0.
          5    1    3    3  502    0  0.30564368919E+02  0.39944745273E+02  0.54778447717E+02  0.74484320878E+02  0.41800000000E+01 0.  1.
         -5    1    3    3    0  502  0.16497657374E+02 -0.27543188408E+02 -0.50295909842E+02  0.59815975069E+02  0.41800000000E+01 0.  1.
        -11    1    1    2    0    0 -0.57332256494E+02  0.12028102323E+02 -0.20609674434E+02  0.62100093079E+02  0.00000000000E+00 0.  1.
         11    1    1    2    0    0  0.10270230201E+02 -0.24429659187E+02 -0.10275491194E+03  0.10611718901E+03  0.00000000000E+00 0. -1.
</event>
<event>
 7    1  0.2686828E-009  0.2024831E+03  0.7561462E-02  0.1147661E+00
          1   -1    0    0  501    0  0.00000000000E+00  0.00000000000E+00  0.48094214234E+03  0.48094214234E+03  0.00000000000E+00 0. -1.
         -1   -1    0    0    0  501 -0.00000000000E+00 -0.00000000000E+00 -0.16863267215E+03  0.16863267215E+03  0.00000000000E+00 0.  1.
         25    2    1    2    0    0 -0.67434270473E+02 -0.17196859239E+03  0.37306702099E+03  0.43467989453E+03  0.12508809276E+03 0.  0.
          5    1    3    3  502    0 -0.42668304074E+02 -0.16805486450E+03  0.22315519023E+03  0.28262825935E+03  0.41800000000E+01 0. -1.
         -5    1    3    3    0  502 -0.24765966399E+02 -0.39137278867E+01  0.14991183076E+03  0.15205163518E+03  0.41800000000E+01 0. -1.
        -11    1    1    2    0    0 -0.22219884225E+01  0.11792692261E+03 -0.36149610257E+02  0.12336324668E+03  0.00000000000E+00 0.  1.
         11    1    1    2    0    0  0.69656258895E+02  0.54041669781E+02 -0.24607940550E+02  0.91531673284E+02  0.00000000000E+00 0. -1.
</event>
<event>
 7    1  0.2686828E-009  0.9192375E+02  0.7561462E-02  0.1298259E+00
          2   -1    0    0  501    0  0.00000000000E+00  0.00000000000E+00  0.37779369685E+02  0.37779369685E+02  0.00000000000E+00 0. -1.
         -2   -1    0    0    0  501 -0.00000000000E+00 -0.00000000000E+00 -0.32054447136E+03  0.32054447136E+03  0.00000000000E+00 0.  1.
         25    2    1    2    0    0  0.17760285405E+02  0.10555356860E+02 -0.14791538278E+03  0.19481636917E+03  0.12509042304E+03 0.  0.
          5    1    3    3  502    0  0.66938264481E+02  0.29254279337E+02 -0.96791823180E+02  0.12133702463E+03  0.41800000000E+01 0.  1.
         -5    1    3    3    0  502 -0.49177979076E+02 -0.18698922476E+02 -0.51123559598E+02  0.73479344539E+02  0.41800000000E+01 0.  1.
        -11    1    1    2    0    0 -0.19986067976E+02 -0.31244044014E+02 -0.12110036297E+02  0.39016485984E+02  0.00000000000E+00 0. -1.
         11    1    1    2    0    0  0.22257825706E+01  0.20688687153E+02 -0.12273968260E+03  0.12449098589E+03  0.00000000000E+00 0.  1.
</event>
<event>
 7    1  0.2686828E-009  0.9610344E+02  0.7561462E-02  0.1288710E+00
          1   -1    0    0  501    0  0.00000000000E+00  0.00000000000E+00  0.27458526020E+03  0.27458526020E+03  0.00000000000E+00 0. -1.
         -1   -1    0    0    0  501 -0.00000000000E+00 -0.00000000000E+00 -0.43615346751E+02  0.43615346751E+02  0.00000000000E+00 0.  1.
         25    2    1    2    0    0  0.90546489425E+01  0.98357392110E+01  0.11106165863E+03  0.16781085800E+03  0.12508822332E+03 0.  0.
          5    1    3    3  502    0 -0.38195161248E+01  0.66766861473E+02  0.53727621885E+02  0.85886740815E+02  0.41800000000E+01 0.  1.
         -5    1    3    3    0  502  0.12874165067E+02 -0.56931122262E+02  0.57334036740E+02  0.81924117188E+02  0.41800000000E+01 0.  1.
        -11    1    1    2    0    0 -0.35199855043E+02  0.65816447408E+01  0.11408473027E+02  0.37583255572E+02  0.00000000000E+00 0.  1.
         11    1    1    2    0    0  0.26145206101E+02 -0.16417383952E+02  0.10849978180E+03  0.11280649338E+03  0.00000000000E+00 0. -1.
</event>
<event>
 7    1  0.2686828E-009  0.1107620E+03  0.7561462E-02  0.1259165E+00
          2   -1    0    0  501    0  0.00000000000E+00  0.00000000000E+00  0.84823430331E+03  0.84823430331E+03  0.00000000000E+00 0. -1.
         -2   -1    0    0    0  501 -0.00000000000E+00 -0.00000000000E+00 -0.20231557624E+02  0.20231557624E+02  0.00000000000E+00 0.  1.
         25    2    1    2    0    0 -0.54358637157E+02  0.13199634516E+02  0.30224014569E+03  0.33185614885E+03  0.12510118336E+03 0.  0.
          5    1    3    3  502    0 -0.28508739066E+02  0.57181195700E+02  0.73591279103E+02  0.97547865712E+02  0.41800000000E+01 0. -1.
         -5    1    3    3    0  502 -0.25849898091E+02 -0.43981561184E+02  0.22864886659E+03  0.23430828314E+03  0.41800000000E+01 0. -1.
        -11    1    1    2    0    0  0.77363488188E+02  0.41778945060E+01  0.41408905504E+03  0.42127462493E+03  0.00000000000E+00 0. -1.
         11    1    1    2    0    0 -0.23004851031E+02 -0.17377529022E+02  0.11167354495E+03  0.11533508715E+03  0.00000000000E+00 0.  1.
</event>
<event>
 7    1  0.2686828E-009  0.1363116E+03  0.7561462E-02  0.1218380E+00
         -3   -1    0    0    0  501 -0.00000000000E+00  0.00000000000E+00  0.64604200419E+02  0.64604200419E+02  0.00000000000E+00 0. -1.
          3   -1    0    0  501    0  0.00000000000E+00 -0.00000000000E+00 -0.35055826273E+03  0.35055826273E+03  0.00000000000E+00 0.  1.
         25    2    1    2    0    0 -0.60041679346E+02 -0.85103173931E+02 -0.16989420880E+03  0.23529005829E+03  0.12509922411E+03 0.  0.
          5    1    3    3  502    0 -0.16491316932E+02  0.32370922601E+02 -0.28767745388E+02  0.46528440108E+02  0.41800000000E+01 0. -1.
         -5    1    3    3    0  502 -0.43550362414E+02 -0.11747409653E+03 -0.14112646341E+03  0.18876161818E+03  0.41800000000E+01 0. -1.
        -11    1    1    2    0    0  0.27501465966E+02  0.10736440812E+02 -0.89843066008E+02  0.94569436401E+02  0.00000000000E+00 0.  1.
         11    1    1    2    0    0  0.32540213380E+02  0.74366733119E+02 -0.26216787507E+02  0.85302968464E+02  0.00000000000E+00 0. -1.
</event>
<event>
 7    1  0.2686828E-009  0.1157587E+03  0.7561462E-02  0.1250262E+00
          1   -1    0    0  501    0  0.00000000000E+00  0.00000000000E+00  0.48845861653E+03  0.48845861653E+03  0.00000000000E+00 0. -1.
         -1   -1    0    0    0  501 -0.00000000000E+00 -0.00000000000E+00 -0.33519929314E+02  0.33519929314E+02  0.00000000000E+00 0.  1.
         25    2    1    2    0    0  0.74751423650E+01 -0.50874753995E+02  0.34212294375E+03  0.36788818748E+03  0.12509792763E+03 0.  0.
          5    1    3    3  502    0 -0.32362066763E+02  0.26520838348E+02  0.16789849040E+03  0.17308389211E+03  0.41800000000E+01 0.  1.
         -5    1    3    3    0  502  0.39837209128E+02 -0.77395592344E+02  0.17422445336E+03  0.19480429537E+03  0.41800000000E+01 0.  1.
        -11    1    1    2    0    0  0.72314713215E+01  0.74306159597E+02  0.65680850563E+02  0.99436782239E+02  0.00000000000E+00 0. -1.
         11    1    1    2    0    0 -0.14706613687E+02 -0.23431405601E+02  0.47134892900E+02  0.54653576125E+02  0.00000000000E+00 0.  1.
</event>
<event>
 7    1  0.2686828E-009  0.2547671E+03  0.7561462E-02  0.1110329E+00
          1   -1    0    0  501    0  0.00000000000E+00  0.00000000000E+00  0.13685649696E+03  0.13685649696E+03  0.00000000000E+00 0. -1.
         -1   -1    0    0    0  501 -0.00000000000E+00 -0.00000000000E+00 -0.52606066123E+03  0.52606066123E+03  0.00000000000E+00 0.  1.
         25    2    1    2    0    0  0.24095595612E+03 -0.38892692382E+02 -0.17923712071E+03  0.32763854194E+03  0.12509458185E+03 0.  0.
          5    1    3    3  502    0 -0.10193660375E+02  0.12474744972E+01 -0.31686635097E+02  0.33570554780E+02  0.41800000000E+01 0. -1.
         -5    1    3    3    0  502  0.25114961650E+03 -0.40140166879E+02 -0.14755048562E+03  0.29406798716E+03  0.41800000000E+01 0. -1.
        -11    1    1    2    0    0 -0.51868448545E+02  0.85527751458E+01 -0.10370218094E+03  0.11626533554E+03  0.00000000000E+00 0.  1.
         11    1    1    2    0    0 -0.18908750758E+03  0.30339917236E+02 -0.10626486261E+03  0.21901328071E+03  0.00000000000E+00 0. -1.
</event>
<event>
 7    1  0.2686828E-009  0.2818927E+03  0.7561462E-02  0.1094660E+00
         -1   -1    0    0    0  501 -0.00000000000E+00  0.00000000000E+00  0.38048260528E+02  0.38048260528E+02  0.00000000000E+00 0.  1.
          1   -1    0    0  501    0  0.00000000000E+00 -0.00000000000E+00 -0.21785799221E+04  0.21785799221E+04  0.00000000000E+00 0. -1.
         25    2    1    2    0    0  0.18433598530E+02  0.26545234006E+03 -0.11283005006E+04  0.11659826311E+04  0.12509489998E+03 0.  0.
          5    1    3    3  502    0 -0.50062782794E+02  0.16359303446E+03 -0.67004950784E+03  0.69155822496E+03  0.41800000000E+01 0.  1.
         -5    1    3    3    0  502  0.68496381324E+02  0.10185930560E+03 -0.45825099278E+03  0.47442440617E+03  0.41800000000E+01 0.  1.
        -11    1    1    2    0    0 -0.30812998898E+02 -0.23420355853E+03 -0.95920706719E+03  0.98786585399E+03  0.00000000000E+00 0. -1.
         11    1    1    2    0    0  0.12379400369E+02 -0.31248781526E+02 -0.53024093781E+02  0.62779697528E+02  0.00000000000E+00 0.  1.
</event>
<event>
 7    1  0.3189346E-009  0.2098989E+03  0.7561462E-02  0.1141646E+00
          1   -1    0    0  501    0  0.00000000000E+00  0.00000000000E+00  0.70129887860E+03  0.70129887860E+03  0.00000000000E+00 0. -1.
         -1   -1    0    0    0  501 -0.00000000000E+00 -0.00000000000E+00 -0.64924294950E+02  0.64924294950E+02  0.00000000000E+00 0.  1.
         25    2    1    2    0    0 -0.18241484335E+03 -0.16128355618E+02  0.33217303399E+03  0.39940060753E+03  0.12508645752E+03 0.  0.
          5    1    3    3  502    0 -0.17355799759E+03 -0.49118714461E+02  0.23472504578E+03  0.29605463373E+03  0.41800000000E+01 0. -1.
         -5    1    3    3    0  502 -0.88568457547E+01  0.32990358843E+02  0.97447988208E+02  0.10334597379E+03  0.41800000000E+01 0. -1.
        -11    1    1    2    0    0  0.39238673552E+02 -0.35348214536E+02  0.81004542378E+02  0.96700080966E+02  0.00000000000E+00 0. -1.
         11    1    1    2    0    0  0.14317616980E+03  0.51476570154E+02  0.22319700728E+03  0.27012248505E+03  0.00000000000E+00 0.  1.
</event>
<event>
 7    1  0.2686828E-009  0.1093873E+03  0.7561462E-02  0.1261709E+00
         -1   -1    0    0    0  501 -0.00000000000E+00  0.00000000000E+00  0.16323258360E+03  0.16323258360E+03  0.00000000000E+00 0.  1.
          1   -1    0    0  501    0  0.00000000000E+00 -0.00000000000E+00 -0.10883350691E+03  0.10883350691E+03  0.00000000000E+00 0. -1.
         25    2    1    2    0    0  0.21184135594E+02  0.80323231149E+02  0.29995639245E+02  0.15312817700E+03  0.12509161105E+03 0.  0.
          5    1    3    3  502    0  0.45037903704E+02  0.91231550224E+01  0.56897094419E+02  0.73255692481E+02  0.41800000000E+01 0. -1.
         -5    1    3    3    0  502 -0.23853768110E+02  0.71200076127E+02 -0.26901455174E+02  0.79872484523E+02  0.41800000000E+01 0. -1.
        -11    1    1    2    0    0 -0.36817931396E+02 -0.68704749216E+02 -0.10812147640E+02  0.78694378285E+02  0.00000000000E+00 0. -1.
         11    1    1    2    0    0  0.15633795802E+02 -0.11618481934E+02  0.35215585093E+02  0.40243535221E+02  0.00000000000E+00 0.  1.
</event>
<event>
 7    1  0.2686828E-009  0.8610793E+02  0.7561462E-02  0.1312560E+00
          1   -1    0    0  501    0  0.00000000000E+00  0.00000000000E+00  0.31614819604E+03  0.31614819604E+03  0.00000000000E+00 0. -1.
         -1   -1    0    0    0  501 -0.00000000000E+00 -0.00000000000E+00 -0.39582002819E+02  0.39582002819E+02  0.00000000000E+00 0.  1.
         25    2    1    2    0    0  0.13959761935E+01 -0.33261244896E+02  0.17033452988E+03  0.21394040429E+03  0.12509350646E+03 0.  0.
          5    1    3    3  502    0 -0.21124137429E+02  0.21366153697E+02  0.14728896887E+03  0.15038036593E+03  0.41800000000E+01 0. -1.
         -5    1    3    3    0  502  0.22520113623E+02 -0.54627398593E+02  0.23045561011E+02  0.63560038365E+02  0.41800000000E+01 0. -1.
        -11    1    1    2    0    0  0.16291494408E+02  0.53407457137E+02  0.99582750469E+02  0.11416870613E+03  0.00000000000E+00 0. -1.
         11    1    1    2    0    0 -0.17687470602E+02 -0.20146212241E+02  0.66489128660E+01  0.27621088433E+02  0.00000000000E+00 0.  1.
</event>
<event>
 7    1  0.2686828E-009  0.8677064E+02  0.7561462E-02  0.1310866E+00
         -4   -1    0    0    0  501 -0.00000000000E+00  0.00000000000E+00  0.28246435726E+02  0.28246435726E+02  0.00000000000E+00 0. -1.
          4   -1    0    0  501    0  0.00000000000E+00 -0.00000000000E+00 -0.43463058823E+03  0.43463058823E+03  0.00000000000E+00 0.  1.
         25    2    1    2    0    0 -0.18792664857E+02  0.79707055286E+01 -0.26041851156E+03  0.28962470795E+03  0.12509186181E+03 0.  0.
          5    1    3    3  502    0  0.27499105886E+02  0.17483750199E+02 -0.23201314012E+03  0.23432765934E+03  0.41800000000E+01 0.  1.
         -5    1    3    3    0  502 -0.46291770743E+02 -0.95130446705E+01 -0.28405371441E+02  0.55297048603E+02  0.41800000000E+01 0.  1.
        -11    1    1    2    0    0  0.26450263152E+02 -0.46751150098E+02 -0.87727441389E+02  0.10286588564E+03  0.00000000000E+00 0. -1.
         11    1    1    2    0    0 -0.76575982944E+01  0.38780444569E+02 -0.58238199555E+02  0.70386430368E+02  0.00000000000E+00 0.  1.
</event>
<event>
 7    1  0.2686828E-009  0.1018462E+03  0.7561462E-02  0.1276461E+00
         -1   -1    0    0    0  501 -0.00000000000E+00  0.00000000000E+00  0.29037027707E+02  0.29037027707E+02  0.00000000000E+00 0.  1.
          1   -1    0    0  501    0  0.00000000000E+00 -0.00000000000E+00 -0.79215838237E+03  0.79215838237E+03  0.00000000000E+00 0. -1.
         25    2    1    2    0    0  0.78492834300E+02  0.31118538232E+02 -0.58201041432E+03  0.60125931117E+03  0.12508856236E+03 0.  0.
          5    1    3    3  502    0  0.44664804335E+02  0.45105495893E+01 -0.53683308355E+03  0.53872304740E+03  0.41800000000E+01 0.  1.
         -5    1    3    3    0  502  0.33828029965E+02  0.26607988643E+02 -0.45177330764E+02  0.62536263767E+02  0.41800000000E+01 0.  1.
        -11    1    1    2    0    0 -0.60235022626E+02 -0.57505425437E+02 -0.16312201150E+03  0.18315000012E+03  0.00000000000E+00 0. -1.
         11    1    1    2    0    0 -0.18257811674E+02  0.26386887205E+02 -0.17988928840E+02  0.36786098791E+02  0.00000000000E+00 0.  1.
</event>
<event>
 7    1  0.2686828E-009  0.1208215E+03  0.7561462E-02  0.1241748E+00
          2   -1    0    0  501    0  0.00000000000E+00  0.00000000000E+00  0.71576227371E+03  0.71576227371E+03  0.00000000000E+00 0.  1.
         -2   -1    0    0    0  501 -0.00000000000E+00 -0.00000000000E+00 -0.27913526935E+02  0.27913526935E+02  0.00000000000E+00 0. -1.
         25    2    1    2    0    0 -0.82410080705E+02  0.17687566027E+02  0.47308205932E+03  0.49655009297E+03  0.12510431082E+03 0.  0.
          5    1    3    3  502    0 -0.41090570801E+02  0.56849339072E+02  0.38655732341E+03  0.39289224865E+03  0.41800000000E+01 0. -1.
         -5    1    3    3    0  502 -0.41319509904E+02 -0.39161773045E+02  0.86524735907E+02  0.10365784433E+03  0.41800000000E+01 0. -1.
        -11    1    1    2    0    0  0.26675497535E+01 -0.32986741247E+02  0.10821434183E+03  0.11316176341E+03  0.00000000000E+00 0.  1.
         11    1    1    2    0    0  0.79742530951E+02  0.15299175220E+02  0.10655234562E+03  0.13396394426E+03  0.00000000000E+00 0. -1.
</event>
<event>
 7    1  0.2686828E-009  0.1247650E+03  0.7561462E-02  0.1235437E+00
          1   -1    0    0  501    0  0.00000000000E+00  0.00000000000E+00  0.46737523351E+03  0.46737523351E+03  0.00000000000E+00 0. -1.
         -1   -1    0    0    0  501 -0.00000000000E+00 -0.00000000000E+00 -0.41437763803E+02  0.41437763803E+02  0.00000000000E+00 0.  1.
         25    2    1    2    0    0  0.42033101662E+02  0.66507600076E+02  0.16330573812E+03  0.22024249483E+03  0.12509176599E+03 0.  0.
          5    1    3    3  502    0 -0.29778512355E+02 -0.29259502178E+01  0.93623919992E+02  0.98378004541E+02  0.41800000000E+01 0.  1.
         -5    1    3    3    0  502  0.71811614016E+02  0.69433550294E+02  0.69681818133E+02  0.12186449028E+03  0.41800000000E+01 0.  1.
        -11    1    1    2    0    0 -0.41301911455E+02 -0.88328311512E+02  0.22121150013E+03  0.24174835324E+03  0.00000000000E+00 0.  1.
         11    1    1    2    0    0 -0.73119020662E+00  0.21820711436E+02  0.41420231456E+02  0.46822149252E+02  0.00000000000E+00 0. -1.
</event>
<event>
 7    1  0.2686828E-009  0.1279391E+03  0.7561462E-02  0.1230546E+00
         -1   -1    0    0    0  501 -0.00000000000E+00  0.00000000000E+00  0.39565971016E+03  0.39565971016E+03  0.00000000000E+00 0.  1.
          1   -1    0    0  501    0  0.00000000000E+00 -0.00000000000E+00 -0.67880964303E+02  0.67880964303E+02  0.00000000000E+00 0. -1.
         25    2    1    2    0    0 -0.10700688867E+03 -0.69779794761E+00  0.26022095052E+03  0.30791886614E+03  0.12509246138E+03 0.  0.
          5    1    3    3  502    0 -0.82947307016E+02  0.43379331870E+02  0.23190347987E+03  0.25011740953E+03  0.41800000000E+01 0. -1.
         -5    1    3    3    0  502 -0.24059581655E+02 -0.44077129818E+02  0.28317470646E+02  0.57801456609E+02  0.41800000000E+01 0. -1.
        -11    1    1    2    0    0  0.97414405364E+02  0.10616296885E+02  0.12409846157E+02  0.98773865033E+02  0.00000000000E+00 0. -1.
         11    1    1    2    0    0  0.95924833067E+01 -0.99184989371E+01  0.55147949177E+02  0.56847943284E+02  0.00000000000E+00 0.  1.
</event>
<event>
 7    1  0.2686828E-009  0.1040690E+03  0.7561462E-02  0.1271965E+00
         -2   -1    0    0    0  501 -0.00000000000E+00  0.00000000000E+00  0.71786112265E+02  0.71786112265E+02  0.00000000000E+00 0.  1.
          2   -1    0    0  501    0  0.00000000000E+00 -0.00000000000E+00 -0.21982911041E+03  0.21982911041E+03  0.00000000000E+00 0. -1.
         25    2    1    2    0    0 -0.44963594542E+02 -0.31434358273E+02 -0.11331357282E+03  0.17747644708E+03  0.12509228501E+03 0.  0.
          5    1    3    3  502    0 -0.86130020877E+02 -0.35253590092E+02 -0.64180126174E+02  0.11312717227E+03  0.41800000000E+01 0. -1.
         -5    1    3    3    0  502  0.41166426334E+02  0.38192318196E+01 -0.49133446651E+02  0.64349274810E+02  0.41800000000E+01 0. -1.
        -11    1    1    2    0    0  0.39768393319E+02  0.44310830433E+02 -0.60488731728E+02  0.84875564604E+02  0.00000000000E+00 0. -1.
         11    1    1    2    0    0  0.51952012235E+01 -0.12876472160E+02  0.25759306405E+02  0.29263210991E+02  0.00000000000E+00 0.  1.
</event>
<event>
 7    1  0.2686828E-009  0.7794860E+02  0.7561462E-02  0.1334976E+00
          2   -1    0    0  501    0  0.00000000000E+00  0.00000000000E+00  0.45561023813E+03  0.45561023813E+03  0.00000000000E+00 0. -1.
         -2   -1    0    0    0  501 -0.00000000000E+00 -0.00000000000E+00 -0.36289522274E+02  0.36289522274E+02  0.00000000000E+00 0.  1.
         25    2    1    2    0    0 -0.31763929859E+02  0.62666073033E+02  0.25418116315E+03  0.29187724049E+03  0.12509306882E+03 0.  0.
          5    1    3    3  502    0 -0.96541952288E+01  0.43666108428E+02  0.10114604566E+02  0.46040309907E+02  0.41800000000E+01 0.  1.
         -5    1    3    3    0  502 -0.22109734630E+02  0.18999964605E+02  0.24406655858E+03  0.24583693058E+03  0.41800000000E+01 0.  1.
        -11    1    1    2    0    0  0.35091759109E+02 -0.23521216166E+02  0.15001981260E+02  0.44830108287E+02  0.00000000000E+00 0.  1.
         11    1    1    2    0    0 -0.33278292503E+01 -0.39144856867E+02  0.15013757145E+03  0.15519241163E+03  0.00000000000E+00 0. -1.
</event>
<event>
 7    1  0.2686828E-009  0.1496401E+03  0.7561462E-02  0.1200916E+00
          1   -1    0    0  501    0  0.00000000000E+00  0.00000000000E+00  0.34528190741E+03  0.34528190741E+03  0.00000000000E+00 0. -1.
         -1   -1    0    0    0  501 -0.00000000000E+00 -0.00000000000E+00 -0.11115970159E+03  0.11115970159E+03  0.00000000000E+00 0.  1.
         25    2    1    2    0    0 -0.10675655179E+03  0.80043401584E+02  0.14565189492E+02  0.18347863753E+03  0.12509339790E+03 0.  0.
          5    1    3    3  502    0 -0.11462904970E+03  0.94220194679E+02 -0.15311763654E+02  0.14922863877E+03  0.41800000000E+01 0.  1.
         -5    1    3    3    0  502  0.78724979196E+01 -0.14176793095E+02  0.29876953146E+02  0.34249998763E+02  0.41800000000E+01 0.  1.
        -11    1    1    2    0    0  0.39571730127E+02 -0.37843141837E+02  0.20136476956E+02  0.58339548452E+02  0.00000000000E+00 0.  1.
         11    1    1    2    0    0  0.67184821659E+02 -0.42200259746E+02  0.19942053938E+03  0.21462342302E+03  0.00000000000E+00 0. -1.
</event>
<event>
 7    1  0.2686828E-009  0.8851551E+02  0.7561462E-02  0.1306487E+00
         -2   -1    0    0    0  501 -0.00000000000E+00  0.00000000000E+00  0.25347929510E+02  0.25347929510E+02  0.00000000000E+00 0. -1.
          2   -1    0    0  501    0  0.00000000000E+00 -0.00000000000E+00 -0.53733407309E+03  0.53733407309E+03  0.00000000000E+00 0.  1.
         25    2    1    2    0    0 -0.43607862986E+01  0.84660080953E+01 -0.38773528319E+03  0.40752911806E+03  0.12510252787E+03 0.  0.
          5    1    3    3  502    0 -0.45228853466E+02 -0.23276459932E+00 -0.34367369586E+03  0.34666235012E+03  0.41800000000E+01 0.  1.
         -5    1    3    3    0  502  0.40868067168E+02  0.86987726946E+01 -0.44061587329E+02  0.60866767931E+02  0.41800000000E+01 0.  1.
        -11    1    1    2    0    0  0.21483939727E+02  0.36024785423E+02 -0.78894199218E+02  0.89351214324E+02  0.00000000000E+00 0.  1.
         11    1    1    2    0    0 -0.17123153428E+02 -0.44490793519E+02 -0.45356661166E+02  0.65801670217E+02  0.00000000000E+00 0. -1.
</event>
<event>
 7    1  0.2686828E-009  0.1054692E+03  0.7561462E-02  0.1269198E+00
         -1   -1    0    0    0  501 -0.00000000000E+00  0.00000000000E+00  0.13479927095E+03  0.13479927095E+03  0.00000000000E+00 0.  1.
          1   -1    0    0  501    0  0.00000000000E+00 -0.00000000000E+00 -0.12919845070E+03  0.12919845070E+03  0.00000000000E+00 0. -1.
         25    2    1    2    0    0 -0.13808235539E+01  0.66050885884E+02 -0.33235746704E+02  0.14531732215E+03  0.12509149875E+03 0.  0.
          5    1    3    3  502    0  0.43059684303E+02 -0.12507658553E+02  0.84348536210E+01  0.45816995649E+02  0.41800000000E+01 0. -1.
         -5    1    3    3    0  502 -0.44440507856E+02  0.78558544437E+02 -0.41670600325E+02  0.99500326502E+02  0.41800000000E+01 0. -1.
        -11    1    1    2    0    0 -0.17027907888E+02 -0.41554958788E+02  0.64580035435E+02  0.78659679783E+02  0.00000000000E+00 0.  1.
         11    1    1    2    0    0  0.18408731442E+02 -0.24495927096E+02 -0.25743468479E+02  0.40020719720E+02  0.00000000000E+00 0. -1.
</event>
<event>
 7    1  0.2686828E-009  0.1013552E+03  0.7561462E-02  0.1277472E+00
         -1   -1    0    0    0  501 -0.00000000000E+00  0.00000000000E+00  0.13185151059E+03  0.13185151059E+03  0.00000000000E+00 0.  1.
          1   -1    0    0  501    0  0.00000000000E+00 -0.00000000000E+00 -0.16451755698E+03  0.16451755698E+03  0.00000000000E+00 0. -1.
         25    2    1    2    0    0  0.21392568468E+02  0.71451607135E+02  0.47974752018E+02  0.15333719657E+03  0.12509094640E+03 0.  0.
          5    1    3    3  502    0  0.23480489876E+02  0.92127809498E+02 -0.59953850716E+01  0.95353467319E+02  0.41800000000E+01 0. -1.
         -5    1    3    3    0  502 -0.20879214073E+01 -0.20676202363E+02  0.53970137090E+02  0.57983729247E+02  0.41800000000E+01 0. -1.
        -11    1    1    2    0    0  0.85385732676E+01 -0.46798815801E+02 -0.91184116370E+02  0.10284736006E+03  0.00000000000E+00 0. -1.
         11    1    1    2    0    0 -0.29931141736E+02 -0.24652791334E+02  0.10543317954E+02  0.40184510942E+02  0.00000000000E+00 0.  1.
</event>
<event>
 7    1  0.2686828E-009  0.7862249E+02  0.7561462E-02  0.1333007E+00
          3   -1    0    0  501    0  0.00000000000E+00  0.00000000000E+00  0.15386721366E+04  0.15386721366E+04  0.00000000000E+00 0. -1.
         -3   -1    0    0    0  501 -0.00000000000E+00 -0.00000000000E+00 -0.11874901700E+02  0.11874901700E+02  0.00000000000E+00 0.  1.
         25    2    1    2    0    0 -0.25974837272E+02 -0.13657970483E+02  0.12365360167E+04  0.12431939836E+04  0.12509487582E+03 0.  0.
          5    1    3    3  502    0 -0.20246446508E+00  0.24057102525E+02  0.48759571081E+02  0.54532131316E+02  0.41800000000E+01 0.  1.
         -5    1    3    3    0  502 -0.25772372807E+02 -0.37715073008E+02  0.11877764456E+04  0.11886618523E+04  0.41800000000E+01 0.  1.
        -11    1    1    2    0    0  0.35769195809E+02  0.43052397342E+02  0.25189319629E+03  0.25803706444E+03  0.00000000000E+00 0.  1.
         11    1    1    2    0    0 -0.97943585366E+01 -0.29394426859E+02  0.38368021914E+02  0.49315990258E+02  0.00000000000E+00 0. -1.
</event>
<event>
 7    1  0.2686828E-009  0.9597289E+02  0.7561462E-02  0.1289000E+00
         -1   -1    0    0    0  501 -0.00000000000E+00  0.00000000000E+00  0.22376298970E+02  0.22376298970E+02  0.00000000000E+00 0.  1.
          1   -1    0    0  501    0  0.00000000000E+00 -0.00000000000E+00 -0.59657017498E+03  0.59657017498E+03  0.00000000000E+00 0. -1.
         25    2    1    2    0    0 -0.76026213378E+01  0.22484756031E+02 -0.42044225765E+03  0.43929833458E+03  0.12509184884E+03 0.  0.
          5    1    3    3  502    0  0.34177489988E+02 -0.20600843281E+02 -0.31780923256E+03  0.32033213430E+03  0.41800000000E+01 0.  1.
         -5    1    3    3    0  502 -0.41780111326E+02  0.43085599312E+02 -0.10263302509E+03  0.11896620028E+03  0.41800000000E+01 0.  1.
        -11    1    1    2    0    0 -0.33729926442E+02  0.14007633013E+02 -0.47246632390E+02  0.59717384342E+02  0.00000000000E+00 0.  1.
         11    1    1    2    0    0  0.41332547780E+02 -0.36492389044E+02 -0.10650498598E+03  0.11993075503E+03  0.00000000000E+00 0. -1.
</event>
<event>
 7    1  0.2686828E-009  0.9824076E+02  0.7561462E-02  0.1284039E+00
         -2   -1    0    0    0  501 -0.00000000000E+00  0.00000000000E+00  0.56564363267E+02  0.56564363267E+02  0.00000000000E+00 0.  1.
          2   -1    0    0  501    0  0.00000000000E+00 -0.00000000000E+00 -0.23540957758E+03  0.23540957758E+03  0.00000000000E+00 0. -1.
         25    2    1    2    0    0 -0.29733625691E+02  0.84467993459E+01 -0.71464723820E+02  0.14734337323E+03  0.12508967171E+03 0.  0.
          5    1    3    3  502    0 -0.83872342920E+01  0.57591881060E+02 -0.73152618028E+02  0.93573224736E+02  0.41800000000E+01 0. -1.
         -5    1    3    3    0  502 -0.21346391399E+02 -0.49145081715E+02  0.16878942074E+01  0.53770148497E+02  0.41800000000E+01 0. -1.
        -11    1    1    2    0    0 -0.25831043535E+02  0.69128360036E+01 -0.50993152375E+01  0.27221923658E+02  0.00000000000E+00 0.  1.
         11    1    1    2    0    0  0.55564669226E+02 -0.15359635349E+02 -0.10228117526E+03  0.11740864396E+03  0.00000000000E+00 0. -1.
</event>
<event>
 7    1  0.2686828E-009  0.9973431E+02  0.7561462E-02  0.1280856E+00
         -2   -1    0    0    0  501 -0.00000000000E+00  0.00000000000E+00  0.58786534949E+02  0.58786534949E+02  0.00000000000E+00 0. -1.
          2   -1    0    0  501    0  0.00000000000E+00 -0.00000000000E+00 -0.64857198700E+03  0.64857198700E+03  0.00000000000E+00 0.  1.
         25    2    1    2    0    0  0.82994276738E+02  0.11203848838E+02 -0.54676861332E+03  0.56711286474E+03  0.12509000218E+03 0.  0.
          5    1    3    3  502    0 -0.66775305125E+01 -0.12809697572E+02 -0.34103473019E+03  0.34136613388E+03  0.41800000000E+01 0.  1.
         -5    1    3    3    0  502  0.89671807251E+02  0.24013546411E+02 -0.20573388313E+03  0.22574673086E+03  0.41800000000E+01 0.  1.
        -11    1    1    2    0    0 -0.57115638551E+02  0.10079605857E+02  0.25973954081E+02  0.63548728641E+02  0.00000000000E+00 0. -1.
         11    1    1    2    0    0 -0.25878638187E+02 -0.21283454696E+02 -0.68990792811E+02  0.76696928562E+02  0.00000000000E+00 0.  1.
</event>
<event>
 7    1  0.2686828E-009  0.1198856E+03  0.7561462E-02  0.1243286E+00
          1   -1    0    0  501    0  0.00000000000E+00  0.00000000000E+00  0.16548622648E+03  0.16548622648E+03  0.00000000000E+00 0. -1.
         -1   -1    0    0    0  501 -0.00000000000E+00 -0.00000000000E+00 -0.10419287052E+03  0.10419287052E+03  0.00000000000E+00 0.  1.
         25    2    1    2    0    0 -0.47452000744E+02  0.54470746357E+02  0.17004925901E+02  0.14544884163E+03  0.12508974155E+03 0.  0.
          5    1    3    3  502    0 -0.42619813024E+02 -0.34062023950E+02 -0.16629778891E+01  0.54744020981E+02  0.41800000000E+01 0.  1.
         -5    1    3    3    0  502 -0.48321877202E+01  0.88532770307E+02  0.18667903790E+02  0.90704820645E+02  0.41800000000E+01 0.  1.
        -11    1    1    2    0    0 -0.14024445480E+02 -0.23708277324E+02 -0.16800889116E+02  0.32265110566E+02  0.00000000000E+00 0.  1.
         11    1    1    2    0    0  0.61476446224E+02 -0.30762469033E+02  0.61089319174E+02  0.91965144802E+02  0.00000000000E+00 0. -1.
</event>
<event>
 7    1  0.2686828E-009  0.1084778E+03  0.7561462E-02  0.1263415E+00
         -1   -1    0    0    0  501 -0.00000000000E+00  0.00000000000E+00  0.10499220405E+03  0.10499220405E+03  0.00000000000E+00 0.  1.
          1   -1    0    0  501    0  0.00000000000E+00 -0.00000000000E+00 -0.12504467407E+03  0.12504467407E+03  0.00000000000E+00 0. -1.
         25    2    1    2    0    0 -0.12707611247E+02  0.75644723265E+01 -0.42386818404E+02  0.13290570569E+03  0.12509428286E+03 0.  0.
          5    1    3    3  502    0 -0.56143406815E+02  0.39839969008E+02 -0.99700771406E+01  0.69686297774E+02  0.41800000000E+01 0. -1.
         -5    1    3    3    0  502  0.43435795568E+02 -0.32275496681E+02 -0.32416741264E+02  0.63219407912E+02  0.41800000000E+01 0. -1.
        -11    1    1    2    0    0  0.49182102765E+02  0.14257072020E+02  0.18534248924E+02  0.54457889402E+02  0.00000000000E+00 0. -1.
         11    1    1    2    0    0 -0.36474491518E+02 -0.21821544346E+02  0.38000994652E+01  0.42673283036E+02  0.00000000000E+00 0.  1.
</event>
<event>
 7    1  0.3583570E-009  0.1084433E+03  0.7561462E-02  0.1263480E+00
          1   -1    0    0  501    0  0.00000000000E+00  0.00000000000E+00  0.93316679987E+02  0.93316679987E+02  0.00000000000E+00 0. -1.
         -1   -1    0    0    0  501 -0.00000000000E+00 -0.00000000000E+00 -0.18328042003E+03  0.18328042003E+03  0.00000000000E+00 0.  1.
         25    2    1    2    0    0  0.56502639111E+02  0.42425964423E+02 -0.68063794799E+02  0.15897195824E+03  0.12508753998E+03 0.  0.
          5    1    3    3  502    0 -0.25142594824E+02  0.55275251665E+02 -0.26997224851E+02  0.66586981241E+02  0.41800000000E+01 0.  1.
         -5    1    3    3    0  502  0.81645233935E+02 -0.12849287242E+02 -0.41066569948E+02  0.92384976994E+02  0.41800000000E+01 0.  1.
        -11    1    1    2    0    0 -0.34355717402E+02 -0.36938357833E+02 -0.56775621484E+02  0.75948856426E+02  0.00000000000E+00 0.  1.
         11    1    1    2    0    0 -0.22146921709E+02 -0.54876065899E+01  0.34875676243E+02  0.41676285351E+02  0.00000000000E+00 0. -1.
</event>
<event>
 7    1  0.2686828E-009  0.1955945E+03  0.7561462E-02  0.1153510E+00
         -2   -1    0    0    0  501 -0.00000000000E+00  0.00000000000E+00  0.16398979468E+02  0.16398979468E+02  0.00000000000E+00 0.  1.
          2   -1    0    0  501    0  0.00000000000E+00 -0.00000000000E+00 -0.27635726914E+04  0.27635726914E+04  0.00000000000E+00 0. -1.
         25    2    1    2    0    0 -0.12821396709E+03  0.11796868909E+03 -0.19922413883E+04  0.20037543153E+04  0.12510065460E+03 0.  0.
          5    1    3    3  502    0  0.73688955003E+01  0.66561559735E+02 -0.50080956967E+03  0.50528451325E+03  0.41800000000E+01 0. -1.
         -5    1    3    3    0  502 -0.13558286259E+03  0.51407129351E+02 -0.14914318186E+04  0.14984698020E+04  0.41800000000E+01 0. -1.
        -11    1    1    2    0    0  0.47454159823E+02 -0.71618347404E+02 -0.31264761059E+03  0.32423697102E+03  0.00000000000E+00 0. -1.
         11    1    1    2    0    0  0.80759807268E+02 -0.46350341682E+02 -0.44228471310E+03  0.45198038463E+03  0.00000000000E+00 0.  1.
</event>
<event>
 7    1  0.2686828E-009  0.1087728E+03  0.7561462E-02  0.1262859E+00
          1   -1    0    0  501    0  0.00000000000E+00  0.00000000000E+00  0.21403815507E+03  0.21403815507E+03  0.00000000000E+00 0. -1.
         -1   -1    0    0    0  501 -0.00000000000E+00 -0.00000000000E+00 -0.70238881129E+02  0.70238881129E+02  0.00000000000E+00 0.  1.
         25    2    1    2    0    0  0.50334380333E+02  0.16721198064E+02  0.55481783160E+02  0.14675743759E+03  0.12508544646E+03 0.  0.
          5    1    3    3  502    0 -0.38701303397E+02  0.24975352981E+02  0.21595459407E+02  0.51043074047E+02  0.41800000000E+01 0.  1.
         -5    1    3    3    0  502  0.89035683730E+02 -0.82541549171E+01  0.33886323753E+02  0.95714363542E+02  0.41800000000E+01 0.  1.
        -11    1    1    2    0    0 -0.56002224101E+02  0.78632482903E+01  0.95763182257E+02  0.11121450829E+03  0.00000000000E+00 0. -1.
         11    1    1    2    0    0  0.56678437677E+01 -0.24584446354E+02 -0.74456914727E+01  0.26305090326E+02  0.00000000000E+00 0.  1.
</event>
<event>
 7    1  0.2686828E-009  0.1555537E+03  0.7561462E-02  0.1193810E+00
         -2   -1    0    0    0  501 -0.00000000000E+00  0.00000000000E+00  0.21927618782E+02  0.21927618782E+02  0.00000000000E+00 0.  1.
          2   -1    0    0  501    0  0.00000000000E+00 -0.00000000000E+00 -0.13466039560E+04  0.13466039560E+04  0.00000000000E+00 0. -1.
         25    2    1    2    0    0 -0.46522806929E+01 -0.11399677335E+03 -0.97794989929E+03  0.99249690046E+03  0.12508870392E+03 0.  0.
          5    1    3    3  502    0 -0.45549191139E+02  0.13469013930E+01 -0.21871062588E+03  0.22344653326E+03  0.41800000000E+01 0. -1.
         -5    1    3    3    0  502  0.40896910446E+02 -0.11534367474E+03 -0.75923927342E+03  0.76905036720E+03  0.41800000000E+01 0. -1.
        -11    1    1    2    0    0  0.45382052383E+02  0.62536131541E+02 -0.15139400366E+03  0.16997188818E+03  0.00000000000E+00 0.  1.
         11    1    1    2    0    0 -0.40729771690E+02  0.51460641804E+02 -0.19533243424E+03  0.20606278612E+03  0.00000000000E+00 0. -1.
</event>
<event>
 7    1  0.2686828E-009  0.1148176E+03  0.7561462E-02  0.1251900E+00
         -2   -1    0    0    0  501 -0.00000000000E+00  0.00000000000E+00  0.49342300866E+02  0.49342300866E+02  0.00000000000E+00 0.  1.
          2   -1    0    0  501    0  0.00000000000E+00 -0.00000000000E+00 -0.44849814225E+03  0.44849814225E+03  0.00000000000E+00 0. -1.
         25    2    1    2    0    0 -0.88912398184E+02  0.34080109770E+02 -0.15922824399E+03  0.22376005145E+03  0.12509220003E+03 0.  0.
          5    1    3    3  502    0 -0.19650925720E+02  0.55139602450E+02 -0.12369958524E+02  0.59975185818E+02  0.41800000000E+01 0. -1.
         -5    1    3    3    0  502 -0.69261472464E+02 -0.21059492680E+02 -0.14685828547E+03  0.16378486564E+03  0.41800000000E+01 0. -1.
        -11    1    1    2    0    0  0.38526744013E+02 -0.17418091326E+01 -0.15098557189E+02  0.41416305153E+02  0.00000000000E+00 0.  1.
         11    1    1    2    0    0  0.50385654171E+02 -0.32338300637E+02 -0.22482904020E+03  0.23266408652E+03  0.00000000000E+00 0. -1.
</event>
<event>
 7    1  0.2686828E-009  0.1059125E+03  0.7561462E-02  0.1268332E+00
         -1   -1    0    0    0  501 -0.00000000000E+00  0.00000000000E+00  0.44770885000E+02  0.44770885000E+02  0.00000000000E+00 0.  1.
          1   -1    0    0  501    0  0.00000000000E+00 -0.00000000000E+00 -0.35991060547E+03  0.35991060547E+03  0.00000000000E+00 0. -1.
         25    2    1    2    0    0 -0.41125273393E+02 -0.48559880839E+02 -0.19822965968E+03  0.24287875468E+03  0.12508293792E+03 0.  0.
          5    1    3    3  502    0 -0.54235401962E+02 -0.81161127312E+02 -0.17537166484E+03  0.20075183845E+03  0.41800000000E+01 0. -1.
         -5    1    3    3    0  502  0.13110128569E+02  0.32601246473E+02 -0.22857994839E+02  0.42126916226E+02  0.41800000000E+01 0. -1.
        -11    1    1    2    0    0  0.50574126566E+02  0.32547502970E+02 -0.12709270510E+03  0.14060454444E+03  0.00000000000E+00 0. -1.
         11    1    1    2    0    0 -0.94488531733E+01  0.16012377869E+02  0.10182644312E+02  0.21198191350E+02  0.00000000000E+00 0.  1.
</event>
<event>
 7    1  0.2686828E-009  0.1354023E+03  0.7561462E-02  0.1219653E+00
          1   -1    0    0  501    0  0.00000000000E+00  0.00000000000E+00  0.39323803208E+03  0.39323803208E+03  0.00000000000E+00 0. -1.
         -1   -1    0    0    0  501 -0.00000000000E+00 -0.00000000000E+00 -0.49499860649E+02  0.49499860649E+02  0.00000000000E+00 0.  1.
         25    2    1    2    0    0  0.39560900137E+02 -0.71935571884E+02  0.23979398717E+03  0.28264614815E+03  0.12509155630E+03 0.  0.
          5    1    3    3  502    0  0.79477869520E+02 -0.17119267925E+02  0.12208785776E+03  0.14674030970E+03  0.41800000000E+01 0.  1.
         -5    1    3    3    0  502 -0.39916969383E+02 -0.54816303959E+02  0.11770612941E+03  0.13590583845E+03  0.41800000000E+01 0.  1.
        -11    1    1    2    0    0  0.21195752613E+02  0.54151490102E+02  0.55387970026E+02  0.80308598747E+02  0.00000000000E+00 0. -1.
         11    1    1    2    0    0 -0.60756652749E+02  0.17784081783E+02  0.48556214233E+02  0.79783145832E+02  0.00000000000E+00 0.  1.
</event>
<event>
 7    1  0.2686828E-009  0.1466954E+03  0.7561462E-02  0.1204593E+00
         -1   -1    0    0    0  501 -0.00000000000E+00  0.00000000000E+00  0.37633495160E+03  0.37633495160E+03  0.00000000000E+00 0.  1.
          1   -1    0    0  501    0  0.00000000000E+00 -0.00000000000E+00 -0.76248652680E+02  0.76248652680E+02  0.00000000000E+00 0. -1.
         25    2    1    2    0    0 -0.38471669137E+02 -0.10646462646E+03  0.24190165897E+03  0.29492113520E+03  0.12508907770E+03 0.  0.
          5    1    3    3  502    0  0.22397975828E+02  0.90325024944E+01  0.59428407348E+01  0.25219936132E+02  0.41800000000E+01 0.  1.
         -5    1    3    3    0  502 -0.60869644965E+02 -0.11549712896E+03  0.23595881823E+03  0.26970119907E+03  0.41800000000E+01 0.  1.
        -11    1    1    2    0    0 -0.73985811973E+01  0.88795571313E+02  0.11449514955E+02  0.89835871907E+02  0.00000000000E+00 0. -1.
         11    1    1    2    0    0  0.45870250334E+02  0.17669055151E+02  0.46735124992E+02  0.67826597170E+02  0.00000000000E+00 0.  1.
</event>
<event>
 7    1  0.2686828E-009  0.1037620E+03  0.7561462E-02  0.1272578E+00
          1   -1    0    0  501    0  0.00000000000E+00  0.00000000000E+00  0.51652265502E+03  0.51652265502E+03  0.00000000000E+00 0. -1.
         -1   -1    0    0    0  501 -0.00000000000E+00 -0.00000000000E+00 -0.10070313950E+03  0.10070313950E+03  0.00000000000E+00 0.  1.
         25    2    1    2    0    0 -0.50674406649E+01 -0.76481225435E+02  0.46524331746E+03  0.48782703328E+03  0.12509521635E+03 0.  0.
          5    1    3    3  502    0  0.39573338731E+01  0.90001124252E+01 -0.35056045187E+01  0.11243850679E+02  0.41800000000E+01 0. -1.
         -5    1    3    3    0  502 -0.90247745381E+01 -0.85481337860E+02  0.46874892198E+03  0.47658318260E+03  0.41800000000E+01 0. -1.
        -11    1    1    2    0    0  0.14437033910E+02 -0.13826526661E+02 -0.30795976337E+02  0.36715023440E+02  0.00000000000E+00 0.  1.
         11    1    1    2    0    0 -0.93695932453E+01  0.90307752096E+02 -0.18627825606E+02  0.92683737802E+02  0.00000000000E+00 0. -1.
</event>
<event>
 7    1  0.2686828E-009  0.8287779E+02  0.7561462E-02  0.1321078E+00
         -1   -1    0    0    0  501 -0.00000000000E+00  0.00000000000E+00  0.54998363353E+03  0.54998363353E+03  0.00000000000E+00 0.  1.
          1   -1    0    0  501    0  0.00000000000E+00 -0.00000000000E+00 -0.27740797721E+02  0.27740797721E+02  0.00000000000E+00 0. -1.
         25    2    1    2    0    0  0.30723648495E+02  0.47077911630E+02  0.24823919779E+03  0.28360332268E+03  0.12509145843E+03 0.  0.
          5    1    3    3  502    0  0.13947652476E+00  0.12310021790E+01  0.22265702735E+03  0.22269970599E+03  0.41800000000E+01 0. -1.
         -5    1    3    3    0  502  0.30584171970E+02  0.45846909451E+02  0.25582170445E+02  0.60903616691E+02  0.41800000000E+01 0. -1.
        -11    1    1    2    0    0 -0.31360394889E+02  0.21194128520E+02  0.11531891602E+03  0.12137181651E+03  0.00000000000E+00 0.  1.
         11    1    1    2    0    0  0.63674639390E+00 -0.68272040150E+02  0.15868472200E+03  0.17274929206E+03  0.00000000000E+00 0. -1.
</event>
<event>
 7    1  0.2686828E-009  0.1204605E+03  0.7561462E-02  0.1242339E+00
          2   -1    0    0  501    0  0.00000000000E+00  0.00000000000E+00  0.11179806673E+04  0.11179806673E+04  0.00000000000E+00 0. -1.
         -2   -1    0    0    0  501 -0.00000000000E+00 -0.00000000000E+00 -0.19893348252E+02  0.19893348252E+02  0.00000000000E+00 0.  1.
         25    2    1    2    0    0 -0.99495092013E+02 -0.25354248177E+02  0.58333596673E+03  0.60536670887E+03  0.12508353565E+03 0.  0.
          5    1    3    3  502    0 -0.61041720890E+02 -0.24560233581E+02  0.95779044468E+02  0.11627723131E+03  0.41800000000E+01 0.  1.
         -5    1    3    3    0  502 -0.38453371123E+02 -0.79401459564E+00  0.48755692226E+03  0.48908947756E+03  0.41800000000E+01 0.  1.
        -11    1    1    2    0    0 -0.14279735646E+02  0.17029084756E+02  0.89963808746E+02  0.92668157756E+02  0.00000000000E+00 0.  1.
         11    1    1    2    0    0  0.11377482766E+03  0.83251634209E+01  0.42478754355E+03  0.43983914891E+03  0.00000000000E+00 0. -1.
</event>
<event>
 7    1  0.2686828E-009  0.8296024E+02  0.7561462E-02  0.1320855E+00
         -2   -1    0    0    0  501 -0.00000000000E+00  0.00000000000E+00  0.10990746277E+03  0.10990746277E+03  0.00000000000E+00 0.  1.
          2   -1    0    0  501    0  0.00000000000E+00 -0.00000000000E+00 -0.13507155543E+03  0.13507155543E+03  0.00000000000E+00 0. -1.
         25    2    1    2    0    0 -0.20935959757E+00  0.55638749852E+02 -0.20315396403E+02  0.13840992737E+03  0.12509547692E+03 0.  0.
          5    1    3    3  502    0  0.23536643218E+02 -0.16502812839E+02  0.34167429911E+02  0.44846427643E+02  0.41800000000E+01 0. -1.
         -5    1    3    3    0  502 -0.23746002816E+02  0.72141562691E+02 -0.54482826314E+02  0.93563499723E+02  0.41800000000E+01 0. -1.
        -11    1    1    2    0    0  0.11682470680E+02 -0.38095026414E+02  0.40373298143E+02  0.56724900719E+02  0.00000000000E+00 0.  1.
         11    1    1    2    0    0 -0.11473111082E+02 -0.17543723438E+02 -0.45221994406E+02  0.49844190113E+02  0.00000000000E+00 0. -1.
</event>
<event>
 7    1  0.2686828E-009  0.7908481E+02  0.7561462E-02  0.1331669E+00
          2   -1    0    0  501    0  0.00000000000E+00  0.00000000000E+00  0.14958732756E+04  0.14958732756E+04  0.00000000000E+00 0. -1.
         -2   -1    0    0    0  501 -0.00000000000E+00 -0.00000000000E+00 -0.97667792126E+01  0.97667792126E+01  0.00000000000E+00 0.  1.
         25    2    1    2    0    0 -0.12785563968E+00  0.31783869458E+02  0.10938837614E+04  0.11014711068E+04  0.12508671040E+03 0.  0.
          5    1    3    3  502    0  0.26256105002E+02  0.31982720565E+02  0.10444777334E+04  0.10453054508E+04  0.41800000000E+01 0. -1.
         -5    1    3    3    0  502 -0.26383960642E+02 -0.19885110739E+00  0.49406027952E+02  0.56165656045E+02  0.41800000000E+01 0. -1.
        -11    1    1    2    0    0 -0.40696943654E+02 -0.49158872582E+01  0.10320406219E+03  0.11104722249E+03  0.00000000000E+00 0.  1.
         11    1    1    2    0    0  0.40824799294E+02 -0.26867982199E+02  0.28901867287E+03  0.29312172552E+03  0.00000000000E+00 0. -1.
</event>
<event>
 7    1  0.2686828E-009  0.8238779E+02  0.7561462E-02  0.1322409E+00
         -1   -1    0    0    0  501 -0.00000000000E+00  0.00000000000E+00  0.27267275656E+03  0.27267275656E+03  0.00000000000E+00 0.  1.
          1   -1    0    0  501    0  0.00000000000E+00 -0.00000000000E+00 -0.13674079897E+03  0.13674079897E+03  0.00000000000E+00 0. -1.
         25    2    1    2    0    0 -0.60739880987E+02 -0.34978377330E+02  0.22562347191E+03  0.26733571440E+03  0.12509841362E+03 0.  0.
          5    1    3    3  502    0 -0.40329832081E+02  0.55956165591E+01  0.21711413573E+03  0.22093851320E+03  0.41800000000E+01 0.  1.
         -5    1    3    3    0  502 -0.20410048906E+02 -0.40573993889E+02  0.85093361806E+01  0.46397201195E+02  0.41800000000E+01 0.  1.
        -11    1    1    2    0    0  0.51197749234E+02  0.10914148456E+02 -0.10105323019E+03  0.11380722075E+03  0.00000000000E+00 0. -1.
         11    1    1    2    0    0  0.95421317528E+01  0.24064228874E+02  0.11361715865E+02  0.28270620388E+02  0.00000000000E+00 0.  1.
</event>
<event>
 7    1  0.2686828E-009  0.1584796E+03  0.7561462E-02  0.1190424E+00
         -3   -1    0    0    0  501 -0.00000000000E+00  0.00000000000E+00  0.48463846227E+02  0.48463846227E+02  0.00000000000E+00 0.  1.
          3   -1    0    0  501    0  0.00000000000E+00 -0.00000000000E+00 -0.13350166751E+04  0.13350166751E+04  0.00000000000E+00 0. -1.
         25    2    1    2    0    0 -0.55161043344E+02  0.12856642316E+03 -0.11580710917E+04  0.11731789470E+04  0.12509245577E+03 0.  0.
          5    1    3    3  502    0  0.10259649866E+02 -0.78820389680E+01 -0.39518858220E+03  0.39542240055E+03  0.41800000000E+01 0.  1.
         -5    1    3    3    0  502 -0.65420693210E+02  0.13644846213E+03 -0.76288250949E+03  0.77775654649E+03  0.41800000000E+01 0.  1.
        -11    1    1    2    0    0  0.36582706434E+02 -0.19711697584E+02 -0.79064514185E+02  0.89319890478E+02  0.00000000000E+00 0. -1.
         11    1    1    2    0    0  0.18578336910E+02 -0.10885472558E+03 -0.49417222954E+02  0.12098168377E+03  0.00000000000E+00 0.  1.
</event>
<event>
 7    1  0.2686828E-009  0.1077492E+03  0.7561462E-02  0.1264796E+00
          1   -1    0    0  501    0  0.00000000000E+00  0.00000000000E+00  0.24674252544E+03  0.24674252544E+03  0.00000000000E+00 0. -1.
         -1   -1    0    0    0  501 -0.00000000000E+00 -0.00000000000E+00 -0.62742704318E+02  0.62742704318E+02  0.00000000000E+00 0.  1.
         25    2    1    2    0    0  0.12588872981E+02 -0.14099633385E+02  0.28609856983E+02  0.12970502540E+03  0.12509032862E+03 0.  0.
          5    1    3    3  502    0  0.68170278064E+02 -0.17428548094E+02  0.19447871176E+02  0.73120675552E+02  0.41800000000E+01 0.  1.
         -5    1    3    3    0  502 -0.55581405083E+02  0.33289147090E+01  0.91619858066E+01  0.56584349851E+02  0.41800000000E+01 0.  1.
        -11    1    1    2    0    0 -0.12518641575E+02  0.50877903101E+02  0.76309778066E+02  0.92565974522E+02  0.00000000000E+00 0.  1.
         11    1    1    2    0    0 -0.70231405185E-01 -0.36778269716E+02  0.79080186070E+02  0.87214229829E+02  0.00000000000E+00 0. -1.
</event>
<event>
 7    1  0.2686828E-009  0.3135293E+03  0.7561462E-02  0.1078666E+00
         -1   -1    0    0    0  501 -0.00000000000E+00  0.00000000000E+00  0.22568400043E+03  0.22568400043E+03  0.00000000000E+00 0.  1.
          1   -1    0    0  501    0  0.00000000000E+00 -0.00000000000E+00 -0.50136995226E+03  0.50136995226E+03  0.00000000000E+00 0. -1.
         25    2    1    2    0    0 -0.87957969587E+02 -0.28760776582E+03 -0.25359163479E+03  0.41280742996E+03  0.12508567312E+03 0.  0.
          5    1    3    3  502    0  0.53862406678E+01 -0.18950177772E+03 -0.16043730403E+03  0.24838988762E+03  0.41800000000E+01 0. -1.
         -5    1    3    3    0  502 -0.93344210255E+02 -0.98105988102E+02 -0.93154330759E+02  0.16441754234E+03  0.41800000000E+01 0. -1.
        -11    1    1    2    0    0  0.48835724101E+02  0.11451909623E+03 -0.50841400157E+02  0.13447824850E+03  0.00000000000E+00 0. -1.
         11    1    1    2    0    0  0.39122245486E+02  0.17308866959E+03  0.28747083123E+02  0.17976827423E+03  0.00000000000E+00 0.  1.
</event>
<event>
 7    1  0.2686828E-009  0.1644413E+03  0.7561462E-02  0.1183772E+00
         -1   -1    0    0    0  501 -0.00000000000E+00  0.00000000000E+00  0.77632116350E+02  0.77632116350E+02  0.00000000000E+00 0.  1.
          1   -1    0    0  501    0  0.00000000000E+00 -0.00000000000E+00 -0.14505206134E+04  0.14505206134E+04  0.00000000000E+00 0. -1.
         25    2    1    2    0    0  0.96726893328E+02 -0.11955535193E+03 -0.13265167325E+04  0.13412486246E+04  0.12510658381E+03 0.  0.
          5    1    3    3  502    0  0.42915343008E+02 -0.74573888108E+01 -0.10996633743E+03  0.11835289215E+03  0.41800000000E+01 0. -1.
         -5    1    3    3    0  502  0.53811550320E+02 -0.11209796312E+03 -0.12165503950E+04  0.12228957324E+04  0.41800000000E+01 0. -1.
        -11    1    1    2    0    0 -0.82498372160E+02  0.12095619823E+03 -0.87679235251E+01  0.14667399150E+03  0.00000000000E+00 0.  1.
         11    1    1    2    0    0 -0.14228521168E+02 -0.14008463033E+01 -0.37603841099E+02  0.40230113726E+02  0.00000000000E+00 0. -1.
</event>
<event>
 7    1  0.2686828E-009  0.1229572E+03  0.7561462E-02  0.1238297E+00
          2   -1    0    0  501    0  0.00000000000E+00  0.00000000000E+00  0.41561343036E+03  0.41561343036E+03  0.00000000000E+00 0. -1.
         -2   -1    0    0    0  501 -0.00000000000E+00 -0.00000000000E+00 -0.71740104209E+02  0.71740104209E+02  0.00000000000E+00 0.  1.
         25    2    1    2    0    0 -0.75459608752E+02 -0.69823768530E+02  0.59771615754E+02  0.17259881040E+03  0.12509273398E+03 0.  0.
          5    1    3    3  502    0  0.15363553892E+02 -0.31334416621E+02  0.64823430550E+02  0.73738958506E+02  0.41800000000E+01 0.  1.
         -5    1    3    3    0  502 -0.90823162644E+02 -0.38489351909E+02 -0.50518147967E+01  0.98859851890E+02  0.41800000000E+01 0.  1.
        -11    1    1    2    0    0  0.50520585365E+02  0.70918123738E+02  0.27454989315E+03  0.28802665440E+03  0.00000000000E+00 0. -1.
         11    1    1    2    0    0  0.24939023386E+02 -0.10943552077E+01  0.95518172497E+01  0.26728069769E+02  0.00000000000E+00 0.  1.
</event>
<event>
 7    1  0.2686828E-009  0.9737000E+02  0.7561462E-02  0.1285926E+00
         -2   -1    0    0    0  501 -0.00000000000E+00  0.00000000000E+00  0.30306203901E+03  0.30306203901E+03  0.00000000000E+00 0.  1.
          2   -1    0    0  501    0  0.00000000000E+00 -0.00000000000E+00 -0.42129416752E+02  0.42129416752E+02  0.00000000000E+00 0. -1.
         25    2    1    2    0    0  0.21401941759E+02  0.25322283569E+02  0.16551024558E+03  0.21010379841E+03  0.12510277198E+03 0.  0.
          5    1    3    3  502    0  0.16984898119E+01  0.74746546659E+02  0.82499461162E+02  0.11141617745E+03  0.41800000000E+01 0. -1.
         -5    1    3    3    0  502  0.19703451947E+02 -0.49424263090E+02  0.83010784423E+02  0.98687620962E+02  0.41800000000E+01 0. -1.
        -11    1    1    2    0    0 -0.37083960489E+02 -0.45426016962E+00  0.19912935282E+01  0.37140163271E+02  0.00000000000E+00 0. -1.
         11    1    1    2    0    0  0.15682018731E+02 -0.24868023399E+02  0.93431083142E+02  0.97947494079E+02  0.00000000000E+00 0.  1.
</event>
<event>
 7    1  0.2686828E-009  0.1094784E+03  0.7561462E-02  0.1261539E+00
         -2   -1    0    0    0  501 -0.00000000000E+00  0.00000000000E+00  0.21845107311E+02  0.21845107311E+02  0.00000000000E+00 0.  1.
          2   -1    0    0  501    0  0.00000000000E+00 -0.00000000000E+00 -0.66811643002E+03  0.66811643002E+03  0.00000000000E+00 0. -1.
         25    2    1    2    0    0  0.24909144226E+02 -0.19953838135E+02 -0.24193092849E+03  0.27422038379E+03  0.12509046168E+03 0.  0.
          5    1    3    3  502    0  0.29980886891E+02  0.46692658771E+02 -0.15362154910E+03  0.16338944492E+03  0.41800000000E+01 0. -1.
         -5    1    3    3    0  502 -0.50717426647E+01 -0.66646496906E+02 -0.88309379391E+02  0.11083093888E+03  0.41800000000E+01 0. -1.
        -11    1    1    2    0    0  0.15179215097E+02  0.46063017089E+02 -0.18581034829E+03  0.19203566244E+03  0.00000000000E+00 0.  1.
         11    1    1    2    0    0 -0.40088359324E+02 -0.26109178954E+02 -0.21853004592E+03  0.22370549110E+03  0.00000000000E+00 0. -1.
</event>
<event>
 7    1  0.2686828E-009  0.9579763E+02  0.7561462E-02  0.1289390E+00
          2   -1    0    0  501    0  0.00000000000E+00  0.00000000000E+00  0.88192285521E+02  0.88192285521E+02  0.00000000000E+00 0. -1.
         -2   -1    0    0    0  501 -0.00000000000E+00 -0.00000000000E+00 -0.21726553734E+03  0.21726553734E+03  0.00000000000E+00 0.  1.
         25    2    1    2    0    0 -0.58827739367E+02  0.87867986817E+01 -0.14225568836E+03  0.19854858997E+03  0.12508777303E+03 0.  0.
          5    1    3    3  502    0 -0.44173167304E+02 -0.23670823510E+02  0.15763781153E+01  0.50314351464E+02  0.41800000000E+01 0.  1.
         -5    1    3    3    0  502 -0.14654572063E+02  0.32457622191E+02 -0.14383206647E+03  0.14823423851E+03  0.41800000000E+01 0.  1.
        -11    1    1    2    0    0  0.50687873270E+02 -0.45335647892E+02  0.28431450200E+01  0.68063682975E+02  0.00000000000E+00 0.  1.
         11    1    1    2    0    0  0.81398660965E+01  0.36548849211E+02  0.10339291520E+02  0.38845549910E+02  0.00000000000E+00 0. -1.
</event>
<event>
 7    1  0.2686828E-009  0.9058972E+02  0.7561462E-02  0.1301430E+00
          1   -1    0    0  501    0  0.00000000000E+00  0.00000000000E+00  0.75289454080E+03  0.75289454080E+03  0.00000000000E+00 0. -1.
         -1   -1    0    0    0  501 -0.00000000000E+00 -0.00000000000E+00 -0.17665593938E+02  0.17665593938E+02  0.00000000000E+00 0.  1.
         25    2    1    2    0    0  0.31595310640E+02 -0.13404293582E+02  0.49017314384E+03  0.50704821548E+03  0.12510093178E+03 0.  0.
          5    1    3    3  502    0 -0.49143170476E+01 -0.55741855031E+02  0.37250242983E+03  0.37670523960E+03  0.41800000000E+01 0. -1.
         -5    1    3    3    0  502  0.36509627688E+02  0.42337561448E+02  0.11767071401E+03  0.13034297588E+03  0.41800000000E+01 0. -1.
        -11    1    1    2    0    0  0.15146380773E+02  0.16201223442E+02  0.10885786450E+02  0.24706129567E+02  0.00000000000E+00 0.  1.
         11    1    1    2    0    0 -0.46741691413E+02 -0.27969298595E+01  0.23417001657E+03  0.23880578970E+03  0.00000000000E+00 0. -1.
</event>
<event>
 7    1  0.2686828E-009  0.1143017E+03  0.7561462E-02  0.1252805E+00
          2   -1    0    0  501    0  0.00000000000E+00  0.00000000000E+00  0.22356158639E+02  0.22356158639E+02  0.00000000000E+00 0. -1.
         -2   -1    0    0    0  501 -0.00000000000E+00 -0.00000000000E+00 -0.68575749442E+03  0.68575749442E+03  0.00000000000E+00 0.  1.
         25    2    1    2    0    0 -0.18531293335E+02 -0.50329424240E+02 -0.29659741497E+03  0.32633911126E+03  0.12510287443E+03 0.  0.
          5    1    3    3  502    0  0.51113456571E+02 -0.39214480031E+02 -0.16048245228E+03  0.17298107057E+03  0.41800000000E+01 0. -1.
         -5    1    3    3    0  502 -0.69644749905E+02 -0.11114944209E+02 -0.13611496270E+03  0.15335804069E+03  0.41800000000E+01 0. -1.
        -11    1    1    2    0    0  0.46452157711E+02  0.45567689725E+02 -0.32385074405E+03  0.33032335934E+03  0.00000000000E+00 0.  1.
         11    1    1    2    0    0 -0.27920864376E+02  0.47617345158E+01 -0.42953176758E+02  0.51451182462E+02  0.00000000000E+00 0. -1.
</event>
<event>
 7    1  0.2686828E-009  0.8080713E+02  0.7561462E-02  0.1326776E+00
         -2   -1    0    0    0  501 -0.00000000000E+00  0.00000000000E+00  0.21087307304E+02  0.21087307304E+02  0.00000000000E+00 0. -1.
          2   -1    0    0  501    0  0.00000000000E+00 -0.00000000000E+00 -0.74046768159E+03  0.74046768159E+03  0.00000000000E+00 0.  1.
         25    2    1    2    0    0 -0.80578742494E+01  0.30004120505E+02 -0.56978095810E+03  0.58417748775E+03  0.12509124828E+03 0.  0.
          5    1    3    3  502    0 -0.33042728896E+02  0.28981606514E+02 -0.63940529898E+02  0.77702118457E+02  0.41800000000E+01 0.  1.
         -5    1    3    3    0  502  0.24984854647E+02  0.10225139910E+01 -0.50584042820E+03  0.50647536929E+03  0.41800000000E+01 0.  1.
        -11    1    1    2    0    0  0.45780772565E+02 -0.29353498732E+02 -0.10984481397E+03  0.12256993996E+03  0.00000000000E+00 0.  1.
         11    1    1    2    0    0 -0.37722898316E+02 -0.65062177352E+00 -0.39754602212E+02  0.54807561185E+02  0.00000000000E+00 0. -1.
</event>
<event>
 7    1  0.2686828E-009  0.1404572E+03  0.7561462E-02  0.1212715E+00
          4   -1    0    0  501    0  0.00000000000E+00  0.00000000000E+00  0.19174861729E+03  0.19174861729E+03  0.00000000000E+00 0. -1.
         -4   -1    0    0    0  501 -0.00000000000E+00 -0.00000000000E+00 -0.14068421120E+03  0.14068421120E+03  0.00000000000E+00 0.  1.
         25    2    1    2    0    0 -0.14602784444E+02  0.10567505136E+03 -0.35524007815E+02  0.16819409724E+03  0.12508733517E+03 0.  0.
          5    1    3    3  502    0  0.17215255270E+02  0.12533864309E+03 -0.30658896814E+02  0.13024431205E+03  0.41800000000E+01 0.  1.
         -5    1    3    3    0  502 -0.31818039714E+02 -0.19663591731E+02 -0.48651110012E+01  0.37949785191E+02  0.41800000000E+01 0.  1.
        -11    1    1    2    0    0  0.28533013628E+02 -0.37561548847E+02 -0.69644314334E+01  0.47681297420E+02  0.00000000000E+00 0.  1.
         11    1    1    2    0    0 -0.13930229184E+02 -0.68113502515E+02  0.93552845340E+02  0.11655743383E+03  0.00000000000E+00 0. -1.
</event>
<event>
 7    1  0.2686828E-009  0.1707540E+03  0.7561462E-02  0.1177064E+00
          2   -1    0    0  501    0  0.00000000000E+00  0.00000000000E+00  0.12300759888E+04  0.12300759888E+04  0.00000000000E+00 0. -1.
         -2   -1    0    0    0  501 -0.00000000000E+00 -0.00000000000E+00 -0.27874185313E+02  0.27874185313E+02  0.00000000000E+00 0.  1.
         25    2    1    2    0    0  0.12743141307E+02  0.14238329927E+03  0.48163361491E+03  0.51774007717E+03  0.12509379258E+03 0.  0.
          5    1    3    3  502    0 -0.31176554889E+02  0.11785726537E+03  0.42365738672E+03  0.44086887653E+03  0.41800000000E+01 0. -1.
         -5    1    3    3    0  502  0.43919696195E+02  0.24526033901E+02  0.57976228189E+02  0.76871200640E+02  0.41800000000E+01 0. -1.
        -11    1    1    2    0    0  0.36427249447E+02 -0.90552592505E+02  0.39265034242E+03  0.40459981206E+03  0.00000000000E+00 0.  1.
         11    1    1    2    0    0 -0.49170390754E+02 -0.51830706768E+02  0.32791784620E+03  0.33561028492E+03  0.00000000000E+00 0. -1.
</event>
<event>
 7    1  0.2686828E-009  0.1255849E+03  0.7561462E-02  0.1234158E+00
         -2   -1    0    0    0  501 -0.00000000000E+00  0.00000000000E+00  0.66005107833E+02  0.66005107833E+02  0.00000000000E+00 0.  1.
          2   -1    0    0  501    0  0.00000000000E+00 -0.00000000000E+00 -0.25907870398E+03  0.25907870398E+03  0.00000000000E+00 0. -1.
         25    2    1    2    0    0 -0.38227498482E+02  0.50682137818E+02 -0.64944612372E+02  0.15457658183E+03  0.12508435649E+03 0.  0.
          5    1    3    3  502    0  0.42037675447E+02  0.41755587975E+02 -0.28152057286E+02  0.65732077508E+02  0.41800000000E+01 0.  1.
         -5    1    3    3    0  502 -0.80265173928E+02  0.89265498435E+01 -0.36792555086E+02  0.88844504318E+02  0.41800000000E+01 0.  1.
        -11    1    1    2    0    0 -0.97374456247E+01 -0.61057409028E+02 -0.85434479925E+02  0.10546030251E+03  0.00000000000E+00 0. -1.
         11    1    1    2    0    0  0.47964944106E+02  0.10375271209E+02 -0.42694503852E+02  0.65046927483E+02  0.00000000000E+00 0.  1.
</event>
<event>
 7    1  0.2686828E-009  0.1908306E+03  0.7561462E-02  0.1157714E+00
         -2   -1    0    0    0  501 -0.00000000000E+00  0.00000000000E+00  0.45526063563E+02  0.45526063563E+02  0.00000000000E+00 0.  1.
          2   -1    0    0  501    0  0.00000000000E+00 -0.00000000000E+00 -0.10112040795E+04  0.10112040795E+04  0.00000000000E+00 0. -1.
         25    2    1    2    0    0  0.14853027764E+03 -0.66099154786E+02 -0.72013993819E+03  0.74878411028E+03  0.12508305880E+03 0.  0.
          5    1    3    3  502    0  0.10840803226E+03 -0.10357944533E+03 -0.51825284010E+03  0.53952245702E+03  0.41800000000E+01 0. -1.
         -5    1    3    3    0  502  0.40122245388E+02  0.37480290541E+02 -0.20188709808E+03  0.20926165326E+03  0.41800000000E+01 0. -1.
        -11    1    1    2    0    0 -0.23513833112E+02  0.43658168124E+02 -0.11778340149E+03  0.12779618796E+03  0.00000000000E+00 0. -1.
         11    1    1    2    0    0 -0.12501644453E+03  0.22440986661E+02 -0.12775467631E+03  0.18014984486E+03  0.00000000000E+00 0.  1.
</event>
<event>
 7    1  0.2686828E-009  0.1020367E+03  0.7561462E-02  0.1276070E+00
         -1   -1    0    0    0  501 -0.00000000000E+00  0.00000000000E+00  0.18886405032E+03  0.18886405032E+03  0.00000000000E+00 0.  1.
          1   -1    0    0  501    0  0.00000000000E+00 -0.00000000000E+00 -0.80857956681E+02  0.80857956681E+02  0.00000000000E+00 0. -1.
         25    2    1    2    0    0 -0.42572851481E+02 -0.34075389407E+02  0.86654529547E+02  0.16164852771E+03  0.12509060385E+03 0.  0.
          5    1    3    3  502    0 -0.68280591224E+02 -0.62054569307E+02  0.81308322761E+02  0.12305090191E+03  0.41800000000E+01 0.  1.
         -5    1    3    3    0  502  0.25707739743E+02  0.27979179900E+02  0.53462067864E+01  0.38597625802E+02  0.41800000000E+01 0.  1.
        -11    1    1    2    0    0  0.35464125444E+02 -0.31363789921E+01  0.49430729801E+02  0.60917469706E+02  0.00000000000E+00 0.  1.
         11    1    1    2    0    0  0.71087260374E+01  0.37211768399E+02 -0.28079165709E+02  0.47156009587E+02  0.00000000000E+00 0. -1.
</event>
<event>
 7    1  0.2686828E-009  0.9861935E+02  0.7561462E-02  0.1283226E+00
          1   -1    0    0  501    0  0.00000000000E+00  0.00000000000E+00  0.66047633947E+02  0.66047633947E+02  0.00000000000E+00 0. -1.
         -1   -1    0    0    0  501 -0.00000000000E+00 -0.00000000000E+00 -0.22033952660E+03  0.22033952660E+03  0.00000000000E+00 0.  1.
         25    2    1    2    0    0  0.10752583818E+02 -0.49510592799E+02 -0.95154892952E+02  0.16514637990E+03  0.12510777867E+03 0.  0.
          5    1    3    3  502    0  0.24891306630E+02  0.29497316020E+02 -0.71510385069E+02  0.81368767785E+02  0.41800000000E+01 0. -1.
         -5    1    3    3    0  502 -0.14138722813E+02 -0.79007908819E+02 -0.23644507883E+02  0.83777612116E+02  0.41800000000E+01 0. -1.
        -11    1    1    2    0    0  0.99985817317E+01  0.55542221952E+02 -0.75409919312E+02  0.94188990794E+02  0.00000000000E+00 0.  1.
         11    1    1    2    0    0 -0.20751165549E+02 -0.60316291533E+01  0.16272919607E+02  0.27051789857E+02  0.00000000000E+00 0. -1.
</event>
<event>
 7    1  0.2686828E-009  0.7707677E+02  0.7561462E-02  0.1337558E+00
          1   -1    0    0  501    0  0.00000000000E+00  0.00000000000E+00  0.10479091427E+04  0.10479091427E+04  0.00000000000E+00 0. -1.
         -1   -1    0    0    0  501 -0.00000000000E+00 -0.00000000000E+00 -0.28574187750E+02  0.28574187750E+02  0.00000000000E+00 0.  1.
         25    2    1    2    0    0  0.21135923210E+01 -0.53183770044E+02  0.92475831202E+03  0.93469695811E+03  0.12508991638E+03 0.  0.
          5    1    3    3  502    0  0.17164461422E+02 -0.16167654976E+02  0.84548171380E+03  0.84582079224E+03  0.41800000000E+01 0.  1.
         -5    1    3    3    0  502 -0.15050869101E+02 -0.37016115068E+02  0.79276598217E+02  0.88876165873E+02  0.41800000000E+01 0.  1.
        -11    1    1    2    0    0 -0.36956697074E+02  0.20529164415E+02  0.81639814572E+01  0.43056876843E+02  0.00000000000E+00 0.  1.
         11    1    1    2    0    0  0.34843104754E+02  0.32654605629E+02  0.86412661443E+02  0.98729495467E+02  0.00000000000E+00 0. -1.
</event>
<event>
 7    1  0.2686828E-009  0.1149108E+03  0.7561462E-02  0.1251737E+00
         -1   -1    0    0    0  501 -0.00000000000E+00  0.00000000000E+00  0.16895796326E+03  0.16895796326E+03  0.00000000000E+00 0.  1.
          1   -1    0    0  501    0  0.00000000000E+00 -0.00000000000E+00 -0.90013685725E+02  0.90013685725E+02  0.00000000000E+00 0. -1.
         25    2    1    2    0    0 -0.41808385646E+02  0.42851051480E+01  0.55008986410E+01  0.13207417472E+03  0.12508806700E+03 0.  0.
          5    1    3    3  502    0 -0.20316985428E+02  0.62615677707E+02 -0.12684071125E+02  0.67170388208E+02  0.41800000000E+01 0.  1.
         -5    1    3    3    0  502 -0.21491400218E+02 -0.58330572559E+02  0.18184969766E+02  0.64903786514E+02  0.41800000000E+01 0.  1.
        -11    1    1    2    0    0  0.70875849998E+02 -0.10994907201E+02  0.40159966934E+02  0.82201563497E+02  0.00000000000E+00 0. -1.
         11    1    1    2    0    0 -0.29067464352E+02  0.67098020531E+01  0.33283411957E+02  0.44695910763E+02  0.00000000000E+00 0.  1.
</event>
<event>
 7    1  0.2686828E-009  0.1186452E+03  0.7561462E-02  0.1245349E+00
         -1   -1    0    0    0  501 -0.00000000000E+00  0.00000000000E+00  0.70262539761E+02  0.70262539761E+02  0.00000000000E+00 0.  1.
          1   -1    0    0  501    0  0.00000000000E+00 -0.00000000000E+00 -0.32473363166E+03  0.32473363166E+03  0.00000000000E+00 0. -1.
         25    2    1    2    0    0 -0.99834305297E+01  0.10326140528E+03 -0.15062590995E+03  0.22158250319E+03  0.12509218307E+03 0.  0.
          5    1    3    3  502    0 -0.15716057867E+02  0.71053120698E+02 -0.16884336689E+03  0.18390512603E+03  0.41800000000E+01 0.  1.
         -5    1    3    3    0  502  0.57326273372E+01  0.32208284585E+02  0.18217456945E+02  0.37677377159E+02  0.41800000000E+01 0.  1.
        -11    1    1    2    0    0  0.44052262016E+02 -0.39691610172E+02 -0.75305969061E+02  0.95848915919E+02  0.00000000000E+00 0.  1.
         11    1    1    2    0    0 -0.34068831486E+02 -0.63569795111E+02 -0.28539212890E+02  0.77564752314E+02  0.00000000000E+00 0. -1.
</event>
<event>
 7    1  0.2686828E-009  0.1289083E+03  0.7561462E-02  0.1229085E+00
         -2   -1    0    0    0  501 -0.00000000000E+00  0.00000000000E+00  0.25870455941E+02  0.25870455941E+02  0.00000000000E+00 0. -1.
          2   -1    0    0  501    0  0.00000000000E+00 -0.00000000000E+00 -0.81281508949E+03  0.81281508949E+03  0.00000000000E+00 0.  1.
         25    2    1    2    0    0 -0.71646798119E+02 -0.55675274164E+01 -0.24069317688E+03  0.28061400234E+03  0.12508697724E+03 0.  0.
          5    1    3    3  502    0  0.21638917813E+02  0.35548612086E+02 -0.79793739508E+02  0.90091397204E+02  0.41800000000E+01 0. -1.
         -5    1    3    3    0  502 -0.93285715932E+02 -0.41116139502E+02 -0.16089943737E+03  0.19052260514E+03  0.41800000000E+01 0. -1.
        -11    1    1    2    0    0  0.15885861709E+01 -0.33639620733E+02 -0.18014989611E+03  0.18327065438E+03  0.00000000000E+00 0.  1.
         11    1    1    2    0    0  0.70058211948E+02  0.39207148150E+02 -0.36610156056E+03  0.37480088871E+03  0.00000000000E+00 0. -1.
</event>
<event>
 7    1  0.2686828E-009  0.9695199E+02  0.7561462E-02  0.1286839E+00
         -1   -1    0    0    0  501 -0.00000000000E+00  0.00000000000E+00  0.14858250411E+03  0.14858250411E+03  0.00000000000E+00 0.  1.
          1   -1    0    0  501    0  0.00000000000E+00 -0.00000000000E+00 -0.13944183201E+03  0.13944183201E+03  0.00000000000E+00 0. -1.
         25    2    1    2    0    0 -0.50260179697E+02  0.71974392939E+02 -0.35430093231E+02  0.15687773727E+03  0.12509569953E+03 0.  0.
          5    1    3    3  502    0 -0.57285018953E+02  0.48929075340E+02 -0.77534350732E+02  0.10818814978E+03  0.41800000000E+01 0.  1.
         -5    1    3    3    0  502  0.70248392560E+01  0.23045317598E+02  0.42104257501E+02  0.48689587485E+02  0.41800000000E+01 0.  1.
        -11    1    1    2    0    0  0.74548130311E+00 -0.27298182079E+02  0.57095228862E+02  0.63289901612E+02  0.00000000000E+00 0.  1.
         11    1    1    2    0    0  0.49514698394E+02 -0.44676210859E+02 -0.12524463522E+02  0.67856697240E+02  0.00000000000E+00 0. -1.
</event>
<event>
 7    1  0.2686828E-009  0.2743873E+03  0.7561462E-02  0.1098795E+00
         -1   -1    0    0    0  501 -0.00000000000E+00  0.00000000000E+00  0.71466836199E+02  0.71466836199E+02  0.00000000000E+00 0.  1.
          1   -1    0    0  501    0  0.00000000000E+00 -0.00000000000E+00 -0.15209300166E+04  0.15209300166E+04  0.00000000000E+00 0. -1.
         25    2    1    2    0    0 -0.91704765380E+02 -0.25266499756E+03 -0.11146388603E+04  0.11533937699E+04  0.12509210475E+03 0.  0.
          5    1    3    3  502    0 -0.51781156604E+02 -0.15630447974E+03 -0.89722546633E+03  0.91221893666E+03  0.41800000000E+01 0.  1.
         -5    1    3    3    0  502 -0.39923608776E+02 -0.96360517819E+02 -0.21741339393E+03  0.24117483325E+03  0.41800000000E+01 0.  1.
        -11    1    1    2    0    0  0.62430676832E+02  0.66460604017E+02 -0.14646007601E+03  0.17252581013E+03  0.00000000000E+00 0. -1.
         11    1    1    2    0    0  0.29274088548E+02  0.18620439355E+03 -0.18836424415E+03  0.26647727279E+03  0.00000000000E+00 0.  1.
</event>
<event>
 7    1  0.2686828E-009  0.1575182E+03  0.7561462E-02  0.1191527E+00
          2   -1    0    0  501    0  0.00000000000E+00  0.00000000000E+00  0.18166297733E+04  0.18166297733E+04  0.00000000000E+00 0. -1.
         -2   -1    0    0    0  501 -0.00000000000E+00 -0.00000000000E+00 -0.27344235350E+02  0.27344235350E+02  0.00000000000E+00 0.  1.
         25    2    1    2    0    0 -0.62517123663E+02  0.10812972835E+03  0.15446635636E+04  0.15547457842E+04  0.12509396409E+03 0.  0.
          5    1    3    3  502    0 -0.96479378016E+02  0.86804136829E+02  0.96735438019E+03  0.97603032629E+03  0.41800000000E+01 0. -1.
         -5    1    3    3    0  502  0.33962254353E+02  0.21325591516E+02  0.57730918344E+03  0.57871545794E+03  0.41800000000E+01 0. -1.
        -11    1    1    2    0    0 -0.13787119965E+02 -0.40935212254E+02  0.32692392635E+02  0.54171660630E+02  0.00000000000E+00 0.  1.
         11    1    1    2    0    0  0.76304243629E+02 -0.67194516092E+02  0.21192958164E+03  0.23505656375E+03  0.00000000000E+00 0. -1.
</event>
<event>
 7    1  0.2686828E-009  0.8714975E+02  0.7561462E-02  0.1309905E+00
         -2   -1    0    0    0  501 -0.00000000000E+00  0.00000000000E+00  0.13189704860E+03  0.13189704860E+03  0.00000000000E+00 0.  1.
          2   -1    0    0  501    0  0.00000000000E+00 -0.00000000000E+00 -0.94492487373E+02  0.94492487373E+02  0.00000000000E+00 0. -1.
         25    2    1    2    0    0 -0.14412645163E+02 -0.33101985128E+01  0.44125605439E+02  0.13346773003E+03  0.12509150311E+03 0.  0.
          5    1    3    3  502    0  0.40338428164E+02  0.10704953034E+02 -0.21191439039E+02  0.46992917496E+02  0.41800000000E+01 0. -1.
         -5    1    3    3    0  502 -0.54751073328E+02 -0.14015151547E+02  0.65317044478E+02  0.86474812534E+02  0.41800000000E+01 0. -1.
        -11    1    1    2    0    0 -0.17660302740E+02  0.29429872762E+02  0.23585040649E+02  0.41644421548E+02  0.00000000000E+00 0.  1.
         11    1    1    2    0    0  0.32072947903E+02 -0.26119674249E+02 -0.30306084865E+02  0.51277384391E+02  0.00000000000E+00 0. -1.
</event>
<event>
 7    1  0.3634669E-009  0.1181049E+03  0.7561462E-02  0.1246257E+00
          1   -1    0    0  501    0  0.00000000000E+00  0.00000000000E+00  0.52538944547E+02  0.52538944547E+02  0.00000000000E+00 0. -1.
         -1   -1    0    0    0  501 -0.00000000000E+00 -0.00000000000E+00 -0.36226429116E+03  0.36226429116E+03  0.00000000000E+00 0.  1.
         25    2    1    2    0    0 -0.81588344195E+02  0.20061993015E+02 -0.19028737956E+03  0.24272567147E+03  0.12508926133E+03 0.  0.
          5    1    3    3  502    0  0.26426219465E+02  0.32224395143E+02 -0.54919838234E+02  0.69068210844E+02  0.41800000000E+01 0. -1.
         -5    1    3    3    0  502 -0.10801456366E+03 -0.12162402128E+02 -0.13536754132E+03  0.17365746063E+03  0.41800000000E+01 0. -1.
        -11    1    1    2    0    0  0.49563900162E+02 -0.20204901894E+02 -0.55946162065E+01  0.53815592446E+02  0.00000000000E+00 0. -1.
         11    1    1    2    0    0  0.32024444033E+02  0.14290887892E+00 -0.11384335084E+03  0.11826197178E+03  0.00000000000E+00 0.  1.
</event>
<event>
 7    1  0.2686828E-009  0.6693385E+02  0.7561462E-02  0.1370841E+00
          2   -1    0    0  501    0  0.00000000000E+00  0.00000000000E+00  0.24615853296E+03  0.24615853296E+03  0.00000000000E+00 0. -1.
         -2   -1    0    0    0  501 -0.00000000000E+00 -0.00000000000E+00 -0.68501120561E+02  0.68501120561E+02  0.00000000000E+00 0.  1.
         25    2    1    2    0    0  0.61310508727E+02  0.26013421965E+02  0.13766150483E+03  0.19756978765E+03  0.12508978567E+03 0.  0.
          5    1    3    3  502    0  0.22873117128E+02  0.77873801251E+01 -0.21596203168E+02  0.32675543877E+02  0.41800000000E+01 0.  1.
         -5    1    3    3    0  502  0.38437391600E+02  0.18226041839E+02  0.15925770800E+03  0.16489424377E+03  0.41800000000E+01 0.  1.
        -11    1    1    2    0    0 -0.29943088548E+02 -0.12901591148E+02 -0.26757062598E+02  0.42177956385E+02  0.00000000000E+00 0.  1.
         11    1    1    2    0    0 -0.31367420179E+02 -0.13111830817E+02  0.66752970169E+02  0.74911909483E+02  0.00000000000E+00 0. -1.
</event>
<event>
 7    1  0.2686828E-009  0.1151134E+03  0.7561462E-02  0.1251383E+00
         -1   -1    0    0    0  501 -0.00000000000E+00  0.00000000000E+00  0.10972820478E+03  0.10972820478E+03  0.00000000000E+00 0.  1.
          1   -1    0    0  501    0  0.00000000000E+00 -0.00000000000E+00 -0.13983429901E+03  0.13983429901E+03  0.00000000000E+00 0. -1.
         25    2    1    2    0    0  0.43386388931E+02 -0.18460110783E+02  0.90442400625E+01  0.13399078888E+03  0.12509427961E+03 0.  0.
          5    1    3    3  502    0 -0.26200748901E+02 -0.50369073513E+02  0.62476011903E+01  0.57271526347E+02  0.41800000000E+01 0.  1.
         -5    1    3    3    0  502  0.69587137832E+02  0.31908962730E+02  0.27966388723E+01  0.76719262530E+02  0.41800000000E+01 0.  1.
        -11    1    1    2    0    0 -0.63427397111E+02  0.33350944945E+02 -0.50978720592E+02  0.87944017342E+02  0.00000000000E+00 0. -1.
         11    1    1    2    0    0  0.20041008181E+02 -0.14890834162E+02  0.11828386300E+02  0.27627697577E+02  0.00000000000E+00 0.  1.
</event>
<event>
 7    1  0.2686828E-009  0.9362408E+02  0.7561462E-02  0.1294305E+00
          1   -1    0    0  501    0  0.00000000000E+00  0.00000000000E+00  0.25887059000E+03  0.25887059000E+03  0.00000000000E+00 0. -1.
         -1   -1    0    0    0  501 -0.00000000000E+00 -0.00000000000E+00 -0.15470521342E+03  0.15470521342E+03  0.00000000000E+00 0.  1.
         25    2    1    2    0    0 -0.17531189480E+02 -0.39616272252E+02  0.22174479171E+03  0.25824740912E+03  0.12507669662E+03 0.  0.
          5    1    3    3  502    0 -0.66137345439E+02 -0.18075849148E+02  0.73023596341E+02  0.10025369223E+03  0.41800000000E+01 0.  1.
         -5    1    3    3    0  502  0.48606155959E+02 -0.21540423105E+02  0.14872119537E+03  0.15799371689E+03  0.41800000000E+01 0.  1.
        -11    1    1    2    0    0  0.34674343473E+02  0.26807852150E+02 -0.91067213517E+01  0.44764979682E+02  0.00000000000E+00 0. -1.
         11    1    1    2    0    0 -0.17143153993E+02  0.12808420102E+02 -0.10847269378E+03  0.11056341461E+03  0.00000000000E+00 0.  1.
</event>
<event>
 7    1  0.2686828E-009  0.1046688E+03  0.7561462E-02  0.1270774E+00
          2   -1    0    0  501    0  0.00000000000E+00  0.00000000000E+00  0.56780932250E+03  0.56780932250E+03  0.00000000000E+00 0. -1.
         -2   -1    0    0    0  501 -0.00000000000E+00 -0.00000000000E+00 -0.33916612424E+02  0.33916612424E+02  0.00000000000E+00 0.  1.
         25    2    1    2    0    0 -0.23123053553E+02 -0.50536453641E+02  0.43763637674E+03  0.45854315395E+03  0.12509043542E+03 0.  0.
          5    1    3    3  502    0  0.35655822501E+02 -0.35043201769E+02  0.33836944090E+03  0.34206828938E+03  0.41800000000E+01 0. -1.
         -5    1    3    3    0  502 -0.58778876054E+02 -0.15493251871E+02  0.99266935849E+02  0.11647486457E+03  0.41800000000E+01 0. -1.
        -11    1    1    2    0    0 -0.18384502427E+02  0.53554590018E+02  0.27824059508E+02  0.63089320245E+02  0.00000000000E+00 0.  1.
         11    1    1    2    0    0  0.41507555980E+02 -0.30181363774E+01  0.68432273827E+02  0.80093460730E+02  0.00000000000E+00 0. -1.
</event>
<event>
 7    1  0.2686828E-009  0.1278008E+03  0.7561462E-02  0.1230756E+00
         -1   -1    0    0    0  501 -0.00000000000E+00  0.00000000000E+00  0.12844512708E+03  0.12844512708E+03  0.00000000000E+00 0.  1.
          1   -1    0    0  501    0  0.00000000000E+00 -0.00000000000E+00 -0.19752321897E+03  0.19752321897E+03  0.00000000000E+00 0. -1.
         25    2    1    2    0    0 -0.65463054725E+02 -0.87660040312E+02  0.55775694741E+00  0.16618152210E+03  0.12508514298E+03 0.  0.
          5    1    3    3  502    0 -0.70107101042E+02 -0.99016322761E+02 -0.36628968054E+02  0.12680059736E+03  0.41800000000E+01 0. -1.
         -5    1    3    3    0  502  0.46440463175E+01  0.11356282448E+02  0.37186725002E+02  0.39380924743E+02  0.41800000000E+01 0. -1.
        -11    1    1    2    0    0  0.64514171910E+02  0.45195591795E+02 -0.64921744716E+00  0.78772719760E+02  0.00000000000E+00 0.  1.
         11    1    1    2    0    0  0.94888281444E+00  0.42464448517E+02 -0.68986631393E+02  0.81014104188E+02  0.00000000000E+00 0. -1.
</event>
<event>
 7    1  0.2686828E-009  0.8486287E+02  0.7561462E-02  0.1315792E+00
         -1   -1    0    0    0  501 -0.00000000000E+00  0.00000000000E+00  0.13823506625E+02  0.13823506625E+02  0.00000000000E+00 0.  1.
          1   -1    0    0  501    0  0.00000000000E+00 -0.00000000000E+00 -0.12905586540E+04  0.12905586540E+04  0.00000000000E+00 0. -1.
         25    2    1    2    0    0  0.19626565401E+02  0.15451905487E+01 -0.10865492145E+04  0.10939039084E+04  0.12509586577E+03 0.  0.
          5    1    3    3  502    0 -0.49027606927E+02  0.14416618388E+01 -0.66114771844E+03  0.66297779950E+03  0.41800000000E+01 0.  1.
         -5    1    3    3    0  502  0.68654172328E+02  0.10352870992E+00 -0.42540149609E+03  0.43092610894E+03  0.41800000000E+01 0.  1.
        -11    1    1    2    0    0  0.40292781315E+01  0.19587289557E+02 -0.25259916941E+01  0.20156329738E+02  0.00000000000E+00 0.  1.
         11    1    1    2    0    0 -0.23655843532E+02 -0.21132480106E+02 -0.18765994114E+03  0.19032192243E+03  0.00000000000E+00 0. -1.
</event>
<event>
 7    1  0.2686828E-009  0.1377856E+03  0.7561462E-02  0.1216340E+00
         -2   -1    0    0    0  501 -0.00000000000E+00  0.00000000000E+00  0.13893278955E+03  0.13893278955E+03  0.00000000000E+00 0.  1.
          2   -1    0    0  501    0  0.00000000000E+00 -0.00000000000E+00 -0.16125564250E+03  0.16125564250E+03  0.00000000000E+00 0. -1.
         25    2    1    2    0    0 -0.27271996384E+02  0.98952047832E+02 -0.12636354738E+02  0.16230524866E+03  0.12509215293E+03 0.  0.
          5    1    3    3  502    0  0.33714042038E+02  0.16246034335E+02  0.32735831973E+02  0.49896666794E+02  0.41800000000E+01 0.  1.
         -5    1    3    3    0  502 -0.60986038422E+02  0.82706013497E+02 -0.45372186711E+02  0.11240858187E+03  0.41800000000E+01 0.  1.
        -11    1    1    2    0    0  0.31187547256E+02 -0.11468847463E+03 -0.17056095686E+02  0.12007089454E+03  0.00000000000E+00 0. -1.
         11    1    1    2    0    0 -0.39155508718E+01  0.15736426795E+02  0.73695974813E+01  0.17812288847E+02  0.00000000000E+00 0.  1.
</event>
<event>
 7    1  0.2686828E-009  0.1323216E+03  0.7561462E-02  0.1224051E+00
          1   -1    0    0  501    0  0.00000000000E+00  0.00000000000E+00  0.13422298850E+03  0.13422298850E+03  0.00000000000E+00 0. -1.
         -1   -1    0    0    0  501 -0.00000000000E+00 -0.00000000000E+00 -0.20233790103E+03  0.20233790103E+03  0.00000000000E+00 0.  1.
         25    2    1    2    0    0 -0.10514728572E+03  0.50527621461E+02 -0.79774413698E+02  0.18873426543E+03  0.12509066168E+03 0.  0.
          5    1    3    3  502    0  0.48336971218E+01 -0.16226052895E+02 -0.54936313768E+02  0.57637838187E+02  0.41800000000E+01 0. -1.
         -5    1    3    3    0  502 -0.10998098284E+03  0.66753674356E+02 -0.24838099930E+02  0.13109642724E+03  0.41800000000E+01 0. -1.
        -11    1    1    2    0    0  0.55059218584E+02 -0.37851202216E+02 -0.37406804685E+02  0.76573494742E+02  0.00000000000E+00 0.  1.
         11    1    1    2    0    0  0.50088067136E+02 -0.12676419245E+02  0.49066305849E+02  0.71253129363E+02  0.00000000000E+00 0. -1.
</event>
<event>
 7    1  0.2686828E-009  0.7044820E+02  0.7561462E-02  0.1358576E+00
         -2   -1    0    0    0  501 -0.00000000000E+00  0.00000000000E+00  0.62375677872E+03  0.62375677872E+03  0.00000000000E+00 0. -1.
          2   -1    0    0  501    0  0.00000000000E+00 -0.00000000000E+00 -0.18836670727E+02  0.18836670727E+02  0.00000000000E+00 0.  1.
         25    2    1    2    0    0 -0.19317104588E+02  0.14149342471E+02  0.40252670071E+03  0.42219468527E+03  0.12508898058E+03 0.  0.
          5    1    3    3  502    0  0.25155175890E+02  0.41060257788E+01  0.35594270614E+03  0.35687858548E+03  0.41800000000E+01 0.  1.
         -5    1    3    3    0  502 -0.44472280478E+02  0.10043316692E+02  0.46583994570E+02  0.65316099785E+02  0.41800000000E+01 0.  1.
        -11    1    1    2    0    0 -0.21174920254E+02 -0.19067613629E+02  0.15618330717E+03  0.15876138250E+03  0.00000000000E+00 0. -1.
         11    1    1    2    0    0  0.40492024842E+02  0.49182711581E+01  0.46210100117E+02  0.61637381675E+02  0.00000000000E+00 0.  1.
</event>
<event>
 7    1  0.2686828E-009  0.1079616E+03  0.7561462E-02  0.1264392E+00
          2   -1    0    0  501    0  0.00000000000E+00  0.00000000000E+00  0.14401870493E+03  0.14401870493E+03  0.00000000000E+00 0. -1.
         -2   -1    0    0    0  501 -0.00000000000E+00 -0.00000000000E+00 -0.95063607060E+02  0.95063607060E+02  0.00000000000E+00 0.  1.
         25    2    1    2    0    0 -0.10202564175E+02 -0.18926747751E+02  0.67207028094E+02  0.14361971528E+03  0.12509006314E+03 0.  0.
          5    1    3    3  502    0 -0.41418406314E+02 -0.60654357895E+02  0.48406109613E+02  0.88062814861E+02  0.41800000000E+01 0. -1.
         -5    1    3    3    0  502  0.31215842140E+02  0.41727610144E+02  0.18800918480E+02  0.55556900422E+02  0.41800000000E+01 0. -1.
        -11    1    1    2    0    0  0.23698656580E+02 -0.30623962268E+02 -0.20967434028E+02  0.44035061922E+02  0.00000000000E+00 0.  1.
         11    1    1    2    0    0 -0.13496092406E+02  0.49550710020E+02  0.27155038088E+01  0.51427534790E+02  0.00000000000E+00 0. -1.
</event>
<event>
 7    1  0.2686828E-009  0.9163316E+02  0.7561462E-02  0.1298944E+00
         -1   -1    0    0    0  501 -0.00000000000E+00  0.00000000000E+00  0.33057439941E+03  0.33057439941E+03  0.00000000000E+00 0.  1.
          1   -1    0    0  501    0  0.00000000000E+00 -0.00000000000E+00 -0.42682498725E+02  0.42682498725E+02  0.00000000000E+00 0. -1.
         25    2    1    2    0    0 -0.14939389959E+02  0.40658376456E+02  0.21604510991E+03  0.25337616500E+03  0.12509077713E+03 0.  0.
          5    1    3    3  502    0  0.49543688495E+02  0.23242375178E+02  0.14838209851E+03  0.15820715734E+03  0.41800000000E+01 0.  1.
         -5    1    3    3    0  502 -0.64483078453E+02  0.17416001278E+02  0.67663011398E+02  0.95169007658E+02  0.41800000000E+01 0.  1.
        -11    1    1    2    0    0 -0.71286483380E+01 -0.38646493859E+02  0.85327878096E+02  0.93942620227E+02  0.00000000000E+00 0.  1.
         11    1    1    2    0    0  0.22068038297E+02 -0.20118825970E+01 -0.13481087325E+02  0.25938112909E+02  0.00000000000E+00 0. -1.
</event>
<event>
 7    1  0.2686828E-009  0.1101590E+03  0.7561462E-02  0.1260276E+00
          2   -1    0    0  501    0  0.00000000000E+00  0.00000000000E+00  0.48440160130E+03  0.48440160130E+03  0.00000000000E+00 0. -1.
         -2   -1    0    0    0  501 -0.00000000000E+00 -0.00000000000E+00 -0.29995739973E+02  0.29995739973E+02  0.00000000000E+00 0.  1.
         25    2    1    2    0    0  0.23610291263E+02 -0.10118549123E+02  0.15577375527E+03  0.20142660085E+03  0.12508949519E+03 0.  0.
          5    1    3    3  502    0 -0.35162926713E+02 -0.45843316003E+02  0.59563311827E+02  0.83086109266E+02  0.41800000000E+01 0.  1.
         -5    1    3    3    0  502  0.58773217976E+02  0.35724766880E+02  0.96210443446E+02  0.11834049158E+03  0.41800000000E+01 0.  1.
        -11    1    1    2    0    0 -0.48870652494E+02 -0.21181615537E+02  0.16100230118E+03  0.16958402784E+03  0.00000000000E+00 0. -1.
         11    1    1    2    0    0  0.25260361231E+02  0.31300164660E+02  0.13762980487E+03  0.14338671259E+03  0.00000000000E+00 0.  1.
</event>
<event>
 7    1  0.2686828E-009  0.9828446E+02  0.7561462E-02  0.1283945E+00
          1   -1    0    0  501    0  0.00000000000E+00  0.00000000000E+00  0.44644601139E+03  0.44644601139E+03  0.00000000000E+00 0. -1.
         -1   -1    0    0    0  501 -0.00000000000E+00 -0.00000000000E+00 -0.43096036242E+02  0.43096036242E+02  0.00000000000E+00 0.  1.
         25    2    1    2    0    0  0.29494410751E+02 -0.22283399606E+02  0.35663804020E+03  0.37974292848E+03  0.12509008694E+03 0.  0.
          5    1    3    3  502    0 -0.30890550441E+02  0.96881566529E+01  0.25574102040E+03  0.25781588081E+03  0.41800000000E+01 0. -1.
         -5    1    3    3    0  502  0.60384961192E+02 -0.31971556259E+02  0.10089701980E+03  0.12192704767E+03  0.41800000000E+01 0. -1.
        -11    1    1    2    0    0 -0.58910094513E+02  0.57482466659E+00  0.43235203929E+02  0.73075389275E+02  0.00000000000E+00 0. -1.
         11    1    1    2    0    0  0.29415683762E+02  0.21708574939E+02  0.34767310139E+01  0.36723729871E+02  0.00000000000E+00 0.  1.
</event>
<event>
 7    1  0.2686828E-009  0.1111459E+03  0.7561462E-02  0.1258462E+00
         -2   -1    0    0    0  501 -0.00000000000E+00  0.00000000000E+00  0.28867484892E+02  0.28867484892E+02  0.00000000000E+00 0.  1.
          2   -1    0    0  501    0  0.00000000000E+00 -0.00000000000E+00 -0.56164150978E+03  0.56164150978E+03  0.00000000000E+00 0. -1.
         25    2    1    2    0    0  0.51508883514E+02 -0.22402292901E+02 -0.36711887331E+03  0.39189249893E+03  0.12509370796E+03 0.  0.
          5    1    3    3  502    0 -0.46730927151E+01 -0.50245679573E+02 -0.27960481186E+03  0.28415275703E+03  0.41800000000E+01 0. -1.
         -5    1    3    3    0  502  0.56181976229E+02  0.27843386672E+02 -0.87514061450E+02  0.10773974191E+03  0.41800000000E+01 0. -1.
        -11    1    1    2    0    0  0.21775855168E+02 -0.15092454212E+02 -0.50981353690E+02  0.57454925520E+02  0.00000000000E+00 0. -1.
         11    1    1    2    0    0 -0.73284738682E+02  0.37494747113E+02 -0.11467379789E+03  0.14116157022E+03  0.00000000000E+00 0.  1.
</event>
<event>
 7    1  0.2686828E-009  0.1277644E+03  0.7561462E-02  0.1230811E+00
         -2   -1    0    0    0  501 -0.00000000000E+00  0.00000000000E+00  0.22240703795E+03  0.22240703795E+03  0.00000000000E+00 0.  1.
          2   -1    0    0  501    0  0.00000000000E+00 -0.00000000000E+00 -0.24471960597E+03  0.24471960597E+03  0.00000000000E+00 0. -1.
         25    2    1    2    0    0 -0.26084091323E+02  0.99794344257E+02  0.16743360713E+03  0.23307011990E+03  0.12509347316E+03 0.  0.
          5    1    3    3  502    0  0.29606881558E+02 -0.23435376332E+01  0.85797674854E+02  0.90888794769E+02  0.41800000000E+01 0. -1.
         -5    1    3    3    0  502 -0.55690972880E+02  0.10213788189E+03  0.81635932277E+02  0.14218132513E+03  0.41800000000E+01 0. -1.
        -11    1    1    2    0    0  0.29456755993E+02 -0.42365922514E+02 -0.16232311656E+03  0.17032723222E+03  0.00000000000E+00 0. -1.
         11    1    1    2    0    0 -0.33726646703E+01 -0.57428421743E+02 -0.27423058595E+02  0.63729291802E+02  0.00000000000E+00 0.  1.
</event>
<event>
 7    1  0.3054051E-009  0.1129324E+03  0.7561462E-02  0.1255234E+00
          3   -1    0    0  501    0  0.00000000000E+00  0.00000000000E+00  0.22792431245E+03  0.22792431245E+03  0.00000000000E+00 0. -1.
         -3   -1    0    0    0  501 -0.00000000000E+00 -0.00000000000E+00 -0.73439605132E+02  0.73439605132E+02  0.00000000000E+00 0.  1.
         25    2    1    2    0    0 -0.25059589038E+02  0.41416985682E+02  0.14525115586E+03  0.19770772493E+03  0.12508835483E+03 0.  0.
          5    1    3    3  502    0 -0.35996136340E+02  0.83128813087E+02  0.10216698570E+03  0.13660778442E+03  0.41800000000E+01 0. -1.
         -5    1    3    3    0  502  0.10936547301E+02 -0.41711827405E+02  0.43084170165E+02  0.61099940516E+02  0.41800000000E+01 0. -1.
        -11    1    1    2    0    0 -0.28361209450E+02 -0.17507076211E+02 -0.19331419103E+02  0.38529984213E+02  0.00000000000E+00 0.  1.
         11    1    1    2    0    0  0.53420798489E+02 -0.23909909470E+02  0.28564970556E+02  0.65126208434E+02  0.00000000000E+00 0. -1.
</event>
<event>
 7    1  0.2686828E-009  0.1671736E+03  0.7561462E-02  0.1180828E+00
          1   -1    0    0  501    0  0.00000000000E+00  0.00000000000E+00  0.14078221153E+03  0.14078221153E+03  0.00000000000E+00 0. -1.
         -1   -1    0    0    0  501 -0.00000000000E+00 -0.00000000000E+00 -0.35333096583E+03  0.35333096583E+03  0.00000000000E+00 0.  1.
         25    2    1    2    0    0  0.16087956669E+02  0.12691994142E+03 -0.27013379875E+03  0.32401824432E+03  0.12509220415E+03 0.  0.
          5    1    3    3  502    0  0.49405281931E+02  0.26996825412E+01 -0.63769080038E+02  0.80821643991E+02  0.41800000000E+01 0. -1.
         -5    1    3    3    0  502 -0.33317325262E+02  0.12422025888E+03 -0.20636471871E+03  0.24319660032E+03  0.41800000000E+01 0. -1.
        -11    1    1    2    0    0  0.34824185680E+02 -0.77938697548E+02  0.12471583257E+02  0.86271112620E+02  0.00000000000E+00 0.  1.
         11    1    1    2    0    0 -0.50912142349E+02 -0.48981243877E+02  0.45113461187E+02  0.83823820424E+02  0.00000000000E+00 0. -1.
</event>
<event>
 7    1  0.2686828E-009  0.1686510E+03  0.7561462E-02  0.1179262E+00
         -2   -1    0    0    0  501 -0.00000000000E+00  0.00000000000E+00  0.48221535435E+02  0.48221535435E+02  0.00000000000E+00 0.  1.
          2   -1    0    0  501    0  0.00000000000E+00 -0.00000000000E+00 -0.11202033364E+04  0.11202033364E+04  0.00000000000E+00 0. -1.
         25    2    1    2    0    0 -0.10723366618E+03  0.12259639089E+03 -0.86758896991E+03  0.89156369105E+03  0.12508501217E+03 0.  0.
          5    1    3    3  502    0 -0.88516358014E+02  0.98726437255E+02 -0.37054303765E+03  0.39357549491E+03  0.41800000000E+01 0.  1.
         -5    1    3    3    0  502 -0.18717308167E+02  0.23869953631E+02 -0.49704593226E+03  0.49798819614E+03  0.41800000000E+01 0.  1.
        -11    1    1    2    0    0  0.52078202063E+02 -0.10312218229E+03 -0.17911669400E+03  0.21314106522E+03  0.00000000000E+00 0. -1.
         11    1    1    2    0    0  0.55155464118E+02 -0.19474208598E+02 -0.25276137034E+02  0.63720115552E+02  0.00000000000E+00 0.  1.
</event>
<event>
 7    1  0.2686828E-009  0.2414208E+03  0.7561462E-02  0.1118850E+00
          1   -1    0    0  501    0  0.00000000000E+00  0.00000000000E+00  0.30115161005E+04  0.30115161005E+04  0.00000000000E+00 0. -1.
         -1   -1    0    0    0  501 -0.00000000000E+00 -0.00000000000E+00 -0.22343694090E+02  0.22343694090E+02  0.00000000000E+00 0.  1.
         25    2    1    2    0    0  0.56560968425E+02  0.21392347131E+03  0.20222283536E+04  0.20381403830E+04  0.12508521861E+03 0.  0.
          5    1    3    3  502    0  0.91334201585E+02  0.14773314416E+03  0.15910327230E+04  0.16004904299E+04  0.41800000000E+01 0. -1.
         -5    1    3    3    0  502 -0.34773233160E+02  0.66190327148E+02  0.43119563061E+03  0.43764995306E+03  0.41800000000E+01 0. -1.
        -11    1    1    2    0    0 -0.70879805612E+02 -0.12125996015E+03  0.65970946432E+03  0.67449573912E+03  0.00000000000E+00 0.  1.
         11    1    1    2    0    0  0.14318837187E+02 -0.92663511167E+02  0.30723458846E+03  0.32122367245E+03  0.00000000000E+00 0. -1.
</event>
<event>
 7    1  0.2686828E-009  0.1252311E+03  0.7561462E-02  0.1234709E+00
         -2   -1    0    0    0  501 -0.00000000000E+00  0.00000000000E+00  0.25360355318E+02  0.25360355318E+02  0.00000000000E+00 0.  1.
          2   -1    0    0  501    0  0.00000000000E+00 -0.00000000000E+00 -0.75570149328E+03  0.75570149328E+03  0.00000000000E+00 0. -1.
         25    2    1    2    0    0 -0.49510474316E+02 -0.35910155733E+02 -0.24025060070E+03  0.27768387544E+03  0.12508859735E+03 0.  0.
          5    1    3    3  502    0 -0.86848235244E+02 -0.43811531467E+02 -0.19768996650E+03  0.22036529107E+03  0.41800000000E+01 0.  1.
         -5    1    3    3    0  502  0.37337760928E+02  0.79013757340E+01 -0.42560634207E+02  0.57318584366E+02  0.41800000000E+01 0.  1.
        -11    1    1    2    0    0 -0.21937967304E+02  0.37267439132E+02 -0.19890353167E+03  0.20355036560E+03  0.00000000000E+00 0. -1.
         11    1    1    2    0    0  0.71448441620E+02 -0.13572833994E+01 -0.29118700559E+03  0.29982760756E+03  0.00000000000E+00 0.  1.
</event>
<event>
 7    1  0.2686828E-009  0.1106963E+03  0.7561462E-02  0.1259286E+00
          2   -1    0    0  501    0  0.00000000000E+00  0.00000000000E+00  0.62528640790E+03  0.62528640790E+03  0.00000000000E+00 0. -1.
         -2   -1    0    0    0  501 -0.00000000000E+00 -0.00000000000E+00 -0.21132896344E+02  0.21132896344E+02  0.00000000000E+00 0.  1.
         25    2    1    2    0    0  0.25062991014E+02 -0.24565105244E+02  0.30100131697E+03  0.32784328581E+03  0.12509128394E+03 0.  0.
          5    1    3    3  502    0 -0.35055985586E+02 -0.47770412865E+02  0.19374950588E+03  0.20265063015E+03  0.41800000000E+01 0. -1.
         -5    1    3    3    0  502  0.60118976600E+02  0.23205307621E+02  0.10725181109E+03  0.12519265566E+03  0.41800000000E+01 0. -1.
        -11    1    1    2    0    0  0.64364244392E+01 -0.32015977589E+02  0.86795489044E+02  0.92735685143E+02  0.00000000000E+00 0.  1.
         11    1    1    2    0    0 -0.31499415453E+02  0.56581082833E+02  0.21635670554E+03  0.22584033329E+03  0.00000000000E+00 0. -1.
</event>
<event>
 7    1  0.2686828E-009  0.1332322E+03  0.7561462E-02  0.1222737E+00
         -1   -1    0    0    0  501 -0.00000000000E+00  0.00000000000E+00  0.26598233051E+02  0.26598233051E+02  0.00000000000E+00 0.  1.
          1   -1    0    0  501    0  0.00000000000E+00 -0.00000000000E+00 -0.70789066266E+03  0.70789066266E+03  0.00000000000E+00 0. -1.
         25    2    1    2    0    0 -0.81378162388E+02 -0.31568761791E+01 -0.32366928462E+03  0.35643230263E+03  0.12509919813E+03 0.  0.
          5    1    3    3  502    0 -0.64384200392E+02  0.55295074823E+02 -0.22393144808E+03  0.23951124482E+03  0.41800000000E+01 0.  1.
         -5    1    3    3    0  502 -0.16993961996E+02 -0.58451951002E+02 -0.99737836542E+02  0.11692105781E+03  0.41800000000E+01 0.  1.
        -11    1    1    2    0    0  0.30931258960E+01  0.35600544079E+02 -0.76418579710E+02  0.84360923960E+02  0.00000000000E+00 0. -1.
         11    1    1    2    0    0  0.78285036492E+02 -0.32443667900E+02 -0.28120456528E+03  0.29369566912E+03  0.00000000000E+00 0.  1.
</event>
<event>
 7    1  0.2686828E-009  0.1022536E+03  0.7561462E-02  0.1275627E+00
          2   -1    0    0  501    0  0.00000000000E+00  0.00000000000E+00  0.26103617269E+04  0.26103617269E+04  0.00000000000E+00 0. -1.
         -2   -1    0    0    0  501 -0.00000000000E+00 -0.00000000000E+00 -0.10445065994E+02  0.10445065994E+02  0.00000000000E+00 0.  1.
         25    2    1    2    0    0  0.68370325811E+02  0.61149616306E+01  0.22107323282E+04  0.22153321522E+04  0.12508886174E+03 0.  0.
          5    1    3    3  502    0  0.53771447084E+02 -0.25002225077E+02  0.41200852061E+03  0.41627511724E+03  0.41800000000E+01 0. -1.
         -5    1    3    3    0  502  0.14598878726E+02  0.31117186707E+02  0.17987238076E+04  0.17990570349E+04  0.41800000000E+01 0. -1.
        -11    1    1    2    0    0 -0.61282539151E+02  0.33738914246E+02  0.29063516165E+03  0.29893588129E+03  0.00000000000E+00 0. -1.
         11    1    1    2    0    0 -0.70877866597E+01 -0.39853875877E+02  0.98549171067E+02  0.10653875943E+03  0.00000000000E+00 0.  1.
</event>
<event>
 7    1  0.2686828E-009  0.1861003E+03  0.7561462E-02  0.1162026E+00
         -1   -1    0    0    0  501 -0.00000000000E+00  0.00000000000E+00  0.40543503107E+02  0.40543503107E+02  0.00000000000E+00 0.  1.
          1   -1    0    0  501    0  0.00000000000E+00 -0.00000000000E+00 -0.10123151350E+04  0.10123151350E+04  0.00000000000E+00 0. -1.
         25    2    1    2    0    0 -0.16900463633E+03  0.13569002710E+02 -0.43823519918E+03  0.48625499665E+03  0.12508855677E+03 0.  0.
          5    1    3    3  502    0 -0.10992221816E+03 -0.26548978714E+02 -0.14236874509E+03  0.18186278974E+03  0.41800000000E+01 0. -1.
         -5    1    3    3    0  502 -0.59082418171E+02  0.40117981424E+02 -0.29586645409E+03  0.30439220691E+03  0.41800000000E+01 0. -1.
        -11    1    1    2    0    0  0.65108645178E+02 -0.44778377328E+02 -0.27754378539E+03  0.28857371945E+03  0.00000000000E+00 0. -1.
         11    1    1    2    0    0  0.10389599115E+03  0.31209374618E+02 -0.25599264730E+03  0.27802992197E+03  0.00000000000E+00 0.  1.
</event>
<event>
 7    1  0.2686828E-009  0.8303955E+02  0.7561462E-02  0.1320640E+00
          1   -1    0    0  501    0  0.00000000000E+00  0.00000000000E+00  0.53125158100E+03  0.53125158100E+03  0.00000000000E+00 0. -1.
         -1   -1    0    0    0  501 -0.00000000000E+00 -0.00000000000E+00 -0.66831611468E+02  0.66831611468E+02  0.00000000000E+00 0.  1.
         25    2    1    2    0    0 -0.20287772020E+02  0.61228734188E+02  0.22013216037E+02  0.14244351658E+03  0.12508006296E+03 0.  0.
          5    1    3    3  502    0 -0.20849352068E+02  0.18323880442E+02  0.71499345405E+02  0.76812035968E+02  0.41800000000E+01 0.  1.
         -5    1    3    3    0  502  0.56158004844E+00  0.42904853746E+02 -0.49486129368E+02  0.65631480609E+02  0.41800000000E+01 0.  1.
        -11    1    1    2    0    0 -0.25793672957E+02 -0.16144372918E+02  0.54564094299E+02  0.62475553045E+02  0.00000000000E+00 0.  1.
         11    1    1    2    0    0  0.46081444976E+02 -0.45084361270E+02  0.38784265919E+03  0.39316412284E+03  0.00000000000E+00 0. -1.
</event>
<event>
 7    1  0.2686828E-009  0.1351004E+03  0.7561462E-02  0.1220078E+00
          1   -1    0    0  501    0  0.00000000000E+00  0.00000000000E+00  0.49897673008E+03  0.49897673008E+03  0.00000000000E+00 0. -1.
         -1   -1    0    0    0  501 -0.00000000000E+00 -0.00000000000E+00 -0.44589581947E+02  0.44589581947E+02  0.00000000000E+00 0.  1.
         25    2    1    2    0    0  0.10206686884E+03 -0.13485108723E+02  0.24101352515E+03  0.29040337008E+03  0.12508838546E+03 0.  0.
          5    1    3    3  502    0 -0.78323099217E+01  0.17568937181E+02 -0.39659935653E+01  0.20080192662E+02  0.41800000000E+01 0. -1.
         -5    1    3    3    0  502  0.10989917876E+03 -0.31054045905E+02  0.24497951872E+03  0.27032317742E+03  0.41800000000E+01 0. -1.
        -11    1    1    2    0    0 -0.45964209980E+02 -0.38344270254E+02  0.95224258690E+02  0.11247511326E+03  0.00000000000E+00 0.  1.
         11    1    1    2    0    0 -0.56102658861E+02  0.51829378977E+02  0.11814936429E+03  0.14068782868E+03  0.00000000000E+00 0. -1.
</event>
<event>
 7    1  0.2686828E-009  0.1676465E+03  0.7561462E-02  0.1180325E+00
         -3   -1    0    0    0  501 -0.00000000000E+00  0.00000000000E+00  0.95079318096E+02  0.95079318096E+02  0.00000000000E+00 0.  1.
          3   -1    0    0  501    0  0.00000000000E+00 -0.00000000000E+00 -0.37757121318E+03  0.37757121318E+03  0.00000000000E+00 0. -1.
         25    2    1    2    0    0  0.51666043997E+02  0.13425415968E+03 -0.75515103942E+02  0.20504370865E+03  0.12508729768E+03 0.  0.
          5    1    3    3  502    0 -0.81506695915E+01  0.96768459644E+02 -0.90442228236E+02  0.13276986573E+03  0.41800000000E+01 0. -1.
         -5    1    3    3    0  502  0.59816713588E+02  0.37485700035E+02  0.14927124294E+02  0.72273842926E+02  0.41800000000E+01 0. -1.
        -11    1    1    2    0    0  0.18794048146E+02 -0.68391504588E+02 -0.66637665708E+02  0.97320052592E+02  0.00000000000E+00 0.  1.
         11    1    1    2    0    0 -0.70460092143E+02 -0.65862655091E+02 -0.14033912543E+03  0.17028677003E+03  0.00000000000E+00 0. -1.
</event>
<event>
 7    1  0.2686828E-009  0.4184742E+03  0.7561462E-02  0.1037564E+00
          1   -1    0    0  501    0  0.00000000000E+00  0.00000000000E+00  0.22629126587E+04  0.22629126587E+04  0.00000000000E+00 0. -1.
         -1   -1    0    0    0  501 -0.00000000000E+00 -0.00000000000E+00 -0.87888811879E+02  0.87888811879E+02  0.00000000000E+00 0.  1.
         25    2    1    2    0    0  0.32298833202E+03 -0.25715269371E+03  0.14352331384E+04  0.14986633421E+04  0.12509468817E+03 0.  0.
          5    1    3    3  502    0  0.10058359813E+01 -0.15497875121E+02  0.13413061904E+02  0.20942265133E+02  0.41800000000E+01 0. -1.
         -5    1    3    3    0  502  0.32198249603E+03 -0.24165481859E+03  0.14218200765E+04  0.14777210770E+04  0.41800000000E+01 0. -1.
        -11    1    1    2    0    0 -0.10094489526E+03  0.42817931388E+02  0.14223529729E+03  0.17959433989E+03  0.00000000000E+00 0.  1.
         11    1    1    2    0    0 -0.22204343676E+03  0.21433476233E+03  0.59755541122E+03  0.67254378863E+03  0.00000000000E+00 0. -1.
</event>
<event>
 7    1  0.2686828E-009  0.6665490E+02  0.7561462E-02  0.1371852E+00
          2   -1    0    0  501    0  0.00000000000E+00  0.00000000000E+00  0.15508250689E+04  0.15508250689E+04  0.00000000000E+00 0. -1.
         -2   -1    0    0    0  501 -0.00000000000E+00 -0.00000000000E+00 -0.89321514583E+01  0.89321514583E+01  0.00000000000E+00 0.  1.
         25    2    1    2    0    0 -0.32759801970E+01 -0.32724128940E+01  0.11539214859E+04  0.11606912086E+04  0.12509134805E+03 0.  0.
          5    1    3    3  502    0  0.19928393962E+02 -0.30881598696E+01  0.11149628488E+04  0.11151530407E+04  0.41800000000E+01 0.  1.
         -5    1    3    3    0  502 -0.23204374159E+02 -0.18425302438E+00  0.38958637122E+02  0.45538167900E+02  0.41800000000E+01 0.  1.
        -11    1    1    2    0    0  0.42213648070E+02 -0.16673553144E+02  0.13735219732E+03  0.14465692367E+03  0.00000000000E+00 0.  1.
         11    1    1    2    0    0 -0.38937667873E+02  0.19945966038E+02  0.25061923418E+03  0.25440908804E+03  0.00000000000E+00 0. -1.
</event>
<event>
 7    1  0.2686828E-009  0.1146931E+03  0.7561462E-02  0.1252118E+00
         -2   -1    0    0    0  501 -0.00000000000E+00  0.00000000000E+00  0.76615316610E+02  0.76615316610E+02  0.00000000000E+00 0.  1.
          2   -1    0    0  501    0  0.00000000000E+00 -0.00000000000E+00 -0.17564453270E+03  0.17564453270E+03  0.00000000000E+00 0. -1.
         25    2    1    2    0    0  0.39149535045E+02 -0.86140782546E+01 -0.56676516711E+02  0.14306105884E+03  0.12508937034E+03 0.  0.
          5    1    3    3  502    0 -0.21324930305E+02  0.43656402099E+02 -0.81072384330E+01  0.49435147535E+02  0.41800000000E+01 0. -1.
         -5    1    3    3    0  502  0.60474465351E+02 -0.52270480354E+02 -0.48569278278E+02  0.93625911308E+02  0.41800000000E+01 0. -1.
        -11    1    1    2    0    0 -0.35307297123E+02  0.48786296312E+02 -0.27395586199E+02  0.66160608228E+02  0.00000000000E+00 0. -1.
         11    1    1    2    0    0 -0.38422379228E+01 -0.40172218058E+02 -0.14957113183E+02  0.43038182242E+02  0.00000000000E+00 0.  1.
</event>
<event>
 7    1  0.2686828E-009  0.4939096E+03  0.7561462E-02  0.1015381E+00
          1   -1    0    0  501    0  0.00000000000E+00  0.00000000000E+00  0.57192034826E+03  0.57192034826E+03  0.00000000000E+00 0. -1.
         -1   -1    0    0    0  501 -0.00000000000E+00 -0.00000000000E+00 -0.46534785357E+03  0.46534785357E+03  0.00000000000E+00 0.  1.
         25    2    1    2    0    0 -0.49054014659E+03 -0.30443044035E+02  0.16624424994E+03  0.53370647233E+03  0.12509609757E+03 0.  0.
          5    1    3    3  502    0 -0.54963469649E+02  0.54684731712E+01 -0.19605340648E+02  0.58759926621E+02  0.41800000000E+01 0.  1.
         -5    1    3    3    0  502 -0.43557667694E+03 -0.35911517206E+02  0.18584959059E+03  0.47494654571E+03  0.41800000000E+01 0.  1.
        -11    1    1    2    0    0  0.11514323958E+03  0.33586811949E+02  0.14752053510E+02  0.12084561490E+03  0.00000000000E+00 0. -1.
         11    1    1    2    0    0  0.37539690701E+03 -0.31437679147E+01 -0.74423808757E+02  0.38271611461E+03  0.00000000000E+00 0.  1.
</event>
<event>
 7    1  0.2686828E-009  0.2250308E+03  0.7561462E-02  0.1130187E+00
          1   -1    0    0  501    0  0.00000000000E+00  0.00000000000E+00  0.58955042687E+03  0.58955042687E+03  0.00000000000E+00 0. -1.
         -1   -1    0    0    0  501 -0.00000000000E+00 -0.00000000000E+00 -0.91038055461E+02  0.91038055461E+02  0.00000000000E+00 0.  1.
         25    2    1    2    0    0 -0.18344235503E+03 -0.84923571249E+02  0.21476783834E+03  0.32036842015E+03  0.12509032606E+03 0.  0.
          5    1    3    3  502    0  0.10242041051E+02  0.15117378278E+02  0.99077898857E+01  0.21191300840E+02  0.41800000000E+01 0. -1.
         -5    1    3    3    0  502 -0.19368439608E+03 -0.10004094953E+03  0.20486004845E+03  0.29917711931E+03  0.41800000000E+01 0. -1.
        -11    1    1    2    0    0  0.12336866561E+03  0.90439276057E+02  0.15361429300E+03  0.21678662625E+03  0.00000000000E+00 0. -1.
         11    1    1    2    0    0  0.60073689419E+02 -0.55157048081E+01  0.13013024007E+03  0.14343343593E+03  0.00000000000E+00 0.  1.
</event>
<event>
 7    1  0.2686828E-009  0.1065639E+03  0.7561462E-02  0.1267069E+00
          1   -1    0    0  501    0  0.00000000000E+00  0.00000000000E+00  0.58705267758E+03  0.58705267758E+03  0.00000000000E+00 0. -1.
         -1   -1    0    0    0  501 -0.00000000000E+00 -0.00000000000E+00 -0.27215893245E+02  0.27215893245E+02  0.00000000000E+00 0.  1.
         25    2    1    2    0    0  0.57608004735E+02 -0.43808663910E+01  0.38407672563E+03  0.40804435129E+03  0.12508951695E+03 0.  0.
          5    1    3    3  502    0  0.64438510882E+02  0.31436277094E+02  0.10902320586E+03  0.13055302761E+03  0.41800000000E+01 0.  1.
         -5    1    3    3    0  502 -0.68305061473E+01 -0.35817143485E+02  0.27505351977E+03  0.27749132368E+03  0.41800000000E+01 0.  1.
        -11    1    1    2    0    0 -0.13081840056E+02  0.43446130571E+02  0.51953973985E+02  0.68977650102E+02  0.00000000000E+00 0.  1.
         11    1    1    2    0    0 -0.44526164679E+02 -0.39065264180E+02  0.12380608472E+03  0.13724656943E+03  0.00000000000E+00 0. -1.
</event>
<event>
 7    1  0.2686828E-009  0.1477847E+03  0.7561462E-02  0.1203222E+00
          2   -1    0    0  501    0  0.00000000000E+00  0.00000000000E+00  0.66570190970E+03  0.66570190970E+03  0.00000000000E+00 0. -1.
         -2   -1    0    0    0  501 -0.00000000000E+00 -0.00000000000E+00 -0.42445208498E+02  0.42445208498E+02  0.00000000000E+00 0.  1.
         25    2    1    2    0    0  0.40921116347E+02 -0.11165747715E+03  0.44608613484E+03  0.47831076795E+03  0.12508565491E+03 0.  0.
          5    1    3    3  502    0 -0.36383906168E+02 -0.35299859079E+00  0.82333537127E+02  0.90112135542E+02  0.41800000000E+01 0.  1.
         -5    1    3    3    0  502  0.77305022515E+02 -0.11130447856E+03  0.36375259772E+03  0.38819863240E+03  0.41800000000E+01 0.  1.
        -11    1    1    2    0    0 -0.25267681730E+02  0.25880589027E+02  0.45641376085E+01  0.36456713791E+02  0.00000000000E+00 0.  1.
         11    1    1    2    0    0 -0.15653434617E+02  0.85776888127E+02  0.17260642875E+03  0.19337963646E+03  0.00000000000E+00 0. -1.
</event>
<event>
 7    1  0.3231566E-009  0.1130544E+03  0.7561462E-02  0.1255016E+00
         -1   -1    0    0    0  501 -0.00000000000E+00  0.00000000000E+00  0.24513088733E+02  0.24513088733E+02  0.00000000000E+00 0.  1.
          1   -1    0    0  501    0  0.00000000000E+00 -0.00000000000E+00 -0.85835547714E+03  0.85835547714E+03  0.00000000000E+00 0. -1.
         25    2    1    2    0    0  0.36992937753E+02 -0.87560412920E+02 -0.49217468408E+03  0.51664149465E+03  0.12508881243E+03 0.  0.
          5    1    3    3  502    0  0.52251341662E+02 -0.34563837686E+02 -0.42506848684E+03  0.42968075648E+03  0.41800000000E+01 0. -1.
         -5    1    3    3    0  502 -0.15258403909E+02 -0.52996575234E+02 -0.67106197237E+02  0.86960738175E+02  0.41800000000E+01 0. -1.
        -11    1    1    2    0    0 -0.83112971181E+01 -0.59379091514E+01  0.62838736800E+00  0.10233830933E+02  0.00000000000E+00 0.  1.
         11    1    1    2    0    0 -0.28681640634E+02  0.93498322071E+02 -0.34229609170E+03  0.35599324029E+03  0.00000000000E+00 0. -1.
</event>
<event>
 7    1  0.2686828E-009  0.1916571E+03  0.7561462E-02  0.1156975E+00
         -2   -1    0    0    0  501 -0.00000000000E+00  0.00000000000E+00  0.69221530086E+02  0.69221530086E+02  0.00000000000E+00 0.  1.
          2   -1    0    0  501    0  0.00000000000E+00 -0.00000000000E+00 -0.86582136535E+03  0.86582136535E+03  0.00000000000E+00 0. -1.
         25    2    1    2    0    0  0.16336130267E+03 -0.12505594341E+02 -0.13252899863E+03  0.24505967219E+03  0.12508797845E+03 0.  0.
          5    1    3    3  502    0  0.11768735899E+03  0.47725266697E+02 -0.61163258114E+02  0.14101926142E+03  0.41800000000E+01 0. -1.
         -5    1    3    3    0  502  0.45673943681E+02 -0.60230861038E+02 -0.71365740520E+02  0.10404041077E+03  0.41800000000E+01 0. -1.
        -11    1    1    2    0    0 -0.38550798889E+01 -0.17775363279E+02 -0.27035419286E+02  0.32584337903E+02  0.00000000000E+00 0.  1.
         11    1    1    2    0    0 -0.15950622279E+03  0.30280957620E+02 -0.63703541734E+03  0.65739888534E+03  0.00000000000E+00 0. -1.
</event>
<event>
 7    1  0.2686828E-009  0.8745007E+02  0.7561462E-02  0.1309147E+00
         -1   -1    0    0    0  501 -0.00000000000E+00  0.00000000000E+00  0.69399066594E+02  0.69399066594E+02  0.00000000000E+00 0.  1.
          1   -1    0    0  501    0  0.00000000000E+00 -0.00000000000E+00 -0.39082176102E+03  0.39082176102E+03  0.00000000000E+00 0. -1.
         25    2    1    2    0    0 -0.62566602290E+02 -0.22951577428E+02 -0.31505106384E+03  0.34546319521E+03  0.12508513818E+03 0.  0.
          5    1    3    3  502    0 -0.28866716146E+01  0.85458135863E+01 -0.25452229880E+03  0.25471638501E+03  0.41800000000E+01 0.  1.
         -5    1    3    3    0  502 -0.59679930676E+02 -0.31497391014E+02 -0.60528765034E+02  0.90746810206E+02  0.41800000000E+01 0.  1.
        -11    1    1    2    0    0 -0.13180099510E+02 -0.81144273250E+01 -0.26282655867E+02  0.30501425431E+02  0.00000000000E+00 0.  1.
         11    1    1    2    0    0  0.75746701800E+02  0.31066004753E+02  0.19911025280E+02  0.84256206968E+02  0.00000000000E+00 0. -1.
</event>
<event>
 7    1  0.2686828E-009  0.1177715E+03  0.7561462E-02  0.1246819E+00
          1   -1    0    0  501    0  0.00000000000E+00  0.00000000000E+00  0.67994823939E+02  0.67994823939E+02  0.00000000000E+00 0. -1.
         -1   -1    0    0    0  501 -0.00000000000E+00 -0.00000000000E+00 -0.29206271824E+03  0.29206271824E+03  0.00000000000E+00 0.  1.
         25    2    1    2    0    0  0.70377229943E+02 -0.55353766519E+02 -0.11781920355E+03  0.19376840455E+03  0.12509131032E+03 0.  0.
          5    1    3    3  502    0 -0.14047357258E+02 -0.17051532338E+02 -0.95783246723E+02  0.98386918611E+02  0.41800000000E+01 0.  1.
         -5    1    3    3    0  502  0.84424587201E+02 -0.38302234182E+02 -0.22035956823E+02  0.95381485942E+02  0.41800000000E+01 0.  1.
        -11    1    1    2    0    0 -0.96055731277E+01 -0.20750587353E+02 -0.99205159483E+00  0.22887509191E+02  0.00000000000E+00 0.  1.
         11    1    1    2    0    0 -0.60771656816E+02  0.76104353872E+02 -0.10525663916E+03  0.14340162843E+03  0.00000000000E+00 0. -1.
</event>
<event>
 7    1  0.2686828E-009  0.1311570E+03  0.7561462E-02  0.1225749E+00
          2   -1    0    0  501    0  0.00000000000E+00  0.00000000000E+00  0.13192541767E+04  0.13192541767E+04  0.00000000000E+00 0. -1.
         -2   -1    0    0    0  501 -0.00000000000E+00 -0.00000000000E+00 -0.16103630056E+02  0.16103630056E+02  0.00000000000E+00 0.  1.
         25    2    1    2    0    0  0.38780884821E+02  0.81806507319E+02  0.85150153873E+03  0.86538919633E+03  0.12508928408E+03 0.  0.
          5    1    3    3  502    0 -0.18437481903E+02  0.92877233861E+02  0.57758523720E+03  0.58531043041E+03  0.41800000000E+01 0. -1.
         -5    1    3    3    0  502  0.57218366724E+02 -0.11070726542E+02  0.27391630153E+03  0.28007876592E+03  0.41800000000E+01 0. -1.
        -11    1    1    2    0    0 -0.42398919924E+02 -0.19459699235E+02  0.76091414821E+02  0.89253861062E+02  0.00000000000E+00 0.  1.
         11    1    1    2    0    0  0.36180351036E+01 -0.62346808084E+02  0.37555759311E+03  0.38071474938E+03  0.00000000000E+00 0. -1.
</event>
<event>
 7    1  0.2686828E-009  0.1137200E+03  0.7561462E-02  0.1253832E+00
         -2   -1    0    0    0  501 -0.00000000000E+00  0.00000000000E+00  0.75864748148E+02  0.75864748148E+02  0.00000000000E+00 0.  1.
          2   -1    0    0  501    0  0.00000000000E+00 -0.00000000000E+00 -0.28542572355E+03  0.28542572355E+03  0.00000000000E+00 0. -1.
         25    2    1    2    0    0 -0.14261494047E+02 -0.94856216252E+02 -0.81078503500E+02  0.17726571409E+03  0.12509323597E+03 0.  0.
          5    1    3    3  502    0 -0.25277051159E+01 -0.12919619649E+02  0.33280430109E+02  0.36032836320E+02  0.41800000000E+01 0.  1.
         -5    1    3    3    0  502 -0.11733788931E+02 -0.81936596603E+02 -0.11435893361E+03  0.14123287776E+03  0.41800000000E+01 0.  1.
        -11    1    1    2    0    0 -0.26581283233E+02  0.84545458450E+02 -0.76169799159E+02  0.11686033316E+03  0.00000000000E+00 0. -1.
         11    1    1    2    0    0  0.40842777281E+02  0.10310757802E+02 -0.52312672746E+02  0.67164424454E+02  0.00000000000E+00 0.  1.
</event>
<event>
 7    1  0.2686828E-009  0.8513088E+02  0.7561462E-02  0.1315091E+00
          1   -1    0    0  501    0  0.00000000000E+00  0.00000000000E+00  0.58723348176E+02  0.58723348176E+02  0.00000000000E+00 0. -1.
         -1   -1    0    0    0  501 -0.00000000000E+00 -0.00000000000E+00 -0.25642974661E+03  0.25642974661E+03  0.00000000000E+00 0.  1.
         25    2    1    2    0    0 -0.44692620176E+02 -0.79704796233E+01 -0.15626064161E+03  0.20524599502E+03  0.12509025346E+03 0.  0.
          5    1    3    3  502    0  0.17342820542E+02  0.22711413240E+02 -0.12656820559E+03  0.12982128016E+03  0.41800000000E+01 0.  1.
         -5    1    3    3    0  502 -0.62035440717E+02 -0.30681892864E+02 -0.29692436020E+02  0.75424714858E+02  0.41800000000E+01 0.  1.
        -11    1    1    2    0    0  0.16474608964E+02  0.31341617332E+02  0.18272577481E+02  0.39844658428E+02  0.00000000000E+00 0. -1.
         11    1    1    2    0    0  0.28218011212E+02 -0.23371137709E+02 -0.59718334301E+02  0.70062441338E+02  0.00000000000E+00 0.  1.
</event>
<event>
 7    1  0.2686828E-009  0.1323024E+03  0.7561462E-02  0.1224079E+00
          2   -1    0    0  501    0  0.00000000000E+00  0.00000000000E+00  0.59897113300E+03  0.59897113300E+03  0.00000000000E+00 0. -1.
         -2   -1    0    0    0  501 -0.00000000000E+00 -0.00000000000E+00 -0.32272664376E+02  0.32272664376E+02  0.00000000000E+00 0.  1.
         25    2    1    2    0    0 -0.86178633739E+02 -0.15325888480E+01  0.29750467516E+03  0.33404420845E+03  0.12508955078E+03 0.  0.
          5    1    3    3  502    0  0.25263376347E+02 -0.10424376984E+02  0.18023587393E+02  0.33003453190E+02  0.41800000000E+01 0. -1.
         -5    1    3    3    0  502 -0.11144201009E+03  0.88917881363E+01  0.27948108777E+03  0.30104075526E+03  0.41800000000E+01 0. -1.
        -11    1    1    2    0    0  0.10511690976E+03 -0.44828384925E+01  0.21240867426E+03  0.23703819410E+03  0.00000000000E+00 0. -1.
         11    1    1    2    0    0 -0.18938276025E+02  0.60154273405E+01  0.56785119196E+02  0.60161394822E+02  0.00000000000E+00 0.  1.
</event>
<event>
 7    1  0.2686828E-009  0.3706029E+03  0.7561462E-02  0.1054463E+00
          3   -1    0    0  501    0  0.00000000000E+00  0.00000000000E+00  0.20085222615E+03  0.20085222615E+03  0.00000000000E+00 0. -1.
         -3   -1    0    0    0  501 -0.00000000000E+00 -0.00000000000E+00 -0.11716951172E+04  0.11716951172E+04  0.00000000000E+00 0.  1.
         25    2    1    2    0    0 -0.34690254490E+03 -0.93206222861E+02 -0.54781075997E+02  0.38428766455E+03  0.12508903709E+03 0.  0.
          5    1    3    3  502    0 -0.33163936015E+03 -0.11705828521E+03 -0.51738821624E+02  0.35550201884E+03  0.41800000000E+01 0. -1.
         -5    1    3    3    0  502 -0.15263184756E+02  0.23852062354E+02 -0.30422543730E+01  0.28785645712E+02  0.41800000000E+01 0. -1.
        -11    1    1    2    0    0  0.13136783540E+03  0.18049603705E+02 -0.23328877918E+03  0.26834110916E+03  0.00000000000E+00 0. -1.
         11    1    1    2    0    0  0.21553470950E+03  0.75156619156E+02 -0.68277303584E+03  0.71991856961E+03  0.00000000000E+00 0.  1.
</event>
<event>
 7    1  0.3062169E-009  0.1586108E+03  0.7561462E-02  0.1190274E+00
         -2   -1    0    0    0  501 -0.00000000000E+00  0.00000000000E+00  0.21554703055E+02  0.21554703055E+02  0.00000000000E+00 0.  1.
          2   -1    0    0  501    0  0.00000000000E+00 -0.00000000000E+00 -0.18634626791E+04  0.18634626791E+04  0.00000000000E+00 0. -1.
         25    2    1    2    0    0  0.76859659742E+02  0.10280212886E+03 -0.14712674157E+04  0.14821432256E+04  0.12508016569E+03 0.  0.
          5    1    3    3  502    0 -0.31554322281E+02  0.40621010227E+02 -0.55247373305E+03  0.55487876138E+03  0.41800000000E+01 0.  1.
         -5    1    3    3    0  502  0.10841398202E+03  0.62181118634E+02 -0.91879368262E+03  0.92726446424E+03  0.41800000000E+01 0.  1.
        -11    1    1    2    0    0 -0.28664734175E+02 -0.84130247350E+02 -0.13499386862E+03  0.16162583354E+03  0.00000000000E+00 0.  1.
         11    1    1    2    0    0 -0.48194925567E+02 -0.18671881510E+02 -0.23564669176E+03  0.24124832300E+03  0.00000000000E+00 0. -1.
</event>
<event>
 7    1  0.2686828E-009  0.1244653E+03  0.7561462E-02  0.1235907E+00
          1   -1    0    0  501    0  0.00000000000E+00  0.00000000000E+00  0.79178300938E+03  0.79178300938E+03  0.00000000000E+00 0. -1.
         -1   -1    0    0    0  501 -0.00000000000E+00 -0.00000000000E+00 -0.41014421173E+02  0.41014421173E+02  0.00000000000E+00 0.  1.
         25    2    1    2    0    0  0.82267764196E+02  0.26179341582E+02  0.65556056488E+03  0.67295104716E+03  0.12510041847E+03 0.  0.
          5    1    3    3  502    0 -0.12293474873E+02 -0.29388177827E+02  0.27524970568E+03  0.27711850786E+03  0.41800000000E+01 0. -1.
         -5    1    3    3    0  502  0.94561239069E+02  0.55567519409E+02  0.38031085920E+03  0.39583253931E+03  0.41800000000E+01 0. -1.
        -11    1    1    2    0    0 -0.20486803000E+02  0.20976934029E+02  0.73526773515E+02  0.79157610386E+02  0.00000000000E+00 0. -1.
         11    1    1    2    0    0 -0.61780961197E+02 -0.47156275611E+02  0.21681249814E+02  0.80688773007E+02  0.00000000000E+00 0.  1.
</event>
<event>
 7    1  0.2686828E-009  0.1234557E+03  0.7561462E-02  0.1237503E+00
          1   -1    0    0  501    0  0.00000000000E+00  0.00000000000E+00  0.17691314976E+03  0.17691314976E+03  0.00000000000E+00 0. -1.
         -1   -1    0    0    0  501 -0.00000000000E+00 -0.00000000000E+00 -0.91556730449E+02  0.91556730449E+02  0.00000000000E+00 0.  1.
         25    2    1    2    0    0 -0.41400821724E+02  0.52318198968E+02  0.59322902559E+02  0.15368468950E+03  0.12509418467E+03 0.  0.
          5    1    3    3  502    0 -0.83343609544E+02  0.31875208041E+02  0.58596563654E+02  0.10683265330E+03  0.41800000000E+01 0. -1.
         -5    1    3    3    0  502  0.41942787820E+02  0.20442990927E+02  0.72633890494E+00  0.46852036203E+02  0.41800000000E+01 0. -1.
        -11    1    1    2    0    0  0.26928958956E+02  0.22154068143E+02  0.15616686484E+02  0.38208015683E+02  0.00000000000E+00 0.  1.
         11    1    1    2    0    0  0.14471862768E+02 -0.74472267112E+02  0.10416830264E+02  0.76577175016E+02  0.00000000000E+00 0. -1.
</event>
<event>
 7    1  0.2686828E-009  0.1633967E+03  0.7561462E-02  0.1184914E+00
          3   -1    0    0  501    0  0.00000000000E+00  0.00000000000E+00  0.13812259078E+03  0.13812259078E+03  0.00000000000E+00 0. -1.
         -3   -1    0    0    0  501 -0.00000000000E+00 -0.00000000000E+00 -0.38036048452E+03  0.38036048452E+03  0.00000000000E+00 0.  1.
         25    2    1    2    0    0 -0.28098791603E+02  0.14809071502E+03  0.26500828241E+02  0.19766089967E+03  0.12508851025E+03 0.  0.
          5    1    3    3  502    0 -0.60039022843E+02  0.10071905225E+03  0.59494525160E+02  0.13155258520E+03  0.41800000000E+01 0.  1.
         -5    1    3    3    0  502  0.31940231239E+02  0.47371662769E+02 -0.32993696919E+02  0.66108314466E+02  0.41800000000E+01 0.  1.
        -11    1    1    2    0    0  0.27176073146E+02 -0.88499150488E+02 -0.23444396765E+03  0.25206073188E+03  0.00000000000E+00 0.  1.
         11    1    1    2    0    0  0.92271845688E+00 -0.59591564528E+02 -0.34294754334E+02  0.68761443754E+02  0.00000000000E+00 0. -1.
</event>
<event>
 7    1  0.2686828E-009  0.1156017E+03  0.7561462E-02  0.1250534E+00
         -1   -1    0    0    0  501 -0.00000000000E+00  0.00000000000E+00  0.30827217252E+02  0.30827217252E+02  0.00000000000E+00 0.  1.
          1   -1    0    0  501    0  0.00000000000E+00 -0.00000000000E+00 -0.78168890895E+03  0.78168890895E+03  0.00000000000E+00 0. -1.
         25    2    1    2    0    0  0.57945796395E+02 -0.44789946777E+02 -0.62287577694E+03  0.63952288821E+03  0.12510570091E+03 0.  0.
          5    1    3    3  502    0  0.94128479582E+02 -0.36593160726E+02 -0.35680874648E+03  0.37084927403E+03  0.41800000000E+01 0. -1.
         -5    1    3    3    0  502 -0.36182683186E+02 -0.81967860504E+01 -0.26606703046E+03  0.26867361419E+03  0.41800000000E+01 0. -1.
        -11    1    1    2    0    0 -0.41769068085E+02 -0.34501444432E+01 -0.80039040272E+01  0.42668735921E+02  0.00000000000E+00 0.  1.
         11    1    1    2    0    0 -0.16176728310E+02  0.48240091220E+02 -0.11998201073E+03  0.13032450207E+03  0.00000000000E+00 0. -1.
</event>
<event>
 7    1  0.2686828E-009  0.2264841E+03  0.7561462E-02  0.1129139E+00
         -1   -1    0    0    0  501 -0.00000000000E+00  0.00000000000E+00  0.73542320516E+02  0.73542320516E+02  0.00000000000E+00 0.  1.
          1   -1    0    0  501    0  0.00000000000E+00 -0.00000000000E+00 -0.83112920725E+03  0.83112920725E+03  0.00000000000E+00 0. -1.
         25    2    1    2    0    0 -0.72368700175E+02  0.20803102152E+03 -0.42419331687E+03  0.49406649046E+03  0.12509033630E+03 0.  0.
          5    1    3    3  502    0 -0.39588423566E+02  0.41251851255E+02 -0.29852628081E+02  0.64634435991E+02  0.41800000000E+01 0. -1.
         -5    1    3    3    0  502 -0.32780276609E+02  0.16677917026E+03 -0.39434068879E+03  0.42943205447E+03  0.41800000000E+01 0. -1.
        -11    1    1    2    0    0  0.41554536061E+02 -0.17728421413E+03 -0.20088499861E+03  0.27112959026E+03  0.00000000000E+00 0.  1.
         11    1    1    2    0    0  0.30814164114E+02 -0.30746807383E+02 -0.13250857125E+03  0.13947544705E+03  0.00000000000E+00 0. -1.
</event>
<event>
 7    1  0.2686828E-009  0.9320423E+02  0.7561462E-02  0.1295273E+00
          2   -1    0    0  501    0  0.00000000000E+00  0.00000000000E+00  0.29274996179E+03  0.29274996179E+03  0.00000000000E+00 0. -1.
         -2   -1    0    0    0  501 -0.00000000000E+00 -0.00000000000E+00 -0.62674640201E+02  0.62674640201E+02  0.00000000000E+00 0.  1.
         25    2    1    2    0    0 -0.27670376420E+02  0.64993230356E+02  0.17343653269E+03  0.22520558122E+03  0.12509018034E+03 0.  0.
          5    1    3    3  502    0 -0.42369608841E+02 -0.34382191670E+01  0.14214323390E+03  0.14842229094E+03  0.41800000000E+01 0.  1.
         -5    1    3    3    0  502  0.14699232421E+02  0.68431449523E+02  0.31293298795E+02  0.76783290285E+02  0.41800000000E+01 0.  1.
        -11    1    1    2    0    0  0.25146435771E+02 -0.33020937495E+02  0.80280487105E+02  0.90375229764E+02  0.00000000000E+00 0. -1.
         11    1    1    2    0    0  0.25239406491E+01 -0.31972292861E+02 -0.23641698210E+02  0.39843791003E+02  0.00000000000E+00 0.  1.
</event>
<event>
 7    1  0.3177284E-009  0.1248338E+03  0.7561462E-02  0.1235329E+00
         -1   -1    0    0    0  501 -0.00000000000E+00  0.00000000000E+00  0.74794911412E+02  0.74794911412E+02  0.00000000000E+00 0.  1.
          1   -1    0    0  501    0  0.00000000000E+00 -0.00000000000E+00 -0.22821351160E+03  0.22821351160E+03  0.00000000000E+00 0. -1.
         25    2    1    2    0    0  0.93498659804E+01  0.72144366026E+02 -0.86850679926E+02  0.16876950090E+03  0.12509146368E+03 0.  0.
          5    1    3    3  502    0 -0.51642605424E+02  0.10639032655E+02 -0.12053841666E+02  0.54248642469E+02  0.41800000000E+01 0. -1.
         -5    1    3    3    0  502  0.60992471404E+02  0.61505333372E+02 -0.74796838260E+02  0.11452085843E+03  0.41800000000E+01 0. -1.
        -11    1    1    2    0    0 -0.38677653714E+02 -0.79615481209E+01 -0.46232642051E+02  0.60801351435E+02  0.00000000000E+00 0. -1.
         11    1    1    2    0    0  0.29327787733E+02 -0.64182817906E+02 -0.20335278209E+02  0.73437570680E+02  0.00000000000E+00 0.  1.
</event>
<event>
 7    1  0.2686828E-009  0.1143391E+03  0.7561462E-02  0.1252739E+00
          1   -1    0    0  501    0  0.00000000000E+00  0.00000000000E+00  0.26563803973E+03  0.26563803973E+03  0.00000000000E+00 0. -1.
         -1   -1    0    0    0  501 -0.00000000000E+00 -0.00000000000E+00 -0.13154684010E+03  0.13154684010E+03  0.00000000000E+00 0.  1.
         25    2    1    2    0    0  0.20840234733E+02  0.61247789067E+02  0.21800515166E+03  0.25953647256E+03  0.12508927767E+03 0.  0.
          5    1    3    3  502    0 -0.44737637481E+02 -0.68682938278E+01  0.83488568371E+02  0.95060207848E+02  0.41800000000E+01 0. -1.
         -5    1    3    3    0  502  0.65577872214E+02  0.68116082895E+02  0.13451658329E+03  0.16447626471E+03  0.41800000000E+01 0. -1.
        -11    1    1    2    0    0 -0.40016092260E+02 -0.55759933711E+02 -0.93120796804E+02  0.11568033819E+03  0.00000000000E+00 0.  1.
         11    1    1    2    0    0  0.19175857527E+02 -0.54878553562E+01  0.92068447855E+01  0.21968069082E+02  0.00000000000E+00 0. -1.
</event>
<event>
 7    1  0.2686828E-009  0.1995746E+03  0.7561462E-02  0.1150098E+00
         -2   -1    0    0    0  501 -0.00000000000E+00  0.00000000000E+00  0.50104132424E+02  0.50104132424E+02  0.00000000000E+00 0.  1.
          2   -1    0    0  501    0  0.00000000000E+00 -0.00000000000E+00 -0.85091536303E+03  0.85091536303E+03  0.00000000000E+00 0. -1.
         25    2    1    2    0    0  0.53775013937E+02 -0.16009724748E+03 -0.31776606593E+03  0.38097983264E+03  0.12508988546E+03 0.  0.
          5    1    3    3  502    0 -0.38991247668E+02 -0.62257931251E+02 -0.13601831682E+03  0.15464417968E+03  0.41800000000E+01 0.  1.
         -5    1    3    3    0  502  0.92766261605E+02 -0.97839316225E+02 -0.18174774912E+03  0.22633565296E+03  0.41800000000E+01 0.  1.
        -11    1    1    2    0    0 -0.61283900580E+02  0.46739678310E+02 -0.15988975263E+03  0.17749661122E+03  0.00000000000E+00 0.  1.
         11    1    1    2    0    0  0.75088866432E+01  0.11335756917E+03 -0.32315541205E+03  0.34254305160E+03  0.00000000000E+00 0. -1.
</event>
<event>
 7    1  0.2686828E-009  0.1581882E+03  0.7561462E-02  0.1190758E+00
          1   -1    0    0  501    0  0.00000000000E+00  0.00000000000E+00  0.27361499455E+03  0.27361499455E+03  0.00000000000E+00 0. -1.
         -1   -1    0    0    0  501 -0.00000000000E+00 -0.00000000000E+00 -0.11003432342E+03  0.11003432342E+03  0.00000000000E+00 0.  1.
         25    2    1    2    0    0  0.81913628660E+02  0.96646200335E+02  0.35062912205E+02  0.18145909523E+03  0.12509062646E+03 0.  0.
          5    1    3    3  502    0  0.32883052431E+02  0.10529499697E+03 -0.14194397453E+02  0.11129817987E+03  0.41800000000E+01 0.  1.
         -5    1    3    3    0  502  0.49030576229E+02 -0.86487966337E+01  0.49257309658E+02  0.70160915354E+02  0.41800000000E+01 0.  1.
        -11    1    1    2    0    0 -0.88565898587E+01  0.18010581088E+02  0.18533917242E+02  0.27318973322E+02  0.00000000000E+00 0.  1.
         11    1    1    2    0    0 -0.73057038801E+02 -0.11465678142E+03  0.10998384168E+03  0.17487124943E+03  0.00000000000E+00 0. -1.
</event>
<event>
 7    1  0.2686828E-009  0.1184643E+03  0.7561462E-02  0.1245652E+00
          2   -1    0    0  501    0  0.00000000000E+00  0.00000000000E+00  0.39228838104E+03  0.39228838104E+03  0.00000000000E+00 0.  1.
         -2   -1    0    0    0  501 -0.00000000000E+00 -0.00000000000E+00 -0.41290728009E+02  0.41290728009E+02  0.00000000000E+00 0. -1.
         25    2    1    2    0    0 -0.20597130061E+02  0.53863351169E+02  0.24660694784E+03  0.28246781017E+03  0.12509026618E+03 0.  0.
          5    1    3    3  502    0 -0.11031743010E+02 -0.36028622168E+02  0.32181721902E+02  0.49728227333E+02  0.41800000000E+01 0.  1.
         -5    1    3    3    0  502 -0.95653870512E+01  0.89891973337E+02  0.21442522594E+03  0.23273958284E+03  0.41800000000E+01 0.  1.
        -11    1    1    2    0    0 -0.26939327733E+02  0.10150101199E+02  0.20276507628E+02  0.35212053258E+02  0.00000000000E+00 0.  1.
         11    1    1    2    0    0  0.47536457795E+02 -0.64013452368E+02  0.84114197556E+02  0.11589924562E+03  0.00000000000E+00 0. -1.
</event>
<event>
 7    1  0.2686828E-009  0.1193129E+03  0.7561462E-02  0.1244235E+00
         -1   -1    0    0    0  501 -0.00000000000E+00  0.00000000000E+00  0.21777076667E+02  0.21777076667E+02  0.00000000000E+00 0.  1.
          1   -1    0    0  501    0  0.00000000000E+00 -0.00000000000E+00 -0.89415519926E+03  0.89415519926E+03  0.00000000000E+00 0. -1.
         25    2    1    2    0    0  0.29350469771E+01  0.58101273796E+02 -0.70625453320E+03  0.71960227699E+03  0.12509036281E+03 0.  0.
          5    1    3    3  502    0  0.10390810633E+02 -0.37257266798E+02 -0.28253302244E+03  0.28519897272E+03  0.41800000000E+01 0.  1.
         -5    1    3    3    0  502 -0.74557636562E+01  0.95358540594E+02 -0.42372151076E+03  0.43440330427E+03  0.41800000000E+01 0.  1.
        -11    1    1    2    0    0  0.39236881137E+02 -0.10980811345E+02 -0.54615935801E+02  0.68139647069E+02  0.00000000000E+00 0. -1.
         11    1    1    2    0    0 -0.42171928114E+02 -0.47120462450E+02 -0.11150765359E+03  0.12819035187E+03  0.00000000000E+00 0.  1.
</event>
<event>
 7    1  0.2686828E-009  0.2281132E+03  0.7561462E-02  0.1127975E+00
         -1   -1    0    0    0  501 -0.00000000000E+00  0.00000000000E+00  0.18312743435E+03  0.18312743435E+03  0.00000000000E+00 0.  1.
          1   -1    0    0  501    0  0.00000000000E+00 -0.00000000000E+00 -0.40105018470E+03  0.40105018470E+03  0.00000000000E+00 0. -1.
         25    2    1    2    0    0 -0.20022976954E+03 -0.40971530476E+02 -0.26305230655E+03  0.35582943242E+03  0.12508973609E+03 0.  0.
          5    1    3    3  502    0 -0.11153341030E+03  0.39081320414E+02 -0.15265328805E+03  0.19309984456E+03  0.41800000000E+01 0.  1.
         -5    1    3    3    0  502 -0.88696359239E+02 -0.80052850890E+02 -0.11039901851E+03  0.16272958786E+03  0.41800000000E+01 0.  1.
        -11    1    1    2    0    0  0.11406995811E+03  0.61856456313E+02  0.20439496878E+01  0.12977809623E+03  0.00000000000E+00 0.  1.
         11    1    1    2    0    0  0.86159811426E+02 -0.20884925837E+02  0.43085606517E+02  0.98570090398E+02  0.00000000000E+00 0. -1.
</event>
<event>
 7    1  0.2686828E-009  0.1001841E+03  0.7561462E-02  0.1279909E+00
         -2   -1    0    0    0  501 -0.00000000000E+00  0.00000000000E+00  0.71458726336E+02  0.71458726336E+02  0.00000000000E+00 0.  1.
          2   -1    0    0  501    0  0.00000000000E+00 -0.00000000000E+00 -0.22948261968E+03  0.22948261968E+03  0.00000000000E+00 0. -1.
         25    2    1    2    0    0  0.44153598436E+02  0.62247377660E+02 -0.95627145190E+02  0.17497195677E+03  0.12508540473E+03 0.  0.
          5    1    3    3  502    0 -0.86949684958E+01  0.23184639572E+02  0.26322005622E+02  0.36379257403E+02  0.41800000000E+01 0. -1.
         -5    1    3    3    0  502  0.52848566932E+02  0.39062738088E+02 -0.12194915081E+03  0.13859269937E+03  0.41800000000E+01 0. -1.
        -11    1    1    2    0    0 -0.17440119413E+02 -0.76958064417E+02 -0.43803883676E+02  0.90252322236E+02  0.00000000000E+00 0.  1.
         11    1    1    2    0    0 -0.26713479023E+02  0.14710686757E+02 -0.18592864478E+02  0.35717067011E+02  0.00000000000E+00 0. -1.
</event>
<event>
 7    1  0.2686828E-009  0.7651384E+02  0.7561462E-02  0.1339246E+00
          1   -1    0    0  501    0  0.00000000000E+00  0.00000000000E+00  0.93415777653E+03  0.93415777653E+03  0.00000000000E+00 0. -1.
         -1   -1    0    0    0  501 -0.00000000000E+00 -0.00000000000E+00 -0.16022183363E+02  0.16022183363E+02  0.00000000000E+00 0.  1.
         25    2    1    2    0    0 -0.21557057491E+02 -0.35328890679E+02  0.66291260047E+03  0.67588060412E+03  0.12509451592E+03 0.  0.
          5    1    3    3  502    0 -0.34682767923E+02 -0.19203429275E+02  0.64963933030E+03  0.65086127397E+03  0.41800000000E+01 0. -1.
         -5    1    3    3    0  502  0.13125710432E+02 -0.16125461404E+02  0.13273270175E+02  0.25019330146E+02  0.41800000000E+01 0. -1.
        -11    1    1    2    0    0  0.41231590753E+02 -0.10098796829E+02  0.64197122182E+02  0.76962979866E+02  0.00000000000E+00 0.  1.
         11    1    1    2    0    0 -0.19674533261E+02  0.45427687508E+02  0.19102587051E+03  0.19733637590E+03  0.00000000000E+00 0. -1.
</event>
<event>
 7    1  0.2686828E-009  0.1104285E+03  0.7561462E-02  0.1259778E+00
          2   -1    0    0  501    0  0.00000000000E+00  0.00000000000E+00  0.39721158479E+03  0.39721158479E+03  0.00000000000E+00 0. -1.
         -2   -1    0    0    0  501 -0.00000000000E+00 -0.00000000000E+00 -0.38254840975E+02  0.38254840975E+02  0.00000000000E+00 0.  1.
         25    2    1    2    0    0  0.33079146533E+02 -0.27093838950E+02  0.27857427726E+03  0.30835013098E+03  0.12509144368E+03 0.  0.
          5    1    3    3  502    0 -0.11163003183E+02 -0.64255818278E+02  0.91007582645E+02  0.11204140003E+03  0.41800000000E+01 0. -1.
         -5    1    3    3    0  502  0.44242149716E+02  0.37161979327E+02  0.18756669461E+03  0.19630873095E+03  0.41800000000E+01 0. -1.
        -11    1    1    2    0    0  0.96242501276E+01  0.48752374064E+02  0.32355180460E+02  0.59298211356E+02  0.00000000000E+00 0.  1.
         11    1    1    2    0    0 -0.42703396661E+02 -0.21658535114E+02  0.48027286094E+02  0.67818083423E+02  0.00000000000E+00 0. -1.
</event>
<event>
 7    1  0.2686828E-009  0.6566805E+02  0.7561462E-02  0.1375476E+00
          2   -1    0    0  501    0  0.00000000000E+00  0.00000000000E+00  0.70247858318E+03  0.70247858318E+03  0.00000000000E+00 0. -1.
         -2   -1    0    0    0  501 -0.00000000000E+00 -0.00000000000E+00 -0.30596403757E+02  0.30596403757E+02  0.00000000000E+00 0.  1.
         25    2    1    2    0    0 -0.13254369482E+02 -0.22756189927E+02  0.13306641081E+03  0.18452113107E+03  0.12509138914E+03 0.  0.
          5    1    3    3  502    0 -0.71300557454E+01 -0.17595962119E+02 -0.21904516632E+02  0.29287127321E+02  0.41800000000E+01 0. -1.
         -5    1    3    3    0  502 -0.61243137367E+01 -0.51602278080E+01  0.15497092744E+03  0.15523400375E+03  0.41800000000E+01 0. -1.
        -11    1    1    2    0    0 -0.35842580098E+02  0.37226660563E+02  0.27837569403E+03  0.28313166872E+03  0.00000000000E+00 0.  1.
         11    1    1    2    0    0  0.49096949580E+02 -0.14470470637E+02  0.26044007459E+03  0.26542218715E+03  0.00000000000E+00 0. -1.
</event>
<event>
 7    1  0.2686828E-009  0.2316372E+03  0.7561462E-02  0.1125493E+00
         -1   -1    0    0    0  501 -0.00000000000E+00  0.00000000000E+00  0.60064363081E+02  0.60064363081E+02  0.00000000000E+00 0.  1.
          1   -1    0    0  501    0  0.00000000000E+00 -0.00000000000E+00 -0.98353537018E+03  0.98353537018E+03  0.00000000000E+00 0. -1.
         25    2    1    2    0    0  0.14339695991E+03  0.15298824284E+03 -0.60215660016E+03  0.64977534439E+03  0.12508931410E+03 0.  0.
          5    1    3    3  502    0  0.51558992148E+02  0.13622772914E+03 -0.30034245062E+03  0.33382537936E+03  0.41800000000E+01 0.  1.
         -5    1    3    3    0  502  0.91837967765E+02  0.16760513702E+02 -0.30181414954E+03  0.31594996504E+03  0.41800000000E+01 0.  1.
        -11    1    1    2    0    0 -0.88246898381E+02 -0.37027073277E+02 -0.10339322120E+03  0.14088533430E+03  0.00000000000E+00 0.  1.
         11    1    1    2    0    0 -0.55150061533E+02 -0.11596116957E+03 -0.21792118573E+03  0.25293905457E+03  0.00000000000E+00 0. -1.
</event>
<event>
 7    1  0.2686828E-009  0.1111935E+03  0.7561462E-02  0.1258375E+00
          2   -1    0    0  501    0  0.00000000000E+00  0.00000000000E+00  0.70492077309E+03  0.70492077309E+03  0.00000000000E+00 0. -1.
         -2   -1    0    0    0  501 -0.00000000000E+00 -0.00000000000E+00 -0.22857556737E+02  0.22857556737E+02  0.00000000000E+00 0.  1.
         25    2    1    2    0    0  0.70784535818E+01 -0.31982346255E+02  0.55120319095E+03  0.56616681439E+03  0.12508768535E+03 0.  0.
          5    1    3    3  502    0  0.50295194998E+02  0.25503290797E+02  0.21316407585E+03  0.22053666388E+03  0.41800000000E+01 0.  1.
         -5    1    3    3    0  502 -0.43216741416E+02 -0.57485637053E+02  0.33803911510E+03  0.34563015052E+03  0.41800000000E+01 0.  1.
        -11    1    1    2    0    0  0.31116853287E+02  0.43881781307E+02  0.63056290012E+02  0.82885252001E+02  0.00000000000E+00 0. -1.
         11    1    1    2    0    0 -0.38195306869E+02 -0.11899435052E+02  0.67803735392E+02  0.78726263436E+02  0.00000000000E+00 0.  1.
</event>
<event>
 7    1  0.2686828E-009  0.1815188E+03  0.7561462E-02  0.1166341E+00
         -2   -1    0    0    0  501 -0.00000000000E+00  0.00000000000E+00  0.21802544577E+03  0.21802544577E+03  0.00000000000E+00 0.  1.
          2   -1    0    0  501    0  0.00000000000E+00 -0.00000000000E+00 -0.26444013712E+03  0.26444013712E+03  0.00000000000E+00 0. -1.
         25    2    1    2    0    0 -0.10929032102E+03  0.13048830669E+03 -0.15311997403E+03  0.26089238288E+03  0.12509011371E+03 0.  0.
          5    1    3    3  502    0 -0.78563435332E+01  0.62724744551E+02 -0.11791843317E+03  0.13385942251E+03  0.41800000000E+01 0.  1.
         -5    1    3    3    0  502 -0.10143397748E+03  0.67763562135E+02 -0.35201540853E+02  0.12703296037E+03  0.41800000000E+01 0.  1.
        -11    1    1    2    0    0  0.55800658406E+02 -0.10380088159E+03  0.11066648188E+03  0.16166448809E+03  0.00000000000E+00 0.  1.
         11    1    1    2    0    0  0.53489662611E+02 -0.26687425091E+02 -0.39611992014E+01  0.59908711915E+02  0.00000000000E+00 0. -1.
</event>
<event>
 7    1  0.2686828E-009  0.1471372E+03  0.7561462E-02  0.1204036E+00
          4   -1    0    0  501    0  0.00000000000E+00  0.00000000000E+00  0.23908680479E+03  0.23908680479E+03  0.00000000000E+00 0. -1.
         -4   -1    0    0    0  501 -0.00000000000E+00 -0.00000000000E+00 -0.12088498960E+03  0.12088498960E+03  0.00000000000E+00 0.  1.
         25    2    1    2    0    0 -0.95362914645E+02 -0.77413093152E+02  0.16261993362E+02  0.17605988272E+03  0.12508300202E+03 0.  0.
          5    1    3    3  502    0  0.26225965038E+02 -0.29531236234E+02  0.21594436620E+02  0.45207159263E+02  0.41800000000E+01 0.  1.
         -5    1    3    3    0  502 -0.12158887968E+03 -0.47881856918E+02 -0.53324432576E+01  0.13085272345E+03  0.41800000000E+01 0.  1.
        -11    1    1    2    0    0  0.67538745933E+02  0.63513167932E+02  0.18063807632E+02  0.94454782034E+02  0.00000000000E+00 0.  1.
         11    1    1    2    0    0  0.27824168712E+02  0.13899925220E+02  0.83876014194E+02  0.89457129636E+02  0.00000000000E+00 0. -1.
</event>
<event>
 7    1  0.2749446E-009  0.1794626E+03  0.7561462E-02  0.1168324E+00
          2   -1    0    0  501    0  0.00000000000E+00  0.00000000000E+00  0.36296315788E+03  0.36296315788E+03  0.00000000000E+00 0. -1.
         -2   -1    0    0    0  501 -0.00000000000E+00 -0.00000000000E+00 -0.11102551583E+03  0.11102551583E+03  0.00000000000E+00 0.  1.
         25    2    1    2    0    0 -0.19477905597E+02 -0.16050821255E+03  0.73950327255E+02  0.21739112719E+03  0.12509187094E+03 0.  0.
          5    1    3    3  502    0 -0.11899561762E+02 -0.17752948843E+03  0.82859425728E+02  0.19631983004E+03  0.41800000000E+01 0. -1.
         -5    1    3    3    0  502 -0.75783438353E+01  0.17021275882E+02 -0.89090984731E+01  0.21071297149E+02  0.41800000000E+01 0. -1.
        -11    1    1    2    0    0  0.59890200224E+01  0.79882091239E+02  0.15025475339E+03  0.17027480078E+03  0.00000000000E+00 0. -1.
         11    1    1    2    0    0  0.13488885575E+02  0.80626121313E+02  0.27732561404E+02  0.86322745751E+02  0.00000000000E+00 0.  1.
</event>
<event>
 7    1  0.2686828E-009  0.9851253E+02  0.7561462E-02  0.1283455E+00
         -2   -1    0    0    0  501 -0.00000000000E+00  0.00000000000E+00  0.55532997012E+02  0.55532997012E+02  0.00000000000E+00 0. -1.
          2   -1    0    0  501    0  0.00000000000E+00 -0.00000000000E+00 -0.31574685458E+03  0.31574685458E+03  0.00000000000E+00 0.  1.
         25    2    1    2    0    0 -0.40959015043E+01  0.76328196347E+02 -0.15137544404E+03  0.21072565145E+03  0.12509198676E+03 0.  0.
          5    1    3    3  502    0 -0.73163301740E+01  0.71440105024E+02 -0.14152441504E+02  0.73314263916E+02  0.41800000000E+01 0. -1.
         -5    1    3    3    0  502  0.32204286697E+01  0.48880913228E+01 -0.13722300254E+03  0.13741138753E+03  0.41800000000E+01 0. -1.
        -11    1    1    2    0    0 -0.23159678673E+02  0.11556471993E+02 -0.20769286194E+02  0.33185629573E+02  0.00000000000E+00 0. -1.
         11    1    1    2    0    0  0.27255580177E+02 -0.87884668340E+02 -0.88069127326E+02  0.12736857057E+03  0.00000000000E+00 0.  1.
</event>
<event>
 7    1  0.2686828E-009  0.1042630E+03  0.7561462E-02  0.1271579E+00
         -2   -1    0    0    0  501 -0.00000000000E+00  0.00000000000E+00  0.21297169939E+03  0.21297169939E+03  0.00000000000E+00 0.  1.
          2   -1    0    0  501    0  0.00000000000E+00 -0.00000000000E+00 -0.76597212287E+02  0.76597212287E+02  0.00000000000E+00 0. -1.
         25    2    1    2    0    0 -0.40723540218E+02  0.34948019884E+02  0.26987820417E+02  0.13876528595E+03  0.12509073231E+03 0.  0.
          5    1    3    3  502    0 -0.61713519455E+02 -0.23735412146E+01 -0.28835252872E+02  0.68287161236E+02  0.41800000000E+01 0. -1.
         -5    1    3    3    0  502  0.20989979237E+02  0.37321561099E+02  0.55823073289E+02  0.70478124710E+02  0.41800000000E+01 0. -1.
        -11    1    1    2    0    0 -0.41041081982E+01 -0.54530420920E+02  0.62466973647E+02  0.83021282249E+02  0.00000000000E+00 0.  1.
         11    1    1    2    0    0  0.44827648416E+02  0.19582401035E+02  0.46919693036E+02  0.67782343478E+02  0.00000000000E+00 0. -1.
</event>
<event>
 7    1  0.2686828E-009  0.1173285E+03  0.7561462E-02  0.1247570E+00
          1   -1    0    0  501    0  0.00000000000E+00  0.00000000000E+00  0.18207169785E+04  0.18207169785E+04  0.00000000000E+00 0. -1.
         -1   -1    0    0    0  501 -0.00000000000E+00 -0.00000000000E+00 -0.12679781935E+02  0.12679781935E+02  0.00000000000E+00 0.  1.
         25    2    1    2    0    0 -0.89210621816E+02  0.35023026093E+01  0.13080807503E+04  0.13170780356E+04  0.12509397077E+03 0.  0.
          5    1    3    3  502    0 -0.19480702872E+02 -0.31516205151E+02  0.94260199879E+03  0.94333915931E+03  0.41800000000E+01 0.  1.
         -5    1    3    3    0  502 -0.69729918944E+02  0.35018507760E+02  0.36547875151E+03  0.37373887634E+03  0.41800000000E+01 0.  1.
        -11    1    1    2    0    0  0.29886251030E+01 -0.29127591318E+02  0.54461227370E+02  0.61833435475E+02  0.00000000000E+00 0.  1.
         11    1    1    2    0    0  0.86221996713E+02  0.25625288708E+02  0.44549521890E+03  0.45448528931E+03  0.00000000000E+00 0. -1.
</event>
<event>
 7    1  0.2686828E-009  0.1035570E+03  0.7561462E-02  0.1272989E+00
         -1   -1    0    0    0  501 -0.00000000000E+00  0.00000000000E+00  0.21223157882E+04  0.21223157882E+04  0.00000000000E+00 0.  1.
          1   -1    0    0  501    0  0.00000000000E+00 -0.00000000000E+00 -0.12459405611E+02  0.12459405611E+02  0.00000000000E+00 0. -1.
         25    2    1    2    0    0  0.56780754511E+02  0.45976966081E+02  0.17470612010E+04  0.17530573136E+04  0.12509664063E+03 0.  0.
          5    1    3    3  502    0  0.46942135673E+02  0.44961232402E+01  0.15761146004E+04  0.15768254454E+04  0.41800000000E+01 0.  1.
         -5    1    3    3    0  502  0.98386188380E+01  0.41480842841E+02  0.17094660058E+03  0.17623186827E+03  0.41800000000E+01 0.  1.
        -11    1    1    2    0    0 -0.36243633964E+02 -0.73879201012E+02  0.28310656982E+03  0.29482379012E+03  0.00000000000E+00 0. -1.
         11    1    1    2    0    0 -0.20537120548E+02  0.27902234931E+02  0.79688611784E+02  0.86894090033E+02  0.00000000000E+00 0.  1.
</event>
<event>
 7    1  0.2741120E-009  0.1240390E+03  0.7561462E-02  0.1236579E+00
         -1   -1    0    0    0  501 -0.00000000000E+00  0.00000000000E+00  0.49249948962E+02  0.49249948962E+02  0.00000000000E+00 0.  1.
          1   -1    0    0  501    0  0.00000000000E+00 -0.00000000000E+00 -0.34954665726E+03  0.34954665726E+03  0.00000000000E+00 0. -1.
         25    2    1    2    0    0 -0.73602106190E+02  0.26120758405E+01 -0.16087649656E+03  0.21668679073E+03  0.12509126731E+03 0.  0.
          5    1    3    3  502    0 -0.10461941356E+03 -0.47647238750E+01 -0.87356636048E+02  0.13644258334E+03  0.41800000000E+01 0. -1.
         -5    1    3    3    0  502  0.31017307367E+02  0.73767997156E+01 -0.73519860509E+02  0.80244207390E+02  0.41800000000E+01 0. -1.
        -11    1    1    2    0    0  0.13918103803E+02 -0.38863493250E+02 -0.25595430292E+02  0.48571707536E+02  0.00000000000E+00 0.  1.
         11    1    1    2    0    0  0.59684002386E+02  0.36251417410E+02 -0.11382478145E+03  0.13353810796E+03  0.00000000000E+00 0. -1.
</event>
<event>
 7    1  0.2686828E-009  0.1333277E+03  0.7561462E-02  0.1222600E+00
         -1   -1    0    0    0  501 -0.00000000000E+00  0.00000000000E+00  0.18748110488E+03  0.18748110488E+03  0.00000000000E+00 0.  1.
          1   -1    0    0  501    0  0.00000000000E+00 -0.00000000000E+00 -0.15518815556E+03  0.15518815556E+03  0.00000000000E+00 0. -1.
         25    2    1    2    0    0 -0.12748907440E+03 -0.34815594025E+01  0.50183025484E+02  0.18555580504E+03  0.12508811051E+03 0.  0.
          5    1    3    3  502    0 -0.72058522657E+02  0.99156470510E+00  0.91212470901E+02  0.11632111217E+03  0.41800000000E+01 0. -1.
         -5    1    3    3    0  502 -0.55430551744E+02 -0.44731241076E+01 -0.41029445417E+02  0.69234692872E+02  0.41800000000E+01 0. -1.
        -11    1    1    2    0    0  0.11694721944E+03 -0.14515001346E+02  0.14350124130E+02  0.11871505153E+03  0.00000000000E+00 0.  1.
         11    1    1    2    0    0  0.10541854964E+02  0.17996560748E+02 -0.32240200290E+02  0.38398403868E+02  0.00000000000E+00 0. -1.
</event>
<event>
 7    1  0.2686828E-009  0.1017143E+03  0.7561462E-02  0.1276732E+00
         -2   -1    0    0    0  501 -0.00000000000E+00  0.00000000000E+00  0.13947882694E+02  0.13947882694E+02  0.00000000000E+00 0. -1.
          2   -1    0    0  501    0  0.00000000000E+00 -0.00000000000E+00 -0.94645908302E+03  0.94645908302E+03  0.00000000000E+00 0.  1.
         25    2    1    2    0    0  0.46761629126E+02  0.36681696043E+01 -0.54425538109E+03  0.56040922863E+03  0.12507788878E+03 0.  0.
          5    1    3    3  502    0  0.79054429149E+02  0.72825618751E+01 -0.20986916132E+03  0.22442187003E+03  0.41800000000E+01 0. -1.
         -5    1    3    3    0  502 -0.32292800024E+02 -0.36143922707E+01 -0.33438621977E+03  0.33598735860E+03  0.41800000000E+01 0. -1.
        -11    1    1    2    0    0 -0.26320768978E+02 -0.40932543693E+02 -0.26965682856E+03  0.27401288510E+03  0.00000000000E+00 0.  1.
         11    1    1    2    0    0 -0.20440860148E+02  0.37264374088E+02 -0.11859899068E+03  0.12598485198E+03  0.00000000000E+00 0. -1.
</event>
<event>
 7    1  0.2686828E-009  0.6202736E+02  0.7561462E-02  0.1389516E+00
         -2   -1    0    0    0  501 -0.00000000000E+00  0.00000000000E+00  0.17925656154E+02  0.17925656154E+02  0.00000000000E+00 0.  1.
          2   -1    0    0  501    0  0.00000000000E+00 -0.00000000000E+00 -0.74487681861E+03  0.74487681861E+03  0.00000000000E+00 0. -1.
         25    2    1    2    0    0  0.82892593942E+01 -0.18394738354E+02 -0.52236531818E+03  0.53751316906E+03  0.12509117896E+03 0.  0.
          5    1    3    3  502    0  0.77673114144E+01  0.14838266162E+02 -0.49199169418E+03  0.49229442899E+03  0.41800000000E+01 0.  1.
         -5    1    3    3    0  502  0.52194797984E+00 -0.33233004516E+02 -0.30373624002E+02  0.45218740074E+02  0.41800000000E+01 0.  1.
        -11    1    1    2    0    0 -0.18231538262E+02  0.43027262165E+02 -0.50000033639E+02  0.68437837785E+02  0.00000000000E+00 0.  1.
         11    1    1    2    0    0  0.99422788680E+01 -0.24632523811E+02 -0.15458581064E+03  0.15685146792E+03  0.00000000000E+00 0. -1.
</event>
<event>
 7    1  0.3015436E-009  0.1029662E+03  0.7561462E-02  0.1274179E+00
          1   -1    0    0  501    0  0.00000000000E+00  0.00000000000E+00  0.20062865474E+03  0.20062865474E+03  0.00000000000E+00 0. -1.
         -1   -1    0    0    0  501 -0.00000000000E+00 -0.00000000000E+00 -0.10157677657E+03  0.10157677657E+03  0.00000000000E+00 0.  1.
         25    2    1    2    0    0 -0.33540938723E+02 -0.42335095593E+02  0.13320620873E+03  0.19054698890E+03  0.12508799321E+03 0.  0.
          5    1    3    3  502    0 -0.77190206171E+02 -0.90006349114E+01  0.98132884894E+02  0.12524725488E+03  0.41800000000E+01 0.  1.
         -5    1    3    3    0  502  0.43649267448E+02 -0.33334460682E+02  0.35073323834E+02  0.65299734015E+02  0.41800000000E+01 0.  1.
        -11    1    1    2    0    0  0.34734417273E+02  0.43314632213E+01 -0.57299761572E+02  0.67145394430E+02  0.00000000000E+00 0.  1.
         11    1    1    2    0    0 -0.11934785503E+01  0.38003632372E+02  0.23145431007E+02  0.44513047986E+02  0.00000000000E+00 0. -1.
</event>
<event>
 7    1  0.2686828E-009  0.1060623E+03  0.7561462E-02  0.1268041E+00
          2   -1    0    0  501    0  0.00000000000E+00  0.00000000000E+00  0.20576752368E+03  0.20576752368E+03  0.00000000000E+00 0.  1.
         -2   -1    0    0    0  501 -0.00000000000E+00 -0.00000000000E+00 -0.11909655432E+03  0.11909655432E+03  0.00000000000E+00 0. -1.
         25    2    1    2    0    0  0.68609146034E+02 -0.59331612144E+02  0.12295763893E+03  0.19746799750E+03  0.12509026320E+03 0.  0.
          5    1    3    3  502    0  0.55736460106E+01 -0.27775895445E+01 -0.25457890597E+02  0.26539727338E+02  0.41800000000E+01 0. -1.
         -5    1    3    3    0  502  0.63035500023E+02 -0.56554022600E+02  0.14841552953E+03  0.17092827016E+03  0.41800000000E+01 0. -1.
        -11    1    1    2    0    0 -0.47261500266E+02  0.78181119176E+02 -0.16798006201E+02  0.92887619279E+02  0.00000000000E+00 0.  1.
         11    1    1    2    0    0 -0.21347645768E+02 -0.18849507032E+02 -0.19488663375E+02  0.34508461213E+02  0.00000000000E+00 0. -1.
</event>
<event>
 7    1  0.2686828E-009  0.1423615E+03  0.7561462E-02  0.1210186E+00
         -2   -1    0    0    0  501 -0.00000000000E+00  0.00000000000E+00  0.55555777599E+02  0.55555777599E+02  0.00000000000E+00 0.  1.
          2   -1    0    0  501    0  0.00000000000E+00 -0.00000000000E+00 -0.48628617611E+03  0.48628617611E+03  0.00000000000E+00 0. -1.
         25    2    1    2    0    0  0.10189043971E+02  0.12185842515E+03 -0.23845716447E+03  0.29574032169E+03  0.12508887314E+03 0.  0.
          5    1    3    3  502    0 -0.43423805420E+02  0.23418246859E+02 -0.13245687625E+03  0.14140840721E+03  0.41800000000E+01 0. -1.
         -5    1    3    3    0  502  0.53612849391E+02  0.98440178295E+02 -0.10600028822E+03  0.15433191447E+03  0.41800000000E+01 0. -1.
        -11    1    1    2    0    0  0.21220871241E+01 -0.55999535484E+02 -0.17159173551E+02  0.58607921522E+02  0.00000000000E+00 0.  1.
         11    1    1    2    0    0 -0.12311131095E+02 -0.65858889670E+02 -0.17511406048E+03  0.18749371050E+03  0.00000000000E+00 0. -1.
</event>
<event>
 7    1  0.2686828E-009  0.9119678E+02  0.7561462E-02  0.1299979E+00
         -1   -1    0    0    0  501 -0.00000000000E+00  0.00000000000E+00  0.33101333206E+02  0.33101333206E+02  0.00000000000E+00 0.  1.
          1   -1    0    0  501    0  0.00000000000E+00 -0.00000000000E+00 -0.48263439348E+03  0.48263439348E+03  0.00000000000E+00 0. -1.
         25    2    1    2    0    0 -0.22274963628E+02 -0.60129079336E+02 -0.26938063803E+03  0.30385118819E+03  0.12509171129E+03 0.  0.
          5    1    3    3  502    0 -0.25552345117E+02 -0.27343122339E+02 -0.26797511151E+03  0.27060802182E+03  0.41800000000E+01 0.  1.
         -5    1    3    3    0  502  0.32773814893E+01 -0.32785956997E+02 -0.14055265109E+01  0.33243166372E+02  0.41800000000E+01 0.  1.
        -11    1    1    2    0    0  0.51006450680E+02  0.74899608026E+01 -0.81714429328E+02  0.96617832124E+02  0.00000000000E+00 0.  1.
         11    1    1    2    0    0 -0.28731487052E+02  0.52639118533E+02 -0.98437992925E+02  0.11526670638E+03  0.00000000000E+00 0. -1.
</event>
<event>
 7    1  0.2686828E-009  0.1617568E+03  0.7561462E-02  0.1186728E+00
          1   -1    0    0  501    0  0.00000000000E+00  0.00000000000E+00  0.13967827071E+03  0.13967827071E+03  0.00000000000E+00 0. -1.
         -1   -1    0    0    0  501 -0.00000000000E+00 -0.00000000000E+00 -0.24995830970E+03  0.24995830970E+03  0.00000000000E+00 0.  1.
         25    2    1    2    0    0 -0.14780529905E+03 -0.25268459782E+02 -0.34809580592E+02  0.19835257411E+03  0.12508850974E+03 0.  0.
          5    1    3    3  502    0 -0.40149633833E+02  0.31657160336E+02 -0.54584220112E+02  0.74907131721E+02  0.41800000000E+01 0.  1.
         -5    1    3    3    0  502 -0.10765566521E+03 -0.56925620118E+02  0.19774639520E+02  0.12344544239E+03  0.41800000000E+01 0.  1.
        -11    1    1    2    0    0  0.33872480094E+02  0.10583424578E+02  0.21033865071E+02  0.41252603110E+02  0.00000000000E+00 0. -1.
         11    1    1    2    0    0  0.11393281895E+03  0.14685035204E+02 -0.96504323473E+02  0.15003140319E+03  0.00000000000E+00 0.  1.
</event>
<event>
 7    1  0.2686828E-009  0.9387395E+02  0.7561462E-02  0.1293733E+00
         -2   -1    0    0    0  501 -0.00000000000E+00  0.00000000000E+00  0.10738862807E+03  0.10738862807E+03  0.00000000000E+00 0.  1.
          2   -1    0    0  501    0  0.00000000000E+00 -0.00000000000E+00 -0.14656939082E+03  0.14656939082E+03  0.00000000000E+00 0. -1.
         25    2    1    2    0    0 -0.44892489145E+02 -0.19235101457E+02  0.16331735550E+02  0.13527299321E+03  0.12508689938E+03 0.  0.
          5    1    3    3  502    0 -0.21023500049E+02 -0.44003237087E+02  0.61337739837E+02  0.78473327677E+02  0.41800000000E+01 0. -1.
         -5    1    3    3    0  502 -0.23868989096E+02  0.24768135630E+02 -0.45006004286E+02  0.56799665535E+02  0.41800000000E+01 0. -1.
        -11    1    1    2    0    0 -0.28603791716E+02  0.20811312967E+01 -0.91188461257E+01  0.30094208125E+02  0.00000000000E+00 0.  1.
         11    1    1    2    0    0  0.73496280861E+02  0.17153970160E+02 -0.46393652170E+02  0.88590817551E+02  0.00000000000E+00 0. -1.
</event>
<event>
 7    1  0.2686828E-009  0.1326316E+03  0.7561462E-02  0.1223602E+00
          2   -1    0    0  501    0  0.00000000000E+00  0.00000000000E+00  0.22394486986E+03  0.22394486986E+03  0.00000000000E+00 0.  1.
         -2   -1    0    0    0  501 -0.00000000000E+00 -0.00000000000E+00 -0.92953209625E+02  0.92953209625E+02  0.00000000000E+00 0. -1.
         25    2    1    2    0    0  0.23145048554E+02 -0.89135333358E+02  0.71903380911E+02  0.17116734604E+03  0.12508942096E+03 0.  0.
          5    1    3    3  502    0 -0.34716534661E+02 -0.14682313670E+02 -0.16948598077E+02  0.41539565360E+02  0.41800000000E+01 0. -1.
         -5    1    3    3    0  502  0.57861583215E+02 -0.74453019688E+02  0.88851978988E+02  0.12962778068E+03  0.41800000000E+01 0. -1.
        -11    1    1    2    0    0 -0.58414775670E+02  0.74736610535E+02  0.37978859942E+02  0.10217749641E+03  0.00000000000E+00 0.  1.
         11    1    1    2    0    0  0.35269727116E+02  0.14398722824E+02  0.21109419383E+02  0.43553237037E+02  0.00000000000E+00 0. -1.
</event>
<event>
 7    1  0.2686828E-009  0.1681336E+03  0.7561462E-02  0.1179808E+00
          2   -1    0    0  501    0  0.00000000000E+00  0.00000000000E+00  0.31897528322E+03  0.31897528322E+03  0.00000000000E+00 0. -1.
         -2   -1    0    0    0  501 -0.00000000000E+00 -0.00000000000E+00 -0.12435034148E+03  0.12435034148E+03  0.00000000000E+00 0.  1.
         25    2    1    2    0    0 -0.14493945394E+03 -0.14999620139E+01  0.19360781004E+03  0.27228919559E+03  0.12509087389E+03 0.  0.
          5    1    3    3  502    0  0.45973048515E+01 -0.19368675202E+02 -0.69074396601E+01  0.21481757695E+02  0.41800000000E+01 0.  1.
         -5    1    3    3    0  502 -0.14953675879E+03  0.17868713189E+02  0.20051524970E+03  0.25080743790E+03  0.41800000000E+01 0.  1.
        -11    1    1    2    0    0 -0.11001543531E+01 -0.17910042467E+02 -0.14263550208E+02  0.22922234300E+02  0.00000000000E+00 0.  1.
         11    1    1    2    0    0  0.14603960829E+03  0.19410004481E+02  0.15280681909E+02  0.14811419481E+03  0.00000000000E+00 0. -1.
</event>
<event>
 7    1  0.2686828E-009  0.1149998E+03  0.7561462E-02  0.1251581E+00
         -2   -1    0    0    0  501 -0.00000000000E+00  0.00000000000E+00  0.91868471205E+03  0.91868471205E+03  0.00000000000E+00 0.  1.
          2   -1    0    0  501    0  0.00000000000E+00 -0.00000000000E+00 -0.14847677977E+02  0.14847677977E+02  0.00000000000E+00 0. -1.
         25    2    1    2    0    0  0.23935912514E+02 -0.36167396697E+02  0.44408355618E+03  0.46340018405E+03  0.12509403348E+03 0.  0.
          5    1    3    3  502    0  0.13308591014E+02 -0.82941582438E+02  0.27186215487E+03  0.28457499599E+03  0.41800000000E+01 0. -1.
         -5    1    3    3    0  502  0.10627321500E+02  0.46774185741E+02  0.17222140132E+03  0.17882518806E+03  0.41800000000E+01 0. -1.
        -11    1    1    2    0    0 -0.33902717750E+02 -0.20891186391E+02  0.21089109643E+03  0.21461801064E+03  0.00000000000E+00 0.  1.
         11    1    1    2    0    0  0.99668052360E+01  0.57058583089E+02  0.24886238146E+03  0.25551419533E+03  0.00000000000E+00 0. -1.
</event>
<event>
 7    1  0.2686828E-009  0.1191293E+03  0.7561462E-02  0.1244540E+00
          2   -1    0    0  501    0  0.00000000000E+00  0.00000000000E+00  0.39419093643E+03  0.39419093643E+03  0.00000000000E+00 0. -1.
         -2   -1    0    0    0  501 -0.00000000000E+00 -0.00000000000E+00 -0.47933340826E+02  0.47933340826E+02  0.00000000000E+00 0.  1.
         25    2    1    2    0    0 -0.83854253333E+02 -0.76020499916E+01  0.17628997177E+03  0.23198326499E+03  0.12509498040E+03 0.  0.
          5    1    3    3  502    0 -0.10487385100E+03 -0.84582686441E+01  0.18157119187E+03  0.20989434735E+03  0.41800000000E+01 0.  1.
         -5    1    3    3    0  502  0.21019597668E+02  0.85621865242E+00 -0.52812201037E+01  0.22088917635E+02  0.41800000000E+01 0.  1.
        -11    1    1    2    0    0  0.37874245610E+02 -0.32953086892E+02  0.33000902106E+02  0.60078481639E+02  0.00000000000E+00 0.  1.
         11    1    1    2    0    0  0.45980007723E+02  0.40555136884E+02  0.13696672172E+03  0.15006253063E+03  0.00000000000E+00 0. -1.
</event>
<event>
 7    1  0.2686828E-009  0.2268298E+03  0.7561462E-02  0.1128891E+00
         -1   -1    0    0    0  501 -0.00000000000E+00  0.00000000000E+00  0.24103537827E+03  0.24103537827E+03  0.00000000000E+00 0.  1.
          1   -1    0    0  501    0  0.00000000000E+00 -0.00000000000E+00 -0.27291507498E+03  0.27291507498E+03  0.00000000000E+00 0. -1.
         25    2    1    2    0    0 -0.89796609388E+00  0.22141005162E+03  0.56816377359E+02  0.26057483790E+03  0.12509167881E+03 0.  0.
          5    1    3    3  502    0 -0.14045537071E+02  0.71033145689E+02 -0.38386825746E+02  0.82060987619E+02  0.41800000000E+01 0.  1.
         -5    1    3    3    0  502  0.13147570977E+02  0.15037690593E+03  0.95203203105E+02  0.17851385028E+03  0.41800000000E+01 0.  1.
        -11    1    1    2    0    0 -0.30710987930E+02 -0.96162178517E+02 -0.70028207831E+02  0.12285877766E+03  0.00000000000E+00 0. -1.
         11    1    1    2    0    0  0.31608954024E+02 -0.12524787310E+03 -0.18667866238E+02  0.13051683769E+03  0.00000000000E+00 0.  1.
</event>
<event>
 7    1  0.2686828E-009  0.1040551E+03  0.7561462E-02  0.1271993E+00
         -2   -1    0    0    0  501 -0.00000000000E+00  0.00000000000E+00  0.10719437273E+03  0.10719437273E+03  0.00000000000E+00 0.  1.
          2   -1    0    0  501    0  0.00000000000E+00 -0.00000000000E+00 -0.13460917573E+03  0.13460917573E+03  0.00000000000E+00 0. -1.
         25    2    1    2    0    0  0.38248558025E+01 -0.53173903010E+02 -0.12031327513E+02  0.13650928327E+03  0.12509171872E+03 0.  0.
          5    1    3    3  502    0 -0.58007711830E+02 -0.16887068365E+02 -0.21083896307E+02  0.64125430160E+02  0.41800000000E+01 0. -1.
         -5    1    3    3    0  502  0.61832567633E+02 -0.36286834645E+02  0.90525687946E+01  0.72383853105E+02  0.41800000000E+01 0. -1.
        -11    1    1    2    0    0  0.23200405184E+02  0.38584739959E+02  0.27343014255E+02  0.52675244536E+02  0.00000000000E+00 0.  1.
         11    1    1    2    0    0 -0.27025260987E+02  0.14589163051E+02 -0.42726489737E+02  0.52619020659E+02  0.00000000000E+00 0. -1.
</event>
<event>
 7    1  0.2686828E-009  0.9953797E+02  0.7561462E-02  0.1281271E+00
          2   -1    0    0  501    0  0.00000000000E+00  0.00000000000E+00  0.13303452411E+04  0.13303452411E+04  0.00000000000E+00 0. -1.
         -2   -1    0    0    0  501 -0.00000000000E+00 -0.00000000000E+00 -0.17605338026E+02  0.17605338026E+02  0.00000000000E+00 0.  1.
         25    2    1    2    0    0  0.59920395671E+01  0.63751944441E+02  0.10886988863E+04  0.10977313238E+04  0.12509428135E+03 0.  0.
          5    1    3    3  502    0  0.38532092205E+02  0.61474218942E+01  0.11000839631E+03  0.11679825591E+03  0.41800000000E+01 0.  1.
         -5    1    3    3    0  502 -0.32540052638E+02  0.57604522547E+02  0.97869049004E+03  0.98093306792E+03  0.41800000000E+01 0.  1.
        -11    1    1    2    0    0  0.22234548788E+02  0.16627492267E+01  0.96407946749E+01  0.24291661466E+02  0.00000000000E+00 0. -1.
         11    1    1    2    0    0 -0.28226588355E+02 -0.65414693667E+02  0.21440022205E+03  0.22592759382E+03  0.00000000000E+00 0.  1.
</event>
<event>
 7    1  0.2686828E-009  0.3941577E+03  0.7561462E-02  0.1045822E+00
          2   -1    0    0  501    0  0.00000000000E+00  0.00000000000E+00  0.19408907133E+04  0.19408907133E+04  0.00000000000E+00 0. -1.
         -2   -1    0    0    0  501 -0.00000000000E+00 -0.00000000000E+00 -0.82689000641E+02  0.82689000641E+02  0.00000000000E+00 0.  1.
         25    2    1    2    0    0  0.38145962757E+03 -0.83413989554E+01  0.10779409170E+04  0.11502975462E+04  0.12508716093E+03 0.  0.
          5    1    3    3  502    0  0.29681365557E+03  0.42730344944E+02  0.74946442474E+03  0.80724136717E+03  0.41800000000E+01 0.  1.
         -5    1    3    3    0  502  0.84645972000E+02 -0.51071743899E+02  0.32847649226E+03  0.34305617902E+03  0.41800000000E+01 0.  1.
        -11    1    1    2    0    0 -0.61492787744E+02  0.30674868882E+02  0.18056340146E+03  0.19319796187E+03  0.00000000000E+00 0. -1.
         11    1    1    2    0    0 -0.31996683983E+03 -0.22333469927E+02  0.59969739419E+03  0.68008420587E+03  0.00000000000E+00 0.  1.
</event>
<event>
 7    1  0.2686828E-009  0.2553227E+03  0.7561462E-02  0.1109986E+00
         -1   -1    0    0    0  501 -0.00000000000E+00  0.00000000000E+00  0.62654312734E+03  0.62654312734E+03  0.00000000000E+00 0.  1.
          1   -1    0    0  501    0  0.00000000000E+00 -0.00000000000E+00 -0.11646961618E+03  0.11646961618E+03  0.00000000000E+00 0. -1.
         25    2    1    2    0    0 -0.11323608315E+03 -0.21923164711E+03  0.27300690051E+03  0.38867145630E+03  0.12509119712E+03 0.  0.
          5    1    3    3  502    0 -0.89872374871E+02 -0.15805735234E+03  0.10901678473E+03  0.21204080302E+03  0.41800000000E+01 0. -1.
         -5    1    3    3    0  502 -0.23363708274E+02 -0.61174294771E+02  0.16399011578E+03  0.17663065328E+03  0.41800000000E+01 0. -1.
        -11    1    1    2    0    0  0.13422365003E+02  0.12555749349E+03  0.12064359919E+03  0.17464169628E+03  0.00000000000E+00 0.  1.
         11    1    1    2    0    0  0.99813718142E+02  0.93674153613E+02  0.11642301147E+03  0.17969959094E+03  0.00000000000E+00 0. -1.
</event>
<event>
 7    1  0.2686828E-009  0.2140153E+03  0.7561462E-02  0.1138425E+00
         -3   -1    0    0    0  501 -0.00000000000E+00  0.00000000000E+00  0.63114567552E+03  0.63114567552E+03  0.00000000000E+00 0.  1.
          3   -1    0    0  501    0  0.00000000000E+00 -0.00000000000E+00 -0.81469923337E+02  0.81469923337E+02  0.00000000000E+00 0. -1.
         25    2    1    2    0    0 -0.19548517349E+03  0.77696361321E+01  0.34005912998E+03  0.41178104017E+03  0.12509433584E+03 0.  0.
          5    1    3    3  502    0 -0.20390729576E+03  0.31416194580E+02  0.29457877530E+03  0.35966552490E+03  0.41800000000E+01 0.  1.
         -5    1    3    3    0  502  0.84221222673E+01 -0.23646558448E+02  0.45480354680E+02  0.52115515269E+02  0.41800000000E+01 0.  1.
        -11    1    1    2    0    0  0.15295492946E+03  0.21150593051E+00  0.99370254002E+02  0.18239984255E+03  0.00000000000E+00 0.  1.
         11    1    1    2    0    0  0.42530244027E+02 -0.79811420626E+01  0.11024636821E+03  0.11843471615E+03  0.00000000000E+00 0. -1.
</event>
<event>
 7    1  0.2686828E-009  0.1169916E+03  0.7561462E-02  0.1248144E+00
          1   -1    0    0  501    0  0.00000000000E+00  0.00000000000E+00  0.11500778839E+04  0.11500778839E+04  0.00000000000E+00 0. -1.
         -1   -1    0    0    0  501 -0.00000000000E+00 -0.00000000000E+00 -0.19588630437E+02  0.19588630437E+02  0.00000000000E+00 0.  1.
         25    2    1    2    0    0  0.66420330105E+02 -0.56981563185E+02  0.80045124782E+03  0.81487847971E+03  0.12508468232E+03 0.  0.
          5    1    3    3  502    0 -0.22047767189E+02 -0.52189653575E+02  0.20000746570E+03  0.20791902923E+03  0.41800000000E+01 0. -1.
         -5    1    3    3    0  502  0.88468097294E+02 -0.47919096105E+01  0.60044378212E+03  0.60695945048E+03  0.41800000000E+01 0. -1.
        -11    1    1    2    0    0 -0.22684294407E+02  0.27885704809E+02  0.21660922232E+02  0.41968861045E+02  0.00000000000E+00 0.  1.
         11    1    1    2    0    0 -0.43736035698E+02  0.29095858377E+02  0.30837708338E+03  0.31281917356E+03  0.00000000000E+00 0. -1.
</event>
<event>
 7    1  0.2686828E-009  0.1285787E+03  0.7561462E-02  0.1229580E+00
         -1   -1    0    0    0  501 -0.00000000000E+00  0.00000000000E+00  0.12873918769E+03  0.12873918769E+03  0.00000000000E+00 0.  1.
          1   -1    0    0  501    0  0.00000000000E+00 -0.00000000000E+00 -0.14340702452E+03  0.14340702452E+03  0.00000000000E+00 0. -1.
         25    2    1    2    0    0 -0.33166897214E+02 -0.70639300856E+02 -0.32826326968E+02  0.15104576940E+03  0.12508917945E+03 0.  0.
          5    1    3    3  502    0 -0.64332594614E+02 -0.85128943453E+02 -0.54794223345E+01  0.10692575093E+03  0.41800000000E+01 0.  1.
         -5    1    3    3    0  502  0.31165697400E+02  0.14489642597E+02 -0.27346904633E+02  0.44120018473E+02  0.41800000000E+01 0.  1.
        -11    1    1    2    0    0 -0.27002127418E+02  0.39913568974E+02  0.22940706644E+02  0.53371189744E+02  0.00000000000E+00 0.  1.
         11    1    1    2    0    0  0.60169024632E+02  0.30725731882E+02 -0.47822165054E+01  0.67729253057E+02  0.00000000000E+00 0. -1.
</event>
<event>
 7    1  0.2825963E-009  0.1557177E+03  0.7561462E-02  0.1193618E+00
         -2   -1    0    0    0  501 -0.00000000000E+00  0.00000000000E+00  0.14461635820E+02  0.14461635820E+02  0.00000000000E+00 0.  1.
          2   -1    0    0  501    0  0.00000000000E+00 -0.00000000000E+00 -0.21261977141E+04  0.21261977141E+04  0.00000000000E+00 0. -1.
         25    2    1    2    0    0  0.92800470519E+02 -0.72895996458E+02 -0.15493304286E+04  0.15588442893E+04  0.12507992570E+03 0.  0.
          5    1    3    3  502    0  0.97348922921E+02 -0.75153633864E+01 -0.67327074397E+03  0.68032658376E+03  0.41800000000E+01 0.  1.
         -5    1    3    3    0  502 -0.45484524020E+01 -0.65380633071E+02 -0.87605968461E+03  0.87851770557E+03  0.41800000000E+01 0.  1.
        -11    1    1    2    0    0 -0.51048702309E+02  0.89555074216E+02 -0.42098985793E+03  0.43342651258E+03  0.00000000000E+00 0.  1.
         11    1    1    2    0    0 -0.41751768210E+02 -0.16659077758E+02 -0.14141579179E+03  0.14838854804E+03  0.00000000000E+00 0. -1.
</event>
<event>
 7    1  0.2686828E-009  0.1742285E+03  0.7561462E-02  0.1173509E+00
         -3   -1    0    0    0  501 -0.00000000000E+00  0.00000000000E+00  0.76825476452E+03  0.76825476452E+03  0.00000000000E+00 0.  1.
          3   -1    0    0  501    0  0.00000000000E+00 -0.00000000000E+00 -0.48458927399E+02  0.48458927399E+02  0.00000000000E+00 0. -1.
         25    2    1    2    0    0  0.87628111949E+02  0.12840873680E+03  0.31791680935E+03  0.37534600530E+03  0.12508411706E+03 0.  0.
          5    1    3    3  502    0  0.91220317778E+02  0.13767739921E+03  0.32346977092E+03  0.36321670904E+03  0.41800000000E+01 0.  1.
         -5    1    3    3    0  502 -0.35922058292E+01 -0.92686624100E+01 -0.55529615706E+01  0.12129296261E+02  0.41800000000E+01 0.  1.
        -11    1    1    2    0    0 -0.56641157434E+02 -0.12961972206E+03  0.37327746409E+03  0.39918110960E+03  0.00000000000E+00 0.  1.
         11    1    1    2    0    0 -0.30986954514E+02  0.12109852658E+01  0.28601563687E+02  0.42186577021E+02  0.00000000000E+00 0. -1.
</event>
<event>
 7    1  0.3915571E-009  0.5511352E+02  0.7561462E-02  0.1419563E+00
         -1   -1    0    0    0  501 -0.00000000000E+00  0.00000000000E+00  0.10450927353E+03  0.10450927353E+03  0.00000000000E+00 0.  1.
          1   -1    0    0  501    0  0.00000000000E+00 -0.00000000000E+00 -0.14351254588E+03  0.14351254588E+03  0.00000000000E+00 0. -1.
         25    2    1    2    0    0  0.12526429950E+02  0.46364377230E+02 -0.53228738636E+02  0.14417935955E+03  0.12509125541E+03 0.  0.
          5    1    3    3  502    0  0.21294885883E+02  0.14756643282E+02  0.38544765516E+02  0.46630483961E+02  0.41800000000E+01 0.  1.
         -5    1    3    3    0  502 -0.87684559326E+01  0.31607733948E+02 -0.91773504153E+02  0.97548875592E+02  0.41800000000E+01 0.  1.
        -11    1    1    2    0    0 -0.13012719135E+02 -0.16337973513E+02  0.51735244900E+02  0.55792434995E+02  0.00000000000E+00 0.  1.
         11    1    1    2    0    0  0.48628918498E+00 -0.30026403717E+02 -0.37509778611E+02  0.48050024857E+02  0.00000000000E+00 0. -1.
</event>
<event>
 7    1  0.2686828E-009  0.1061299E+03  0.7561462E-02  0.1267909E+00
         -1   -1    0    0    0  501 -0.00000000000E+00  0.00000000000E+00  0.88770316445E+02  0.88770316445E+02  0.00000000000E+00 0.  1.
          1   -1    0    0  501    0  0.00000000000E+00 -0.00000000000E+00 -0.19393928063E+03  0.19393928063E+03  0.00000000000E+00 0. -1.
         25    2    1    2    0    0  0.18305842528E+02  0.24948617268E+02 -0.11777495621E+03  0.17457219524E+03  0.12508786378E+03 0.  0.
          5    1    3    3  502    0 -0.12977318742E+01  0.62558775952E+02 -0.16726362664E+02  0.64903991901E+02  0.41800000000E+01 0.  1.
         -5    1    3    3    0  502  0.19603574403E+02 -0.37610158684E+02 -0.10104859355E+03  0.10966820334E+03  0.41800000000E+01 0.  1.
        -11    1    1    2    0    0 -0.59110839877E+02 -0.15991937919E-01  0.11987564398E+02  0.60314122284E+02  0.00000000000E+00 0. -1.
         11    1    1    2    0    0  0.40804997348E+02 -0.24932625330E+02  0.61842762728E+00  0.47823279553E+02  0.00000000000E+00 0.  1.
</event>
<event>
 7    1  0.2686828E-009  0.6417063E+02  0.7561462E-02  0.1381119E+00
          1   -1    0    0  501    0  0.00000000000E+00  0.00000000000E+00  0.18380014099E+03  0.18380014099E+03  0.00000000000E+00 0. -1.
         -1   -1    0    0    0  501 -0.00000000000E+00 -0.00000000000E+00 -0.10650500849E+03  0.10650500849E+03  0.00000000000E+00 0.  1.
         25    2    1    2    0    0 -0.55521784579E+01  0.61038966294E+02  0.10709205503E+03  0.17570755348E+03  0.12509138262E+03 0.  0.
          5    1    3    3  502    0 -0.85480971519E-01  0.43904980180E+02  0.13512481058E+03  0.14214021748E+03  0.41800000000E+01 0.  1.
         -5    1    3    3    0  502 -0.54666974863E+01  0.17133986115E+02 -0.28032755555E+02  0.33567335992E+02  0.41800000000E+01 0.  1.
        -11    1    1    2    0    0 -0.85191717093E+01 -0.11738519054E+02  0.31504348205E+02  0.34682748911E+02  0.00000000000E+00 0. -1.
         11    1    1    2    0    0  0.14071350167E+02 -0.49300447240E+02 -0.61301270723E+02  0.79914847093E+02  0.00000000000E+00 0.  1.
</event>
<event>
 7    1  0.2686828E-009  0.1098797E+03  0.7561462E-02  0.1260793E+00
         -1   -1    0    0    0  501 -0.00000000000E+00  0.00000000000E+00  0.10460883143E+02  0.10460883143E+02  0.00000000000E+00 0.  1.
          1   -1    0    0  501    0  0.00000000000E+00 -0.00000000000E+00 -0.12407801171E+04  0.12407801171E+04  0.00000000000E+00 0. -1.
         25    2    1    2    0    0 -0.22721444622E+02 -0.24114805855E+02 -0.82102905870E+03  0.83116388357E+03  0.12508756220E+03 0.  0.
          5    1    3    3  502    0  0.38705648204E+02  0.25245580387E+02 -0.41094836653E+03  0.41355954697E+03  0.41800000000E+01 0.  1.
         -5    1    3    3    0  502 -0.61427092825E+02 -0.49360386242E+02 -0.41008069216E+03  0.41760433660E+03  0.41800000000E+01 0.  1.
        -11    1    1    2    0    0  0.57607376532E+01 -0.33703547999E+02 -0.15924371367E+03  0.16287318868E+03  0.00000000000E+00 0. -1.
         11    1    1    2    0    0  0.16960706968E+02  0.57818353855E+02 -0.25004646154E+03  0.25720392795E+03  0.00000000000E+00 0.  1.
</event>
<event>
 7    1  0.2686828E-009  0.1037908E+03  0.7561462E-02  0.1272520E+00
         -1   -1    0    0    0  501 -0.00000000000E+00  0.00000000000E+00  0.59803381317E+03  0.59803381317E+03  0.00000000000E+00 0.  1.
          1   -1    0    0  501    0  0.00000000000E+00 -0.00000000000E+00 -0.22013432362E+02  0.22013432362E+02  0.00000000000E+00 0. -1.
         25    2    1    2    0    0  0.13556309630E+02  0.34101310899E+02  0.31049009958E+03  0.33674595260E+03  0.12508821576E+03 0.  0.
          5    1    3    3  502    0  0.20639272764E+02  0.80510698501E+02  0.19638215388E+03  0.21328707161E+03  0.41800000000E+01 0. -1.
         -5    1    3    3    0  502 -0.70829631338E+01 -0.46409387602E+02  0.11410794569E+03  0.12345888099E+03  0.41800000000E+01 0. -1.
        -11    1    1    2    0    0 -0.77999738785E+01 -0.55001418294E+02  0.25130655957E+03  0.25737323576E+03  0.00000000000E+00 0.  1.
         11    1    1    2    0    0 -0.57563357518E+01  0.20900107395E+02  0.14223721665E+02  0.25928057166E+02  0.00000000000E+00 0. -1.
</event>
<event>
 7    1  0.2686828E-009  0.8309627E+02  0.7561462E-02  0.1320487E+00
          1   -1    0    0  501    0  0.00000000000E+00  0.00000000000E+00  0.40164053284E+03  0.40164053284E+03  0.00000000000E+00 0. -1.
         -1   -1    0    0    0  501 -0.00000000000E+00 -0.00000000000E+00 -0.70784071175E+02  0.70784071175E+02  0.00000000000E+00 0.  1.
         25    2    1    2    0    0  0.41446792151E+02  0.11666485090E+02  0.34523600043E+03  0.36971511604E+03  0.12508967817E+03 0.  0.
          5    1    3    3  502    0  0.45896959239E+02  0.31633589145E+02  0.34430660890E+03  0.34881474762E+03  0.41800000000E+01 0. -1.
         -5    1    3    3    0  502 -0.44501670876E+01 -0.19967104055E+02  0.92939153121E+00  0.20900368419E+02  0.41800000000E+01 0. -1.
        -11    1    1    2    0    0 -0.33140577324E+02 -0.44534657232E+02 -0.32441321450E+02  0.64296756509E+02  0.00000000000E+00 0.  1.
         11    1    1    2    0    0 -0.83062148274E+01  0.32868172142E+02  0.18061782691E+02  0.38412731466E+02  0.00000000000E+00 0. -1.
</event>
<event>
 7    1  0.2686828E-009  0.1223585E+03  0.7561462E-02  0.1239256E+00
         -1   -1    0    0    0  501 -0.00000000000E+00  0.00000000000E+00  0.22370867327E+03  0.22370867327E+03  0.00000000000E+00 0.  1.
          1   -1    0    0  501    0  0.00000000000E+00 -0.00000000000E+00 -0.12322716737E+03  0.12322716737E+03  0.00000000000E+00 0. -1.
         25    2    1    2    0    0 -0.56370006024E+01 -0.66936153213E+02  0.16316367249E+03  0.21629275621E+03  0.12509175827E+03 0.  0.
          5    1    3    3  502    0  0.18165915597E+02 -0.98275311006E+02  0.13358882721E+03  0.16688764004E+03  0.41800000000E+01 0.  1.
         -5    1    3    3    0  502 -0.23802916200E+02  0.31339157793E+02  0.29574845281E+02  0.49405116174E+02  0.41800000000E+01 0.  1.
        -11    1    1    2    0    0 -0.37692899230E+02  0.29866807186E+02 -0.55072360002E+02  0.73114606338E+02  0.00000000000E+00 0. -1.
         11    1    1    2    0    0  0.43329899832E+02  0.37069346027E+02 -0.76098065885E+01  0.57528478084E+02  0.00000000000E+00 0.  1.
</event>
<event>
 7    1  0.2686828E-009  0.1227665E+03  0.7561462E-02  0.1238602E+00
          2   -1    0    0  501    0  0.00000000000E+00  0.00000000000E+00  0.59180311870E+02  0.59180311870E+02  0.00000000000E+00 0. -1.
         -2   -1    0    0    0  501 -0.00000000000E+00 -0.00000000000E+00 -0.34005489158E+03  0.34005489158E+03  0.00000000000E+00 0.  1.
         25    2    1    2    0    0  0.78281701231E+01 -0.78934745612E+02 -0.10078607596E+03  0.17916997040E+03  0.12510823663E+03 0.  0.
          5    1    3    3  502    0 -0.40079496095E+02 -0.21847788610E+02  0.87037617031E+01  0.46657472522E+02  0.41800000000E+01 0. -1.
         -5    1    3    3    0  502  0.47907666218E+02 -0.57086957003E+02 -0.10948983766E+03  0.13251249787E+03  0.41800000000E+01 0. -1.
        -11    1    1    2    0    0  0.37641188224E+02  0.46109413588E+01 -0.40224690565E+02  0.55282416392E+02  0.00000000000E+00 0.  1.
         11    1    1    2    0    0 -0.45469358347E+02  0.74323804253E+02 -0.13986381319E+03  0.16478281666E+03  0.00000000000E+00 0. -1.
</event>
<event>
 7    1  0.2686828E-009  0.1184505E+03  0.7561462E-02  0.1245675E+00
         -2   -1    0    0    0  501 -0.00000000000E+00  0.00000000000E+00  0.17627878922E+02  0.17627878922E+02  0.00000000000E+00 0.  1.
          2   -1    0    0  501    0  0.00000000000E+00 -0.00000000000E+00 -0.12418139448E+04  0.12418139448E+04  0.00000000000E+00 0. -1.
         25    2    1    2    0    0 -0.68133536820E+02  0.12060760964E+02 -0.97778882634E+03  0.98818385846E+03  0.12509479769E+03 0.  0.
          5    1    3    3  502    0 -0.95641564475E+02 -0.10912010752E+02 -0.51114636904E+03  0.52014850169E+03  0.41800000000E+01 0. -1.
         -5    1    3    3    0  502  0.27508027655E+02  0.22972771716E+02 -0.46664245731E+03  0.46803535677E+03  0.41800000000E+01 0. -1.
        -11    1    1    2    0    0 -0.57410688119E+01  0.22274372333E+02 -0.11004874268E+03  0.11242701321E+03  0.00000000000E+00 0. -1.
         11    1    1    2    0    0  0.73874605632E+02 -0.34335133298E+02 -0.13634849689E+03  0.15883095209E+03  0.00000000000E+00 0.  1.
</event>
<event>
 7    1  0.2686828E-009  0.1142416E+03  0.7561462E-02  0.1252911E+00
          2   -1    0    0  501    0  0.00000000000E+00  0.00000000000E+00  0.76156193705E+03  0.76156193705E+03  0.00000000000E+00 0. -1.
         -2   -1    0    0    0  501 -0.00000000000E+00 -0.00000000000E+00 -0.27459957966E+02  0.27459957966E+02  0.00000000000E+00 0.  1.
         25    2    1    2    0    0  0.22909336408E+02  0.90274054690E+02  0.33625643075E+03  0.37066134214E+03  0.12508877126E+03 0.  0.
          5    1    3    3  502    0 -0.10098475664E+02  0.42996534245E+01 -0.80422876210E+01  0.14234360558E+02  0.41800000000E+01 0. -1.
         -5    1    3    3    0  502  0.33007812072E+02  0.85974401266E+02  0.34429871837E+03  0.35642698158E+03  0.41800000000E+01 0. -1.
        -11    1    1    2    0    0 -0.42301103517E+02 -0.12085978400E+02  0.19924112496E+03  0.20404038843E+03  0.00000000000E+00 0.  1.
         11    1    1    2    0    0  0.19391767109E+02 -0.78188076290E+02  0.19860442337E+03  0.21432016444E+03  0.00000000000E+00 0. -1.
</event>
<event>
 7    1  0.2686828E-009  0.1302682E+03  0.7561462E-02  0.1227058E+00
         -1   -1    0    0    0  501 -0.00000000000E+00  0.00000000000E+00  0.18170478831E+02  0.18170478831E+02  0.00000000000E+00 0.  1.
          1   -1    0    0  501    0  0.00000000000E+00 -0.00000000000E+00 -0.10565112257E+04  0.10565112257E+04  0.00000000000E+00 0. -1.
         25    2    1    2    0    0 -0.70157564200E+02  0.36080463841E+02 -0.69512452704E+03  0.71068256950E+03  0.12509085824E+03 0.  0.
          5    1    3    3  502    0 -0.73469702790E+02 -0.28205422154E+02 -0.46742394170E+03  0.47402105095E+03  0.41800000000E+01 0. -1.
         -5    1    3    3    0  502  0.33121385897E+01  0.64285885996E+02 -0.22770058534E+03  0.23666151855E+03  0.41800000000E+01 0. -1.
        -11    1    1    2    0    0  0.49929302873E+02 -0.64978921857E+02 -0.27835083407E+03  0.29016268264E+03  0.00000000000E+00 0. -1.
         11    1    1    2    0    0  0.20228261327E+02  0.28898458016E+02 -0.64865385792E+02  0.73836452420E+02  0.00000000000E+00 0.  1.
</event>
<event>
 7    1  0.2686828E-009  0.9782030E+02  0.7561462E-02  0.1284947E+00
         -1   -1    0    0    0  501 -0.00000000000E+00  0.00000000000E+00  0.86433092399E+02  0.86433092399E+02  0.00000000000E+00 0.  1.
          1   -1    0    0  501    0  0.00000000000E+00 -0.00000000000E+00 -0.19854833393E+03  0.19854833393E+03  0.00000000000E+00 0. -1.
         25    2    1    2    0    0  0.32374249579E+02 -0.32553458890E+02 -0.12489835558E+03  0.18263289230E+03  0.12508938564E+03 0.  0.
          5    1    3    3  502    0 -0.19056482865E+02  0.21015574477E+02 -0.10025875747E+03  0.10427892768E+03  0.41800000000E+01 0.  1.
         -5    1    3    3    0  502  0.51430732443E+02 -0.53569033367E+02 -0.24639598113E+02  0.78353964614E+02  0.41800000000E+01 0.  1.
        -11    1    1    2    0    0 -0.32980597228E+02  0.58220002326E+02  0.27965729461E+02  0.72521517418E+02  0.00000000000E+00 0.  1.
         11    1    1    2    0    0  0.60634764904E+00 -0.25666543436E+02 -0.15182615412E+02  0.29827016615E+02  0.00000000000E+00 0. -1.
</event>
<event>
 7    1  0.2686828E-009  0.1134654E+03  0.7561462E-02  0.1254284E+00
          2   -1    0    0  501    0  0.00000000000E+00  0.00000000000E+00  0.47189779450E+02  0.47189779450E+02  0.00000000000E+00 0. -1.
         -2   -1    0    0    0  501 -0.00000000000E+00 -0.00000000000E+00 -0.30470507756E+03  0.30470507756E+03  0.00000000000E+00 0.  1.
         25    2    1    2    0    0  0.51097244284E+02  0.39601738673E+01 -0.14792017374E+03  0.20038595339E+03  0.12509013218E+03 0.  0.
          5    1    3    3  502    0  0.63017420576E+02 -0.45117266114E+02 -0.57004419739E+02  0.96300255802E+02  0.41800000000E+01 0. -1.
         -5    1    3    3    0  502 -0.11920176292E+02  0.49077439981E+02 -0.90915753997E+02  0.10408569759E+03  0.41800000000E+01 0. -1.
        -11    1    1    2    0    0  0.23438526043E+02  0.36248439397E+01 -0.75025289305E+01  0.24875528879E+02  0.00000000000E+00 0.  1.
         11    1    1    2    0    0 -0.74535770327E+02 -0.75850178070E+01 -0.10209259544E+03  0.12663337474E+03  0.00000000000E+00 0. -1.
</event>
<event>
 7    1  0.2686828E-009  0.1258402E+03  0.7561462E-02  0.1233762E+00
          2   -1    0    0  501    0  0.00000000000E+00  0.00000000000E+00  0.53170726200E+03  0.53170726200E+03  0.00000000000E+00 0. -1.
         -2   -1    0    0    0  501 -0.00000000000E+00 -0.00000000000E+00 -0.45247513986E+02  0.45247513986E+02  0.00000000000E+00 0.  1.
         25    2    1    2    0    0 -0.75059840652E+02 -0.50578435103E+02  0.37796497485E+03  0.40828524271E+03  0.12508860631E+03 0.  0.
          5    1    3    3  502    0 -0.41260727331E+02 -0.85863466123E+02  0.17303268338E+03  0.19756711354E+03  0.41800000000E+01 0. -1.
         -5    1    3    3    0  502 -0.33799113321E+02  0.35285031020E+02  0.20493229146E+03  0.21071812917E+03  0.41800000000E+01 0. -1.
        -11    1    1    2    0    0  0.78207885468E+02  0.25866039871E+02  0.32257301379E+02  0.88465014894E+02  0.00000000000E+00 0.  1.
         11    1    1    2    0    0 -0.31480448164E+01  0.24712395232E+02  0.76237471789E+02  0.80204518383E+02  0.00000000000E+00 0. -1.
</event>
<event>
 7    1  0.2686828E-009  0.1348937E+03  0.7561462E-02  0.1220370E+00
          1   -1    0    0  501    0  0.00000000000E+00  0.00000000000E+00  0.17506526001E+03  0.17506526001E+03  0.00000000000E+00 0. -1.
         -1   -1    0    0    0  501 -0.00000000000E+00 -0.00000000000E+00 -0.11540351101E+03  0.11540351101E+03  0.00000000000E+00 0.  1.
         25    2    1    2    0    0 -0.36509268855E+02  0.71079442451E+02  0.78057845076E+02  0.16770747562E+03  0.12509019286E+03 0.  0.
          5    1    3    3  502    0  0.46376413586E+02  0.33183085288E+02  0.31483097599E+02  0.65272863586E+02  0.41800000000E+01 0. -1.
         -5    1    3    3    0  502 -0.82885682441E+02  0.37896357164E+02  0.46574747477E+02  0.10243461203E+03  0.41800000000E+01 0. -1.
        -11    1    1    2    0    0  0.10713642537E+02 -0.89206327716E+02 -0.13629708306E+02  0.90875299116E+02  0.00000000000E+00 0.  1.
         11    1    1    2    0    0  0.25795626318E+02  0.18126885264E+02 -0.47663877709E+01  0.31885996282E+02  0.00000000000E+00 0. -1.
</event>
<event>
 7    1  0.2686828E-009  0.1215047E+03  0.7561462E-02  0.1240635E+00
          2   -1    0    0  501    0  0.00000000000E+00  0.00000000000E+00  0.47803203688E+03  0.47803203688E+03  0.00000000000E+00 0. -1.
         -2   -1    0    0    0  501 -0.00000000000E+00 -0.00000000000E+00 -0.41986526539E+02  0.41986526539E+02  0.00000000000E+00 0.  1.
         25    2    1    2    0    0  0.87190143603E+02  0.21066620158E+02  0.21873074528E+03  0.26746306144E+03  0.12508967455E+03 0.  0.
          5    1    3    3  502    0  0.91902091172E+02 -0.15282357094E+01  0.22508209900E+03  0.24316199036E+03  0.41800000000E+01 0.  1.
         -5    1    3    3    0  502 -0.47119475690E+01  0.22594855867E+02 -0.63513537201E+01  0.24301071080E+02  0.41800000000E+01 0.  1.
        -11    1    1    2    0    0 -0.90724143031E+02 -0.46443887208E+02  0.15902786919E+03  0.18888559492E+03  0.00000000000E+00 0.  1.
         11    1    1    2    0    0  0.35339994281E+01  0.25377267050E+02  0.58286895869E+02  0.63669907059E+02  0.00000000000E+00 0. -1.
</event>
<event>
 7    1  0.2686828E-009  0.9914376E+02  0.7561462E-02  0.1282107E+00
         -1   -1    0    0    0  501 -0.00000000000E+00  0.00000000000E+00  0.16105035809E+03  0.16105035809E+03  0.00000000000E+00 0. -1.
          1   -1    0    0  501    0  0.00000000000E+00 -0.00000000000E+00 -0.12074994354E+03  0.12074994354E+03  0.00000000000E+00 0.  1.
         25    2    1    2    0    0  0.38101446003E+02  0.67655668155E+02 -0.15935335211E+02  0.14809451510E+03  0.12509612653E+03 0.  0.
          5    1    3    3  502    0  0.10092297494E+02 -0.86911277071E+01 -0.55736617017E+02  0.57458098176E+02  0.41800000000E+01 0.  1.
         -5    1    3    3    0  502  0.28009148509E+02  0.76346795863E+02  0.39801281806E+02  0.90636416920E+02  0.41800000000E+01 0.  1.
        -11    1    1    2    0    0  0.19711907123E+02 -0.17659213262E+02 -0.13967297675E+02  0.29924780697E+02  0.00000000000E+00 0.  1.
         11    1    1    2    0    0 -0.57813353125E+02 -0.49996454894E+02  0.70203047435E+02  0.10378100583E+03  0.00000000000E+00 0. -1.
</event>
<event>
 7    1  0.2686828E-009  0.1171362E+03  0.7561462E-02  0.1247898E+00
          1   -1    0    0  501    0  0.00000000000E+00  0.00000000000E+00  0.46805574274E+03  0.46805574274E+03  0.00000000000E+00 0. -1.
         -1   -1    0    0    0  501 -0.00000000000E+00 -0.00000000000E+00 -0.30461305180E+02  0.30461305180E+02  0.00000000000E+00 0.  1.
         25    2    1    2    0    0  0.38574477766E+02 -0.33599061746E+02  0.27058387062E+03  0.30245739899E+03  0.12509180580E+03 0.  0.
          5    1    3    3  502    0  0.79612396356E+02 -0.42992479558E+00  0.13328094608E+03  0.15530486623E+03  0.41800000000E+01 0. -1.
         -5    1    3    3    0  502 -0.41037918590E+02 -0.33169136951E+02  0.13730292455E+03  0.14715253276E+03  0.41800000000E+01 0. -1.
        -11    1    1    2    0    0 -0.52885415564E+02  0.54723313822E+02  0.13654803836E+03  0.15632298307E+03  0.00000000000E+00 0.  1.
         11    1    1    2    0    0  0.14310937798E+02 -0.21124252075E+02  0.30462528572E+02  0.39736665856E+02  0.00000000000E+00 0. -1.
</event>
<event>
 7    1  0.2686828E-009  0.1161790E+03  0.7561462E-02  0.1249537E+00
         -2   -1    0    0    0  501 -0.00000000000E+00  0.00000000000E+00  0.32829709819E+02  0.32829709819E+02  0.00000000000E+00 0. -1.
          2   -1    0    0  501    0  0.00000000000E+00 -0.00000000000E+00 -0.61450743315E+03  0.61450743315E+03  0.00000000000E+00 0.  1.
         25    2    1    2    0    0 -0.24994280153E+02  0.62667348642E+02 -0.18417606384E+03  0.23263857154E+03  0.12509185365E+03 0.  0.
          5    1    3    3  502    0  0.17755008521E+02  0.81493146991E+02 -0.69162519863E+02  0.10843108359E+03  0.41800000000E+01 0.  1.
         -5    1    3    3    0  502 -0.42749288674E+02 -0.18825798349E+02 -0.11501354398E+03  0.12420748795E+03  0.41800000000E+01 0.  1.
        -11    1    1    2    0    0 -0.19640532507E+02 -0.52666175616E+02 -0.31840252947E+03  0.32332591505E+03  0.00000000000E+00 0. -1.
         11    1    1    2    0    0  0.44634812660E+02 -0.10001173027E+02 -0.79099130023E+02  0.91372656377E+02  0.00000000000E+00 0.  1.
</event>
<event>
 7    1  0.2686828E-009  0.1040382E+03  0.7561462E-02  0.1272026E+00
          2   -1    0    0  501    0  0.00000000000E+00  0.00000000000E+00  0.52648315793E+02  0.52648315793E+02  0.00000000000E+00 0. -1.
         -2   -1    0    0    0  501 -0.00000000000E+00 -0.00000000000E+00 -0.25739160159E+03  0.25739160159E+03  0.00000000000E+00 0.  1.
         25    2    1    2    0    0 -0.21304931445E+02 -0.32858127396E+02 -0.13716434375E+03  0.18972851545E+03  0.12509714520E+03 0.  0.
          5    1    3    3  502    0  0.44916855241E+02 -0.11108132774E+02 -0.10081925577E+03  0.11100859981E+03  0.41800000000E+01 0. -1.
         -5    1    3    3    0  502 -0.66221786685E+02 -0.21749994622E+02 -0.36345087988E+02  0.78719915642E+02  0.41800000000E+01 0. -1.
        -11    1    1    2    0    0 -0.64921892707E+01 -0.25946854771E+02 -0.32364648257E+00  0.26748692325E+02  0.00000000000E+00 0. -1.
         11    1    1    2    0    0  0.27797120715E+02  0.58804982167E+02 -0.67255295557E+02  0.93562709603E+02  0.00000000000E+00 0.  1.
</event>
<event>
 7    1  0.2686828E-009  0.3405993E+03  0.7561462E-02  0.1066541E+00
          2   -1    0    0  501    0  0.00000000000E+00  0.00000000000E+00  0.10138832951E+04  0.10138832951E+04  0.00000000000E+00 0. -1.
         -2   -1    0    0    0  501 -0.00000000000E+00 -0.00000000000E+00 -0.26025502182E+03  0.26025502182E+03  0.00000000000E+00 0.  1.
         25    2    1    2    0    0 -0.32198447418E+03 -0.60377467351E+02 -0.92120730214E+02  0.36256504058E+03  0.12509092506E+03 0.  0.
          5    1    3    3  502    0 -0.23662861538E+03 -0.86232766761E+02 -0.10396628836E+03  0.27249890495E+03  0.41800000000E+01 0.  1.
         -5    1    3    3    0  502 -0.85355858799E+02  0.25855299409E+02  0.11845558150E+02  0.90066135627E+02  0.41800000000E+01 0.  1.
        -11    1    1    2    0    0  0.11431835764E+03  0.66535762672E+02  0.31935545068E+03  0.34566399652E+03  0.00000000000E+00 0.  1.
         11    1    1    2    0    0  0.20766611655E+03 -0.61582953205E+01  0.52639355281E+03  0.56590927984E+03  0.00000000000E+00 0. -1.
</event>
<event>
 7    1  0.2686828E-009  0.4535214E+02  0.7561462E-02  0.1472155E+00
         -2   -1    0    0    0  501 -0.00000000000E+00  0.00000000000E+00  0.14138739033E+02  0.14138739033E+02  0.00000000000E+00 0.  1.
          2   -1    0    0  501    0  0.00000000000E+00 -0.00000000000E+00 -0.11395863388E+04  0.11395863388E+04  0.00000000000E+00 0. -1.
         25    2    1    2    0    0 -0.15079642039E+02 -0.16460723315E+02 -0.90950929982E+03  0.91834230610E+03  0.12508826363E+03 0.  0.
          5    1    3    3  502    0 -0.14270832101E+02  0.37268264346E+01 -0.88939882749E+03  0.88953093966E+03  0.41800000000E+01 0. -1.
         -5    1    3    3    0  502 -0.80880993773E+00 -0.20187549750E+02 -0.20110472329E+02  0.28811366432E+02  0.41800000000E+01 0. -1.
        -11    1    1    2    0    0  0.33541827090E+02  0.12917482835E+02 -0.21340850684E+03  0.21641420083E+03  0.00000000000E+00 0. -1.
         11    1    1    2    0    0 -0.18462185051E+02  0.35432404804E+01 -0.25297931342E+01  0.18968570934E+02  0.00000000000E+00 0.  1.
</event>
<event>
 7    1  0.2686828E-009  0.1061126E+03  0.7561462E-02  0.1267943E+00
         -3   -1    0    0    0  501 -0.00000000000E+00  0.00000000000E+00  0.72389808509E+02  0.72389808509E+02  0.00000000000E+00 0.  1.
          3   -1    0    0  501    0  0.00000000000E+00 -0.00000000000E+00 -0.22857169947E+03  0.22857169947E+03  0.00000000000E+00 0. -1.
         25    2    1    2    0    0 -0.43512780762E+01  0.47487386723E+02 -0.14618045312E+03  0.19821829398E+03  0.12509109350E+03 0.  0.
          5    1    3    3  502    0 -0.53378983908E+02 -0.16299259038E+01 -0.10376646210E+03  0.11677723938E+03  0.41800000000E+01 0. -1.
         -5    1    3    3    0  502  0.49027705832E+02  0.49117312627E+02 -0.42413991023E+02  0.81441054594E+02  0.41800000000E+01 0. -1.
        -11    1    1    2    0    0  0.26549866682E+02 -0.58581294297E+02  0.16537631474E+02  0.66409010813E+02  0.00000000000E+00 0.  1.
         11    1    1    2    0    0 -0.22198588606E+02  0.11093907574E+02 -0.26539069314E+02  0.36334203189E+02  0.00000000000E+00 0. -1.
</event>
<event>
 7    1  0.2686828E-009  0.8846781E+02  0.7561462E-02  0.1306605E+00
          4   -1    0    0  501    0  0.00000000000E+00  0.00000000000E+00  0.12652977990E+03  0.12652977990E+03  0.00000000000E+00 0. -1.
         -4   -1    0    0    0  501 -0.00000000000E+00 -0.00000000000E+00 -0.10973728222E+03  0.10973728222E+03  0.00000000000E+00 0.  1.
         25    2    1    2    0    0  0.21197008562E+02  0.26034447932E+02  0.40488540791E+02  0.13569767750E+03  0.12508969619E+03 0.  0.
          5    1    3    3  502    0 -0.38100940266E+02  0.39158619648E+02 -0.11092365998E+02  0.55906995316E+02  0.41800000000E+01 0. -1.
         -5    1    3    3    0  502  0.59297948827E+02 -0.13124171716E+02  0.51580906788E+02  0.79790682184E+02  0.41800000000E+01 0. -1.
        -11    1    1    2    0    0 -0.12025322814E+02  0.14995048180E+02  0.27983303445E+02  0.33948860517E+02  0.00000000000E+00 0. -1.
         11    1    1    2    0    0 -0.91716857478E+01 -0.41029496112E+02 -0.51679346563E+02  0.66620524104E+02  0.00000000000E+00 0.  1.
</event>
<event>
 7    1  0.2686828E-009  0.7076067E+02  0.7561462E-02  0.1357525E+00
          2   -1    0    0  501    0  0.00000000000E+00  0.00000000000E+00  0.49282511648E+02  0.49282511648E+02  0.00000000000E+00 0. -1.
         -2   -1    0    0    0  501 -0.00000000000E+00 -0.00000000000E+00 -0.32783812156E+03  0.32783812156E+03  0.00000000000E+00 0.  1.
         25    2    1    2    0    0 -0.30766705318E+02 -0.24194165487E+02 -0.24107727614E+03  0.27440530140E+03  0.12509224024E+03 0.  0.
          5    1    3    3  502    0 -0.42086303935E+01 -0.18007463856E+02 -0.24570225007E+03  0.24643264681E+03  0.41800000000E+01 0. -1.
         -5    1    3    3    0  502 -0.26558074925E+02 -0.61867016303E+01  0.46249739358E+01  0.27972654588E+02  0.41800000000E+01 0. -1.
        -11    1    1    2    0    0  0.15645871666E+02  0.56862832602E+02 -0.29054510383E+02  0.65744502472E+02  0.00000000000E+00 0.  1.
         11    1    1    2    0    0  0.15120833653E+02 -0.32668667116E+02 -0.84238233971E+01  0.36970829340E+02  0.00000000000E+00 0. -1.
</event>
<event>
 7    1  0.2686828E-009  0.1939549E+03  0.7561462E-02  0.1154942E+00
          2   -1    0    0  501    0  0.00000000000E+00  0.00000000000E+00  0.16950004701E+04  0.16950004701E+04  0.00000000000E+00 0.  1.
         -2   -1    0    0    0  501 -0.00000000000E+00 -0.00000000000E+00 -0.23822450455E+02  0.23822450455E+02  0.00000000000E+00 0. -1.
         25    2    1    2    0    0 -0.46122039916E+01 -0.16594496515E+03  0.99430062093E+03  0.10157954177E+04  0.12509037530E+03 0.  0.
          5    1    3    3  502    0 -0.56900798772E+01 -0.18594110406E+03  0.85606537358E+03  0.87605471714E+03  0.41800000000E+01 0. -1.
         -5    1    3    3    0  502  0.10778758855E+01  0.19996138902E+02  0.13823524735E+03  0.13974070058E+03  0.41800000000E+01 0. -1.
        -11    1    1    2    0    0  0.26783779615E+02  0.19168357981E+02  0.59016327734E+02  0.67584937208E+02  0.00000000000E+00 0. -1.
         11    1    1    2    0    0 -0.22171575624E+02  0.14677660717E+03  0.61786107097E+03  0.63544256561E+03  0.00000000000E+00 0.  1.
</event>
<event>
 7    1  0.2686828E-009  0.1221432E+03  0.7561462E-02  0.1239603E+00
         -2   -1    0    0    0  501 -0.00000000000E+00  0.00000000000E+00  0.62060810422E+02  0.62060810422E+02  0.00000000000E+00 0.  1.
          2   -1    0    0  501    0  0.00000000000E+00 -0.00000000000E+00 -0.33208236082E+03  0.33208236082E+03  0.00000000000E+00 0. -1.
         25    2    1    2    0    0 -0.73739046337E+02 -0.52104079281E+02 -0.17608274158E+03  0.23410373511E+03  0.12508854814E+03 0.  0.
          5    1    3    3  502    0 -0.88238144956E+02 -0.80938559282E+02 -0.15239137654E+03  0.19384948968E+03  0.41800000000E+01 0. -1.
         -5    1    3    3    0  502  0.14499098619E+02  0.28834480001E+02 -0.23691365037E+02  0.40254245428E+02  0.41800000000E+01 0. -1.
        -11    1    1    2    0    0  0.29956540878E+02  0.11100982688E+02  0.15294581901E+02  0.35419632883E+02  0.00000000000E+00 0.  1.
         11    1    1    2    0    0  0.43782505459E+02  0.41003096592E+02 -0.10923339072E+03  0.12461980325E+03  0.00000000000E+00 0. -1.
</event>
<event>
 7    1  0.2686828E-009  0.3334336E+03  0.7561462E-02  0.1069628E+00
          2   -1    0    0  501    0  0.00000000000E+00  0.00000000000E+00  0.16981306452E+03  0.16981306452E+03  0.00000000000E+00 0. -1.
         -2   -1    0    0    0  501 -0.00000000000E+00 -0.00000000000E+00 -0.67869824871E+03  0.67869824871E+03  0.00000000000E+00 0.  1.
         25    2    1    2    0    0  0.32968449675E+02  0.31718037379E+03 -0.30792862045E+03  0.46060704730E+03  0.12509399880E+03 0.  0.
          5    1    3    3  502    0  0.38842841757E+01  0.31157342905E+03 -0.27016502966E+03  0.41243145492E+03  0.41800000000E+01 0. -1.
         -5    1    3    3    0  502  0.29084165499E+02  0.56069447433E+01 -0.37763590792E+02  0.48175592385E+02  0.41800000000E+01 0. -1.
        -11    1    1    2    0    0  0.19655019337E+02 -0.93047957460E+02 -0.25559504149E+02  0.98476039852E+02  0.00000000000E+00 0. -1.
         11    1    1    2    0    0 -0.52623469012E+02 -0.22413241633E+03 -0.17539705959E+03  0.28942822608E+03  0.00000000000E+00 0.  1.
</event>
<event>
 7    1  0.2686828E-009  0.1938030E+03  0.7561462E-02  0.1155075E+00
          3   -1    0    0  501    0  0.00000000000E+00  0.00000000000E+00  0.92539060191E+03  0.92539060191E+03  0.00000000000E+00 0. -1.
         -3   -1    0    0    0  501 -0.00000000000E+00 -0.00000000000E+00 -0.49446922832E+02  0.49446922832E+02  0.00000000000E+00 0.  1.
         25    2    1    2    0    0 -0.97434631108E+02 -0.14726589326E+03  0.56790598559E+03  0.60773796303E+03  0.12508985801E+03 0.  0.
          5    1    3    3  502    0 -0.12722881025E+02 -0.11746533096E+03  0.40221072918E+03  0.41922657209E+03  0.41800000000E+01 0.  1.
         -5    1    3    3    0  502 -0.84711750082E+02 -0.29800562301E+02  0.16569525641E+03  0.18851139094E+03  0.41800000000E+01 0.  1.
        -11    1    1    2    0    0  0.67648663295E+02  0.73310376962E+02  0.87852439095E+02  0.13292405377E+03  0.00000000000E+00 0.  1.
         11    1    1    2    0    0  0.29785967813E+02  0.73955516300E+02  0.22018525439E+03  0.23417550794E+03  0.00000000000E+00 0. -1.
</event>
<event>
 7    1  0.2686828E-009  0.1418013E+03  0.7561462E-02  0.1210926E+00
         -1   -1    0    0    0  501 -0.00000000000E+00  0.00000000000E+00  0.79287306525E+02  0.79287306525E+02  0.00000000000E+00 0.  1.
          1   -1    0    0  501    0  0.00000000000E+00 -0.00000000000E+00 -0.38470280219E+03  0.38470280219E+03  0.00000000000E+00 0. -1.
         25    2    1    2    0    0  0.13006293303E+03 -0.20336440575E+02 -0.11628529542E+03  0.21564277055E+03  0.12509835010E+03 0.  0.
          5    1    3    3  502    0  0.13595992477E+03 -0.21600824401E+02 -0.13663777841E+03  0.19400786492E+03  0.41800000000E+01 0.  1.
         -5    1    3    3    0  502 -0.58969917453E+01  0.12643838258E+01  0.20352482991E+02  0.21634905638E+02  0.41800000000E+01 0.  1.
        -11    1    1    2    0    0 -0.56192276465E+02 -0.12708059751E+02 -0.20227806770E+02  0.61059240772E+02  0.00000000000E+00 0.  1.
         11    1    1    2    0    0 -0.73870656564E+02  0.33044500325E+02 -0.16890239347E+03  0.18728809739E+03  0.00000000000E+00 0. -1.
</event>
<event>
 7    1  0.6192963E-009  0.1724452E+03  0.7561462E-02  0.1175322E+00
         -2   -1    0    0    0  501 -0.00000000000E+00  0.00000000000E+00  0.10700785571E+03  0.10700785571E+03  0.00000000000E+00 0.  1.
          2   -1    0    0  501    0  0.00000000000E+00 -0.00000000000E+00 -0.35634239419E+03  0.35634239419E+03  0.00000000000E+00 0. -1.
         25    2    1    2    0    0 -0.14559184383E+03  0.40090837187E+02 -0.19971370400E+03  0.27989303988E+03  0.12510111905E+03 0.  0.
          5    1    3    3  502    0 -0.11102115975E+01  0.48299401773E+02 -0.72176044648E+02  0.86953542782E+02  0.41800000000E+01 0.  1.
         -5    1    3    3    0  502 -0.14448163223E+03 -0.82085645853E+01 -0.12753765935E+03  0.19293949709E+03  0.41800000000E+01 0.  1.
        -11    1    1    2    0    0  0.51723540444E+02 -0.75368891795E+01 -0.64473919940E+02  0.83000094500E+02  0.00000000000E+00 0. -1.
         11    1    1    2    0    0  0.93868303388E+02 -0.32553948008E+02  0.14853085464E+02  0.10045711552E+03  0.00000000000E+00 0.  1.
</event>
<event>
 7    1  0.2686828E-009  0.1600410E+03  0.7561462E-02  0.1188650E+00
         -1   -1    0    0    0  501 -0.00000000000E+00  0.00000000000E+00  0.68514475076E+02  0.68514475076E+02  0.00000000000E+00 0.  1.
          1   -1    0    0  501    0  0.00000000000E+00 -0.00000000000E+00 -0.40721589935E+03  0.40721589935E+03  0.00000000000E+00 0. -1.
         25    2    1    2    0    0  0.11174903422E+03 -0.48926985904E+02 -0.15674565935E+03  0.23473020356E+03  0.12508944856E+03 0.  0.
          5    1    3    3  502    0  0.41758729491E+02 -0.80251895563E+02 -0.11790730834E+03  0.14867334660E+03  0.41800000000E+01 0. -1.
         -5    1    3    3    0  502  0.69990304724E+02  0.31324909659E+02 -0.38838351014E+02  0.86056856961E+02  0.41800000000E+01 0. -1.
        -11    1    1    2    0    0 -0.91471886608E+02 -0.84585509872E+01 -0.77868982578E+02  0.12042521153E+03  0.00000000000E+00 0.  1.
         11    1    1    2    0    0 -0.20277147607E+02  0.57385536891E+02 -0.10408678234E+03  0.12057495933E+03  0.00000000000E+00 0. -1.
</event>
<event>
 7    1  0.2686828E-009  0.2404497E+03  0.7561462E-02  0.1119494E+00
         -1   -1    0    0    0  501 -0.00000000000E+00  0.00000000000E+00  0.60936698774E+03  0.60936698774E+03  0.00000000000E+00 0.  1.
          1   -1    0    0  501    0  0.00000000000E+00 -0.00000000000E+00 -0.99909109290E+02  0.99909109290E+02  0.00000000000E+00 0. -1.
         25    2    1    2    0    0  0.35507433866E+02  0.21545289610E+03  0.31069168921E+03  0.39982451015E+03  0.12509830086E+03 0.  0.
          5    1    3    3  502    0  0.34505614160E+01 -0.16353795871E+02  0.16154639720E+02  0.23617743287E+02  0.41800000000E+01 0. -1.
         -5    1    3    3    0  502  0.32056872450E+02  0.23180669197E+03  0.29453704949E+03  0.37620676686E+03  0.41800000000E+01 0. -1.
        -11    1    1    2    0    0  0.16640561186E+02 -0.11730339513E+03  0.63636151332E+02  0.13448626154E+03  0.00000000000E+00 0. -1.
         11    1    1    2    0    0 -0.52147995051E+02 -0.98149500965E+02  0.13513003791E+03  0.17496532535E+03  0.00000000000E+00 0.  1.
</event>
<event>
 7    1  0.2686828E-009  0.2227855E+03  0.7561462E-02  0.1131823E+00
          2   -1    0    0  501    0  0.00000000000E+00  0.00000000000E+00  0.54609439167E+03  0.54609439167E+03  0.00000000000E+00 0. -1.
         -2   -1    0    0    0  501 -0.00000000000E+00 -0.00000000000E+00 -0.11563771140E+03  0.11563771140E+03  0.00000000000E+00 0.  1.
         25    2    1    2    0    0  0.18548399248E+03 -0.71428424615E+02  0.79502072794E+02  0.24794194890E+03  0.12509316183E+03 0.  0.
          5    1    3    3  502    0  0.51964277593E+02 -0.84731123807E+02  0.45855529147E+02  0.10954383342E+03  0.41800000000E+01 0.  1.
         -5    1    3    3    0  502  0.13351971488E+03  0.13302699192E+02  0.33646543647E+02  0.13839811548E+03  0.41800000000E+01 0.  1.
        -11    1    1    2    0    0 -0.13306857200E+03  0.13551439935E+02  0.26999575175E+03  0.30131145405E+03  0.00000000000E+00 0. -1.
         11    1    1    2    0    0 -0.52415420481E+02  0.57876984681E+02  0.80958855724E+02  0.11247870012E+03  0.00000000000E+00 0.  1.
</event>
<event>
 7    1  0.2686828E-009  0.1025217E+03  0.7561462E-02  0.1275081E+00
         -2   -1    0    0    0  501 -0.00000000000E+00  0.00000000000E+00  0.25491471213E+02  0.25491471213E+02  0.00000000000E+00 0.  1.
          2   -1    0    0  501    0  0.00000000000E+00 -0.00000000000E+00 -0.62357660702E+03  0.62357660702E+03  0.00000000000E+00 0. -1.
         25    2    1    2    0    0 -0.20587109068E+02 -0.13877896571E+01 -0.39294592947E+03  0.41289318081E+03  0.12509404564E+03 0.  0.
          5    1    3    3  502    0 -0.57407882421E+02 -0.39248721004E+02 -0.27335227838E+03  0.28209053078E+03  0.41800000000E+01 0. -1.
         -5    1    3    3    0  502  0.36820773354E+02  0.37860931347E+02 -0.11959365109E+03  0.13080265003E+03  0.41800000000E+01 0. -1.
        -11    1    1    2    0    0  0.18110627792E+02  0.39893643441E+02 -0.22019663028E+02  0.49034306214E+02  0.00000000000E+00 0.  1.
         11    1    1    2    0    0  0.24764812758E+01 -0.38505853784E+02 -0.18311954331E+03  0.18714059120E+03  0.00000000000E+00 0. -1.
</event>
<event>
 7    1  0.2686828E-009  0.1302442E+03  0.7561462E-02  0.1227094E+00
          2   -1    0    0  501    0  0.00000000000E+00  0.00000000000E+00  0.78453097756E+02  0.78453097756E+02  0.00000000000E+00 0. -1.
         -2   -1    0    0    0  501 -0.00000000000E+00 -0.00000000000E+00 -0.30573892402E+03  0.30573892402E+03  0.00000000000E+00 0.  1.
         25    2    1    2    0    0  0.10610274951E+03 -0.18809798635E+02 -0.13134354665E+03  0.21097688547E+03  0.12509403253E+03 0.  0.
          5    1    3    3  502    0  0.74140719418E+02  0.25747715437E+02 -0.13462078495E+03  0.15588463448E+03  0.41800000000E+01 0. -1.
         -5    1    3    3    0  502  0.31962030095E+02 -0.44557514072E+02  0.32772382965E+01  0.55092250988E+02  0.41800000000E+01 0. -1.
        -11    1    1    2    0    0 -0.39771404996E+02  0.40838275132E+02 -0.85184723986E+02  0.10249861741E+03  0.00000000000E+00 0.  1.
         11    1    1    2    0    0 -0.66331344517E+02 -0.22028476497E+02 -0.10757555630E+02  0.70716518900E+02  0.00000000000E+00 0. -1.
</event>
<event>
 7    1  0.2686828E-009  0.1466886E+03  0.7561462E-02  0.1204602E+00
          4   -1    0    0  501    0  0.00000000000E+00  0.00000000000E+00  0.84150601419E+02  0.84150601419E+02  0.00000000000E+00 0.  1.
         -4   -1    0    0    0  501 -0.00000000000E+00 -0.00000000000E+00 -0.31796735612E+03  0.31796735612E+03  0.00000000000E+00 0. -1.
         25    2    1    2    0    0  0.89827415360E+02 -0.80973731820E+02 -0.11274014459E+03  0.20732541734E+03  0.12509108153E+03 0.  0.
          5    1    3    3  502    0 -0.30224923667E+02 -0.26941324284E+02 -0.38994316906E+02  0.56368520611E+02  0.41800000000E+01 0. -1.
         -5    1    3    3    0  502  0.12005233903E+03 -0.54032407536E+02 -0.73745827685E+02  0.15095689673E+03  0.41800000000E+01 0. -1.
        -11    1    1    2    0    0 -0.22312629634E+02  0.18904063504E+02 -0.95069080041E+02  0.99465305701E+02  0.00000000000E+00 0. -1.
         11    1    1    2    0    0 -0.67514785726E+02  0.62069668315E+02 -0.26007530066E+02  0.95327234495E+02  0.00000000000E+00 0.  1.
</event>
<event>
 7    1  0.2686828E-009  0.1681383E+03  0.7561462E-02  0.1179803E+00
         -1   -1    0    0    0  501 -0.00000000000E+00  0.00000000000E+00  0.47768279230E+02  0.47768279230E+02  0.00000000000E+00 0.  1.
          1   -1    0    0  501    0  0.00000000000E+00 -0.00000000000E+00 -0.73142243174E+03  0.73142243174E+03  0.00000000000E+00 0. -1.
         25    2    1    2    0    0 -0.12529121106E+03 -0.75120705149E+02 -0.43315882073E+03  0.47393559114E+03  0.12508945861E+03 0.  0.
          5    1    3    3  502    0 -0.12166831990E+03 -0.10300061226E+03 -0.32372350129E+03  0.36086934462E+03  0.41800000000E+01 0. -1.
         -5    1    3    3    0  502 -0.36228911556E+01  0.27879907115E+02 -0.10943531944E+03  0.11306624652E+03  0.41800000000E+01 0. -1.
        -11    1    1    2    0    0  0.38259636074E+02  0.95926310311E+01 -0.15641687276E+03  0.16131353448E+03  0.00000000000E+00 0. -1.
         11    1    1    2    0    0  0.87031574985E+02  0.65528074118E+02 -0.94078459009E+02  0.14394158534E+03  0.00000000000E+00 0.  1.
</event>
<event>
 7    1  0.2686828E-009  0.7598816E+02  0.7561462E-02  0.1340838E+00
         -3   -1    0    0    0  501 -0.00000000000E+00  0.00000000000E+00  0.62255797829E+02  0.62255797829E+02  0.00000000000E+00 0.  1.
          3   -1    0    0  501    0  0.00000000000E+00 -0.00000000000E+00 -0.31881654795E+03  0.31881654795E+03  0.00000000000E+00 0. -1.
         25    2    1    2    0    0 -0.28073388531E+02  0.42629566113E+02 -0.24234413312E+03  0.27745854245E+03  0.12508864406E+03 0.  0.
          5    1    3    3  502    0 -0.14958126017E+02  0.25013160636E+02  0.43421843697E+01  0.29761228201E+02  0.41800000000E+01 0.  1.
         -5    1    3    3    0  502 -0.13115262514E+02  0.17616405477E+02 -0.24668631749E+03  0.24769731425E+03  0.41800000000E+01 0.  1.
        -11    1    1    2    0    0  0.53632792433E+02 -0.50260843766E+02 -0.24731632341E+00  0.73502993174E+02  0.00000000000E+00 0. -1.
         11    1    1    2    0    0 -0.25559403902E+02  0.76312776530E+01 -0.13969300681E+02  0.30110810151E+02  0.00000000000E+00 0.  1.
</event>
<event>
 7    1  0.2686828E-009  0.3968282E+03  0.7561462E-02  0.1044884E+00
          1   -1    0    0  501    0  0.00000000000E+00  0.00000000000E+00  0.58697463287E+03  0.58697463287E+03  0.00000000000E+00 0. -1.
         -1   -1    0    0    0  501 -0.00000000000E+00 -0.00000000000E+00 -0.30966047409E+03  0.30966047409E+03  0.00000000000E+00 0.  1.
         25    2    1    2    0    0 -0.19281418992E+03  0.33607602601E+03 -0.79719500970E+01  0.40722925477E+03  0.12509079446E+03 0.  0.
          5    1    3    3  502    0  0.16884753853E+02  0.23771199229E+02  0.85391215084E+01  0.30668449938E+02  0.41800000000E+01 0.  1.
         -5    1    3    3    0  502 -0.20969894377E+03  0.31230482678E+03 -0.16511071605E+02  0.37656080483E+03  0.41800000000E+01 0.  1.
        -11    1    1    2    0    0  0.82358961235E+02 -0.16414161374E+03  0.81875486919E+02  0.20106979688E+03  0.00000000000E+00 0.  1.
         11    1    1    2    0    0  0.11045522869E+03 -0.17193441227E+03  0.20341062196E+03  0.28833605531E+03  0.00000000000E+00 0. -1.
</event>
<event>
 7    1  0.3561041E-009  0.2814741E+03  0.7561462E-02  0.1094887E+00
         -2   -1    0    0    0  501 -0.00000000000E+00  0.00000000000E+00  0.67776041710E+02  0.67776041710E+02  0.00000000000E+00 0.  1.
          2   -1    0    0  501    0  0.00000000000E+00 -0.00000000000E+00 -0.13542626251E+04  0.13542626251E+04  0.00000000000E+00 0. -1.
         25    2    1    2    0    0  0.24843201855E+03 -0.12206340153E+03 -0.79155341206E+03  0.84783477901E+03  0.12509622903E+03 0.  0.
          5    1    3    3  502    0  0.19219701480E+03 -0.61559718590E+02 -0.40481772728E+03  0.45235401642E+03  0.41800000000E+01 0.  1.
         -5    1    3    3    0  502  0.56235003756E+02 -0.60503682938E+02 -0.38673568478E+03  0.39548076259E+03  0.41800000000E+01 0.  1.
        -11    1    1    2    0    0 -0.16924894376E+03  0.98234109222E+02 -0.26190783888E+03  0.32694167866E+03  0.00000000000E+00 0.  1.
         11    1    1    2    0    0 -0.79183074788E+02  0.23829292306E+02 -0.23302533243E+03  0.24726220912E+03  0.00000000000E+00 0. -1.
</event>
<event>
 7    1  0.2686828E-009  0.7386170E+02  0.7561462E-02  0.1347433E+00
         -1   -1    0    0    0  501 -0.00000000000E+00  0.00000000000E+00  0.20471593696E+03  0.20471593696E+03  0.00000000000E+00 0.  1.
          1   -1    0    0  501    0  0.00000000000E+00 -0.00000000000E+00 -0.71504231939E+02  0.71504231939E+02  0.00000000000E+00 0. -1.
         25    2    1    2    0    0  0.35678340439E+02 -0.28833275030E+02  0.36526998867E+02  0.13815257541E+03  0.12509041019E+03 0.  0.
          5    1    3    3  502    0  0.85143084101E+01 -0.28517252596E+02  0.80706783802E+02  0.86120755309E+02  0.41800000000E+01 0. -1.
         -5    1    3    3    0  502  0.27164032029E+02 -0.31602243398E+00 -0.44179784935E+02  0.52031820102E+02  0.41800000000E+01 0. -1.
        -11    1    1    2    0    0  0.34242939182E+01 -0.24118139418E+02  0.55002805510E+02  0.60155789844E+02  0.00000000000E+00 0. -1.
         11    1    1    2    0    0 -0.39102634357E+02  0.52951414448E+02  0.41681900643E+02  0.77911803643E+02  0.00000000000E+00 0.  1.
</event>
<event>
 7    1  0.2686828E-009  0.7656101E+02  0.7561462E-02  0.1339104E+00
         -1   -1    0    0    0  501 -0.00000000000E+00  0.00000000000E+00  0.66154881909E+02  0.66154881909E+02  0.00000000000E+00 0.  1.
          1   -1    0    0  501    0  0.00000000000E+00 -0.00000000000E+00 -0.20263386862E+03  0.20263386862E+03  0.00000000000E+00 0. -1.
         25    2    1    2    0    0  0.66915603569E+01 -0.28362687530E+02 -0.45868468314E+02  0.13638479338E+03  0.12509067293E+03 0.  0.
          5    1    3    3  502    0 -0.18833846900E+02  0.96176426915E+01 -0.77602322700E+02  0.80540708518E+02  0.41800000000E+01 0.  1.
         -5    1    3    3    0  502  0.25525407257E+02 -0.37980330222E+02  0.31733854387E+02  0.55844084858E+02  0.41800000000E+01 0.  1.
        -11    1    1    2    0    0  0.36374106720E+02  0.20763501971E+02 -0.13946218486E+02  0.44144033163E+02  0.00000000000E+00 0.  1.
         11    1    1    2    0    0 -0.43065667077E+02  0.75991855593E+01 -0.76664299908E+02  0.88259923988E+02  0.00000000000E+00 0. -1.
</event>
<event>
 7    1  0.2686828E-009  0.1596790E+03  0.7561462E-02  0.1189060E+00
          1   -1    0    0  501    0  0.00000000000E+00  0.00000000000E+00  0.22486037743E+03  0.22486037743E+03  0.00000000000E+00 0. -1.
         -1   -1    0    0    0  501 -0.00000000000E+00 -0.00000000000E+00 -0.14123487838E+03  0.14123487838E+03  0.00000000000E+00 0.  1.
         25    2    1    2    0    0  0.25173721517E+01 -0.12260082526E+03  0.11388387080E+03  0.20893599226E+03  0.12508962113E+03 0.  0.
          5    1    3    3  502    0  0.39009355543E+02  0.73412117626E+01  0.30489470404E+02  0.50226521037E+02  0.41800000000E+01 0. -1.
         -5    1    3    3    0  502 -0.36491983391E+02 -0.12994203702E+03  0.83394400393E+02  0.15870947122E+03  0.41800000000E+01 0. -1.
        -11    1    1    2    0    0 -0.11501481996E+02  0.13136048381E+03 -0.86181478611E+01  0.13214436525E+03  0.00000000000E+00 0.  1.
         11    1    1    2    0    0  0.89841098442E+01 -0.87596585498E+01 -0.21640223878E+02  0.25014898303E+02  0.00000000000E+00 0. -1.
</event>
<event>
 7    1  0.2686828E-009  0.9428861E+02  0.7561462E-02  0.1292786E+00
          2   -1    0    0  501    0  0.00000000000E+00  0.00000000000E+00  0.13395290167E+03  0.13395290167E+03  0.00000000000E+00 0. -1.
         -2   -1    0    0    0  501 -0.00000000000E+00 -0.00000000000E+00 -0.94108089451E+02  0.94108089451E+02  0.00000000000E+00 0.  1.
         25    2    1    2    0    0 -0.26375149453E+02  0.11068781935E+01  0.35862340427E+02  0.13277664421E+03  0.12508659440E+03 0.  0.
          5    1    3    3  502    0 -0.48562115138E+02  0.40695521261E+02 -0.14212097838E+02  0.65068122782E+02  0.41800000000E+01 0.  1.
         -5    1    3    3    0  502  0.22186965685E+02 -0.39588643067E+02  0.50074438265E+02  0.67708521427E+02  0.41800000000E+01 0.  1.
        -11    1    1    2    0    0  0.52899332762E+02 -0.23641648412E+01  0.27629847520E+02  0.59727189420E+02  0.00000000000E+00 0. -1.
         11    1    1    2    0    0 -0.26524183309E+02  0.12572866478E+01 -0.23647375729E+02  0.35557157490E+02  0.00000000000E+00 0.  1.
</event>
<event>
 7    1  0.2686828E-009  0.9298128E+02  0.7561462E-02  0.1295789E+00
          2   -1    0    0  501    0  0.00000000000E+00  0.00000000000E+00  0.62820147356E+03  0.62820147356E+03  0.00000000000E+00 0. -1.
         -2   -1    0    0    0  501 -0.00000000000E+00 -0.00000000000E+00 -0.33766781071E+02  0.33766781071E+02  0.00000000000E+00 0.  1.
         25    2    1    2    0    0 -0.14451755389E+02 -0.56091379549E+02  0.50660948252E+03  0.52502782753E+03  0.12508379516E+03 0.  0.
          5    1    3    3  502    0 -0.47258868490E+01 -0.69939656630E+02  0.50214858418E+03  0.50703507035E+03  0.41800000000E+01 0.  1.
         -5    1    3    3    0  502 -0.97258685397E+01  0.13848277081E+02  0.44608983423E+01  0.17992757181E+02  0.41800000000E+01 0.  1.
        -11    1    1    2    0    0  0.47297570154E+02  0.27183494338E+02  0.72171414654E+02  0.90469418037E+02  0.00000000000E+00 0.  1.
         11    1    1    2    0    0 -0.32845814765E+02  0.28907885211E+02  0.15653795311E+02  0.46471009055E+02  0.00000000000E+00 0. -1.
</event>
<event>
 7    1  0.2686828E-009  0.1548351E+03  0.7561462E-02  0.1194654E+00
          2   -1    0    0  501    0  0.00000000000E+00  0.00000000000E+00  0.73952913085E+03  0.73952913085E+03  0.00000000000E+00 0.  1.
         -2   -1    0    0    0  501 -0.00000000000E+00 -0.00000000000E+00 -0.36688398984E+02  0.36688398984E+02  0.00000000000E+00 0. -1.
         25    2    1    2    0    0 -0.11083187748E+03 -0.32673016513E+02  0.26973819793E+03  0.31899231976E+03  0.12508466560E+03 0.  0.
          5    1    3    3  502    0 -0.60501610219E+02 -0.79187232442E+02  0.13595207779E+03  0.16861643596E+03  0.41800000000E+01 0.  1.
         -5    1    3    3    0  502 -0.50330267264E+02  0.46514215928E+02  0.13378612014E+03  0.15037588380E+03  0.41800000000E+01 0.  1.
        -11    1    1    2    0    0  0.60427831165E+02  0.58955402044E+02  0.19609271120E+03  0.21349382566E+03  0.00000000000E+00 0. -1.
         11    1    1    2    0    0  0.50404046317E+02 -0.26282385531E+02  0.23700982273E+03  0.24373138441E+03  0.00000000000E+00 0.  1.
</event>
<event>
 7    1  0.2686828E-009  0.1888009E+03  0.7561462E-02  0.1159547E+00
         -2   -1    0    0    0  501 -0.00000000000E+00  0.00000000000E+00  0.58278376231E+02  0.58278376231E+02  0.00000000000E+00 0.  1.
          2   -1    0    0  501    0  0.00000000000E+00 -0.00000000000E+00 -0.91071489020E+03  0.91071489020E+03  0.00000000000E+00 0. -1.
         25    2    1    2    0    0  0.17222936656E+03  0.39108795797E+02 -0.25198624249E+03  0.33216495289E+03  0.12507612446E+03 0.  0.
          5    1    3    3  502    0  0.13254655804E+03 -0.76683293250E+00 -0.24043532495E+03  0.27458294915E+03  0.41800000000E+01 0. -1.
         -5    1    3    3    0  502  0.39682808524E+02  0.39875628729E+02 -0.11550917539E+02  0.57582003742E+02  0.41800000000E+01 0. -1.
        -11    1    1    2    0    0 -0.15837331904E+03 -0.12860655184E+02 -0.57846701775E+03  0.59989298650E+03  0.00000000000E+00 0. -1.
         11    1    1    2    0    0 -0.13856047518E+02 -0.26248140613E+02 -0.21983253734E+02  0.36935327035E+02  0.00000000000E+00 0.  1.
</event>
<event>
 7    1  0.2686828E-009  0.1540334E+03  0.7561462E-02  0.1195603E+00
          2   -1    0    0  501    0  0.00000000000E+00  0.00000000000E+00  0.85368075761E+03  0.85368075761E+03  0.00000000000E+00 0.  1.
         -2   -1    0    0    0  501 -0.00000000000E+00 -0.00000000000E+00 -0.35699981559E+02  0.35699981559E+02  0.00000000000E+00 0. -1.
         25    2    1    2    0    0  0.12504237099E+03  0.49855276291E+02  0.42952733075E+03  0.46718529763E+03  0.12508889379E+03 0.  0.
          5    1    3    3  502    0  0.48205118323E+02 -0.17386679429E+02  0.41935480861E+02  0.66348225365E+02  0.41800000000E+01 0. -1.
         -5    1    3    3    0  502  0.76837252670E+02  0.67241955720E+02  0.38759184989E+03  0.40083707227E+03  0.41800000000E+01 0. -1.
        -11    1    1    2    0    0 -0.10572134243E+03 -0.52504472271E+01  0.18621882691E+03  0.21420088921E+03  0.00000000000E+00 0. -1.
         11    1    1    2    0    0 -0.19321028558E+02 -0.44604829064E+02  0.20223461839E+03  0.20799455232E+03  0.00000000000E+00 0.  1.
</event>
<event>
 7    1  0.2686828E-009  0.1067410E+03  0.7561462E-02  0.1266727E+00
          1   -1    0    0  501    0  0.00000000000E+00  0.00000000000E+00  0.14813520561E+03  0.14813520561E+03  0.00000000000E+00 0. -1.
         -1   -1    0    0    0  501 -0.00000000000E+00 -0.00000000000E+00 -0.98751330068E+02  0.98751330068E+02  0.00000000000E+00 0.  1.
         25    2    1    2    0    0 -0.23322047958E+02 -0.41431599923E+02 -0.81987274249E+00  0.13381661721E+03  0.12508285037E+03 0.  0.
          5    1    3    3  502    0  0.35113584581E+02  0.89850933995E+01  0.33236674438E+02  0.49354276950E+02  0.41800000000E+01 0. -1.
         -5    1    3    3    0  502 -0.58435632539E+02 -0.50416693322E+02 -0.34056547181E+02  0.84462340257E+02  0.41800000000E+01 0. -1.
        -11    1    1    2    0    0 -0.20401567376E+02 -0.17117484857E+02  0.48605359535E+01  0.27071332604E+02  0.00000000000E+00 0. -1.
         11    1    1    2    0    0  0.43723615334E+02  0.58549084780E+02  0.45343212328E+02  0.85998585864E+02  0.00000000000E+00 0.  1.
</event>
<event>
 7    1  0.2686828E-009  0.2406526E+03  0.7561462E-02  0.1119359E+00
          2   -1    0    0  501    0  0.00000000000E+00  0.00000000000E+00  0.98461281936E+03  0.98461281936E+03  0.00000000000E+00 0. -1.
         -2   -1    0    0    0  501 -0.00000000000E+00 -0.00000000000E+00 -0.10200663411E+03  0.10200663411E+03  0.00000000000E+00 0.  1.
         25    2    1    2    0    0  0.22487937168E+03  0.73553149115E+02  0.13951688086E+03  0.30181750041E+03  0.12509214986E+03 0.  0.
          5    1    3    3  502    0  0.19673856431E+03  0.45884051390E+02  0.15945949035E+03  0.25740281723E+03  0.41800000000E+01 0. -1.
         -5    1    3    3    0  502  0.28140807370E+02  0.27669097725E+02 -0.19942609488E+02  0.44414683175E+02  0.41800000000E+01 0. -1.
        -11    1    1    2    0    0 -0.80546687075E+02 -0.45548487573E+02  0.41633318740E+03  0.42649238733E+03  0.00000000000E+00 0. -1.
         11    1    1    2    0    0 -0.14433268460E+03 -0.28004661542E+02  0.32675611699E+03  0.35830956574E+03  0.00000000000E+00 0.  1.
</event>
<event>
 7    1  0.2686828E-009  0.1680372E+03  0.7561462E-02  0.1179910E+00
         -2   -1    0    0    0  501 -0.00000000000E+00  0.00000000000E+00  0.46237901985E+03  0.46237901985E+03  0.00000000000E+00 0. -1.
          2   -1    0    0  501    0  0.00000000000E+00 -0.00000000000E+00 -0.10174970682E+03  0.10174970682E+03  0.00000000000E+00 0.  1.
         25    2    1    2    0    0 -0.11384820783E+03  0.88456691150E+02  0.33943305924E+02  0.19387122815E+03  0.12509158426E+03 0.  0.
          5    1    3    3  502    0 -0.14085182333E+03  0.73317645931E+02  0.34829013105E+02  0.16261994310E+03  0.41800000000E+01 0. -1.
         -5    1    3    3    0  502  0.27003615500E+02  0.15139045220E+02 -0.88570718130E+00  0.31251285053E+02  0.41800000000E+01 0. -1.
        -11    1    1    2    0    0  0.53363705386E+02 -0.55969137504E+02  0.69193477160E+02  0.10376881365E+03  0.00000000000E+00 0.  1.
         11    1    1    2    0    0  0.60484502443E+02 -0.32487553647E+02  0.25749252995E+03  0.26648868486E+03  0.00000000000E+00 0. -1.
</event>
<event>
 7    1  0.2686828E-009  0.1486850E+03  0.7561462E-02  0.1202098E+00
          1   -1    0    0  501    0  0.00000000000E+00  0.00000000000E+00  0.15098508013E+03  0.15098508013E+03  0.00000000000E+00 0. -1.
         -1   -1    0    0    0  501 -0.00000000000E+00 -0.00000000000E+00 -0.19185889655E+03  0.19185889655E+03  0.00000000000E+00 0.  1.
         25    2    1    2    0    0 -0.93153195422E+02 -0.80048314415E+02  0.21732287591E+02  0.17664812214E+03  0.12508803409E+03 0.  0.
          5    1    3    3  502    0 -0.21167371907E+02 -0.76663493685E+02 -0.32848138780E+02  0.86149994305E+02  0.41800000000E+01 0. -1.
         -5    1    3    3    0  502 -0.71985823515E+02 -0.33848207301E+01  0.54580426371E+02  0.90498127833E+02  0.41800000000E+01 0. -1.
        -11    1    1    2    0    0 -0.35135523082E-01  0.46497837108E+02  0.42616427005E+01  0.46692737002E+02  0.00000000000E+00 0.  1.
         11    1    1    2    0    0  0.93188330945E+02  0.33550477307E+02 -0.66867746708E+02  0.11950311754E+03  0.00000000000E+00 0. -1.
</event>
<event>
 7    1  0.2686828E-009  0.2725873E+03  0.7561462E-02  0.1099808E+00
          2   -1    0    0  501    0  0.00000000000E+00  0.00000000000E+00  0.10438200425E+04  0.10438200425E+04  0.00000000000E+00 0. -1.
         -2   -1    0    0    0  501 -0.00000000000E+00 -0.00000000000E+00 -0.12062389182E+03  0.12062389182E+03  0.00000000000E+00 0.  1.
         25    2    1    2    0    0 -0.26654627175E+03 -0.28064070331E+02  0.13144044286E+03  0.32366381503E+03  0.12508864102E+03 0.  0.
          5    1    3    3  502    0 -0.62457759820E+02  0.12793410912E+02  0.91639052706E+02  0.11171316621E+03  0.41800000000E+01 0.  1.
         -5    1    3    3    0  502 -0.20408851193E+03 -0.40857481243E+02  0.39801390157E+02  0.21195064882E+03  0.41800000000E+01 0.  1.
        -11    1    1    2    0    0  0.17114746297E+03 -0.74467932706E+01  0.59611101360E+03  0.62023805860E+03  0.00000000000E+00 0. -1.
         11    1    1    2    0    0  0.95398808787E+02  0.35510863601E+02  0.19564469423E+03  0.22054206068E+03  0.00000000000E+00 0.  1.
</event>
<event>
 7    1  0.2686828E-009  0.1675872E+03  0.7561462E-02  0.1180388E+00
         -2   -1    0    0    0  501 -0.00000000000E+00  0.00000000000E+00  0.89378863711E+03  0.89378863711E+03  0.00000000000E+00 0.  1.
          2   -1    0    0  501    0  0.00000000000E+00 -0.00000000000E+00 -0.34331684982E+02  0.34331684982E+02  0.00000000000E+00 0. -1.
         25    2    1    2    0    0 -0.12596250527E+03  0.38801026298E+02  0.36392078055E+03  0.40676535566E+03  0.12509055791E+03 0.  0.
          5    1    3    3  502    0 -0.14196198328E+03  0.27541966646E+01  0.28335126527E+03  0.31696403933E+03  0.41800000000E+01 0. -1.
         -5    1    3    3    0  502  0.15999478014E+02  0.36046829633E+02  0.80569515273E+02  0.89801316330E+02  0.41800000000E+01 0. -1.
        -11    1    1    2    0    0  0.79988702530E+02  0.16373578307E+02  0.34549530613E+03  0.35501168031E+03  0.00000000000E+00 0.  1.
         11    1    1    2    0    0  0.45973802740E+02 -0.55174604604E+02  0.15004086545E+03  0.16634328612E+03  0.00000000000E+00 0. -1.
</event>
<event>
 7    1  0.2686828E-009  0.1044339E+03  0.7561462E-02  0.1271239E+00
          1   -1    0    0  501    0  0.00000000000E+00  0.00000000000E+00  0.54767361800E+03  0.54767361800E+03  0.00000000000E+00 0. -1.
         -1   -1    0    0    0  501 -0.00000000000E+00 -0.00000000000E+00 -0.30169525855E+02  0.30169525855E+02  0.00000000000E+00 0.  1.
         25    2    1    2    0    0 -0.69384569920E+02  0.76485816540E+01  0.27669939526E+03  0.31158140819E+03  0.12509076404E+03 0.  0.
          5    1    3    3  502    0 -0.78448587164E+02 -0.14165926375E+02  0.78577059863E+02  0.11201196827E+03  0.41800000000E+01 0.  1.
         -5    1    3    3    0  502  0.90640172445E+01  0.21814508029E+02  0.19812233539E+03  0.19956943992E+03  0.41800000000E+01 0.  1.
        -11    1    1    2    0    0  0.38928104757E+02 -0.43257255097E+02  0.81057560196E+02  0.99784345082E+02  0.00000000000E+00 0.  1.
         11    1    1    2    0    0  0.30456465163E+02  0.35608673443E+02  0.15974713670E+03  0.16647739059E+03  0.00000000000E+00 0. -1.
</event>
<event>
 7    1  0.4339557E-009  0.1260650E+03  0.7561462E-02  0.1233414E+00
         -1   -1    0    0    0  501 -0.00000000000E+00  0.00000000000E+00  0.28692105750E+02  0.28692105750E+02  0.00000000000E+00 0.  1.
          1   -1    0    0  501    0  0.00000000000E+00 -0.00000000000E+00 -0.77414265977E+03  0.77414265977E+03  0.00000000000E+00 0. -1.
         25    2    1    2    0    0  0.97106612525E+02  0.26932006213E+02 -0.44215524621E+03  0.47042905472E+03  0.12508879494E+03 0.  0.
          5    1    3    3  502    0 -0.16450007324E+02 -0.21685115090E+02 -0.16054483373E+03  0.16288941953E+03  0.41800000000E+01 0.  1.
         -5    1    3    3    0  502  0.11355661985E+03  0.48617121303E+02 -0.28161041247E+03  0.30753963518E+03  0.41800000000E+01 0.  1.
        -11    1    1    2    0    0 -0.52627314276E+02 -0.18060496887E+02 -0.27118545228E+03  0.27683454496E+03  0.00000000000E+00 0. -1.
         11    1    1    2    0    0 -0.44479298249E+02 -0.88715093264E+01 -0.32109855529E+02  0.55571165837E+02  0.00000000000E+00 0.  1.
</event>
<event>
 7    1  0.2686828E-009  0.1162537E+03  0.7561462E-02  0.1249408E+00
          1   -1    0    0  501    0  0.00000000000E+00  0.00000000000E+00  0.61292233759E+03  0.61292233759E+03  0.00000000000E+00 0. -1.
         -1   -1    0    0    0  501 -0.00000000000E+00 -0.00000000000E+00 -0.38622829153E+02  0.38622829153E+02  0.00000000000E+00 0.  1.
         25    2    1    2    0    0 -0.56760742250E+02 -0.51533696713E+02  0.47858917131E+03  0.50057228146E+03  0.12509000885E+03 0.  0.
          5    1    3    3  502    0  0.21557097978E+02  0.24649608377E+02  0.17024445246E+03  0.17341556349E+03  0.41800000000E+01 0.  1.
         -5    1    3    3    0  502 -0.78317840228E+02 -0.76183305090E+02  0.30834471885E+03  0.32715671797E+03  0.41800000000E+01 0.  1.
        -11    1    1    2    0    0 -0.64835223466E+01  0.16787018664E+02 -0.11779239514E+02  0.21507918104E+02  0.00000000000E+00 0.  1.
         11    1    1    2    0    0  0.63244264597E+02  0.34746678049E+02  0.10748957665E+03  0.12946496718E+03  0.00000000000E+00 0. -1.
</event>
<event>
 7    1  0.2686828E-009  0.8839804E+02  0.7561462E-02  0.1306778E+00
         -2   -1    0    0    0  501 -0.00000000000E+00  0.00000000000E+00  0.18936018576E+03  0.18936018576E+03  0.00000000000E+00 0.  1.
          2   -1    0    0  501    0  0.00000000000E+00 -0.00000000000E+00 -0.70557623546E+02  0.70557623546E+02  0.00000000000E+00 0. -1.
         25    2    1    2    0    0 -0.28127309373E+02  0.76117299386E+01  0.27930583240E+02  0.13143712131E+03  0.12508603204E+03 0.  0.
          5    1    3    3  502    0  0.44099115538E+02  0.28561368023E+02  0.63528130961E+01  0.53087798681E+02  0.41800000000E+01 0. -1.
         -5    1    3    3    0  502 -0.72226424911E+02 -0.20949638085E+02  0.21577770144E+02  0.78349322624E+02  0.41800000000E+01 0. -1.
        -11    1    1    2    0    0  0.24023570475E+02  0.13300201455E+02  0.10115703395E+03  0.10481780771E+03  0.00000000000E+00 0.  1.
         11    1    1    2    0    0  0.41037388979E+01 -0.20911931394E+02 -0.10285054973E+02  0.23662880285E+02  0.00000000000E+00 0. -1.
</event>
<event>
 7    1  0.2686828E-009  0.8753089E+02  0.7561462E-02  0.1308944E+00
         -1   -1    0    0    0  501 -0.00000000000E+00  0.00000000000E+00  0.14345742796E+03  0.14345742796E+03  0.00000000000E+00 0.  1.
          1   -1    0    0  501    0  0.00000000000E+00 -0.00000000000E+00 -0.11161504448E+03  0.11161504448E+03  0.00000000000E+00 0. -1.
         25    2    1    2    0    0  0.10336944636E+02  0.14886523910E+02 -0.44693563621E+02  0.13407314520E+03  0.12509849166E+03 0.  0.
          5    1    3    3  502    0  0.23291928800E+02 -0.41448215044E+02  0.15821543530E+02  0.50281826908E+02  0.41800000000E+01 0.  1.
         -5    1    3    3    0  502 -0.12954984164E+02  0.56334738954E+02 -0.60515107151E+02  0.83791318292E+02  0.41800000000E+01 0.  1.
        -11    1    1    2    0    0  0.22260764969E+02 -0.26648658572E+02  0.78962232350E+02  0.86259647567E+02  0.00000000000E+00 0.  1.
         11    1    1    2    0    0 -0.32597709605E+02  0.11762134662E+02 -0.24262852461E+01  0.34739679667E+02  0.00000000000E+00 0. -1.
</event>
<event>
 7    1  0.2686828E-009  0.1058725E+03  0.7561462E-02  0.1268410E+00
          2   -1    0    0  501    0  0.00000000000E+00  0.00000000000E+00  0.32063725100E+03  0.32063725100E+03  0.00000000000E+00 0. -1.
         -2   -1    0    0    0  501 -0.00000000000E+00 -0.00000000000E+00 -0.64004857104E+02  0.64004857104E+02  0.00000000000E+00 0.  1.
         25    2    1    2    0    0  0.16584957336E+02 -0.31824397897E+02  0.25585672009E+03  0.28704504487E+03  0.12507734990E+03 0.  0.
          5    1    3    3  502    0 -0.12354078002E+02  0.44682478983E+02  0.71537723135E+02  0.85347908016E+02  0.41800000000E+01 0. -1.
         -5    1    3    3    0  502  0.28939035338E+02 -0.76506876880E+02  0.18431899696E+03  0.20169713686E+03  0.41800000000E+01 0. -1.
        -11    1    1    2    0    0  0.29839672712E+02  0.70021867054E+01  0.25089470123E+02  0.39609572041E+02  0.00000000000E+00 0. -1.
         11    1    1    2    0    0 -0.46424630048E+02  0.24822211192E+02 -0.24313796318E+02  0.57987491194E+02  0.00000000000E+00 0.  1.
</event>
<event>
 7    1  0.2686828E-009  0.1530884E+03  0.7561462E-02  0.1196729E+00
         -1   -1    0    0    0  501 -0.00000000000E+00  0.00000000000E+00  0.10091358691E+03  0.10091358691E+03  0.00000000000E+00 0.  1.
          1   -1    0    0  501    0  0.00000000000E+00 -0.00000000000E+00 -0.34334155971E+03  0.34334155971E+03  0.00000000000E+00 0. -1.
         25    2    1    2    0    0 -0.77205740985E+02  0.12792179394E+03 -0.15467517528E+03  0.24879011388E+03  0.12508956436E+03 0.  0.
          5    1    3    3  502    0 -0.60904515236E+02  0.11558216802E+03 -0.17581725407E+03  0.21908394913E+03  0.41800000000E+01 0.  1.
         -5    1    3    3    0  502 -0.16301225748E+02  0.12339625922E+02  0.21142078784E+02  0.29706164749E+02  0.41800000000E+01 0.  1.
        -11    1    1    2    0    0  0.38474868112E+02 -0.28455298527E+02  0.12034990746E+02  0.49344305576E+02  0.00000000000E+00 0.  1.
         11    1    1    2    0    0  0.38730872873E+02 -0.99466495410E+02 -0.99787788265E+02  0.14612072717E+03  0.00000000000E+00 0. -1.
</event>
<event>
 7    1  0.2686828E-009  0.3584532E+03  0.7561462E-02  0.1059198E+00
          2   -1    0    0  501    0  0.00000000000E+00  0.00000000000E+00  0.92084130028E+03  0.92084130028E+03  0.00000000000E+00 0. -1.
         -2   -1    0    0    0  501 -0.00000000000E+00 -0.00000000000E+00 -0.15130528023E+03  0.15130528023E+03  0.00000000000E+00 0.  1.
         25    2    1    2    0    0 -0.35273560558E+03 -0.91509630664E+01  0.45582620830E+03  0.58985645360E+03  0.12508779363E+03 0.  0.
          5    1    3    3  502    0 -0.29956776706E+03 -0.37390462903E+02  0.31340245091E+03  0.43517520886E+03  0.41800000000E+01 0. -1.
         -5    1    3    3    0  502 -0.53167838524E+02  0.28239499837E+02  0.14242375739E+03  0.15468124474E+03  0.41800000000E+01 0. -1.
        -11    1    1    2    0    0  0.50008746906E+02  0.13792350588E+02  0.96871552737E+02  0.10988722142E+03  0.00000000000E+00 0.  1.
         11    1    1    2    0    0  0.30272685868E+03 -0.46413875211E+01  0.21683825902E+03  0.37240290549E+03  0.00000000000E+00 0. -1.
</event>
<event>
 7    1  0.2686828E-009  0.1447222E+03  0.7561462E-02  0.1207112E+00
         -2   -1    0    0    0  501 -0.00000000000E+00  0.00000000000E+00  0.26382253592E+02  0.26382253592E+02  0.00000000000E+00 0. -1.
          2   -1    0    0  501    0  0.00000000000E+00 -0.00000000000E+00 -0.87131650337E+03  0.87131650337E+03  0.00000000000E+00 0.  1.
         25    2    1    2    0    0 -0.98343168771E+02  0.33298932779E+02 -0.50213575112E+03  0.52779560140E+03  0.12509071324E+03 0.  0.
          5    1    3    3  502    0 -0.10151525362E+03 -0.24395458412E+02 -0.31222889678E+03  0.32924890508E+03  0.41800000000E+01 0.  1.
         -5    1    3    3    0  502  0.31720848481E+01  0.57694391191E+02 -0.18990685434E+03  0.19854669633E+03  0.41800000000E+01 0.  1.
        -11    1    1    2    0    0  0.33832486447E+02 -0.50013487999E+02 -0.23934177214E+03  0.24684098123E+03  0.00000000000E+00 0.  1.
         11    1    1    2    0    0  0.64510682324E+02  0.16714555220E+02 -0.10345672651E+03  0.12306217433E+03  0.00000000000E+00 0. -1.
</event>
<event>
 7    1  0.2686828E-009  0.1786667E+03  0.7561462E-02  0.1169100E+00
          2   -1    0    0  501    0  0.00000000000E+00  0.00000000000E+00  0.59543001457E+03  0.59543001457E+03  0.00000000000E+00 0. -1.
         -2   -1    0    0    0  501 -0.00000000000E+00 -0.00000000000E+00 -0.56581825077E+02  0.56581825077E+02  0.00000000000E+00 0.  1.
         25    2    1    2    0    0 -0.13739988337E+03 -0.53797279488E+02  0.29539125259E+03  0.35309557813E+03  0.12509044711E+03 0.  0.
          5    1    3    3  502    0 -0.33848001611E+02  0.36044548875E+02  0.12413454215E+03  0.13368527844E+03  0.41800000000E+01 0. -1.
         -5    1    3    3    0  502 -0.10355188176E+03 -0.89841828363E+02  0.17125671043E+03  0.21941029969E+03  0.41800000000E+01 0. -1.
        -11    1    1    2    0    0  0.90586082951E+02  0.76462106423E+02  0.19270047195E+03  0.22624271045E+03  0.00000000000E+00 0.  1.
         11    1    1    2    0    0  0.46813800421E+02 -0.22664826935E+02  0.50756464961E+02  0.72673551070E+02  0.00000000000E+00 0. -1.
</event>
<event>
 7    1  0.2686828E-009  0.8223148E+02  0.7561462E-02  0.1322836E+00
          3   -1    0    0  501    0  0.00000000000E+00  0.00000000000E+00  0.20857610005E+03  0.20857610005E+03  0.00000000000E+00 0. -1.
         -3   -1    0    0    0  501 -0.00000000000E+00 -0.00000000000E+00 -0.75683963585E+02  0.75683963585E+02  0.00000000000E+00 0.  1.
         25    2    1    2    0    0  0.13820364628E+02 -0.30876267345E+01  0.14471004026E+03  0.19181016043E+03  0.12509838518E+03 0.  0.
          5    1    3    3  502    0 -0.36099713397E+02 -0.10034651012E+02 -0.85418033461E+00  0.37710549615E+02  0.41800000000E+01 0. -1.
         -5    1    3    3    0  502  0.49920078025E+02  0.69470242772E+01  0.14556422059E+03  0.15409961081E+03  0.41800000000E+01 0. -1.
        -11    1    1    2    0    0  0.24477913268E+02 -0.19877217593E+02 -0.30660861500E+02  0.43981364748E+02  0.00000000000E+00 0.  1.
         11    1    1    2    0    0 -0.38298277896E+02  0.22964844327E+02  0.18842957703E+02  0.48468538453E+02  0.00000000000E+00 0. -1.
</event>
<event>
 7    1  0.2686828E-009  0.1701403E+03  0.7561462E-02  0.1177702E+00
          1   -1    0    0  501    0  0.00000000000E+00  0.00000000000E+00  0.31020774349E+03  0.31020774349E+03  0.00000000000E+00 0. -1.
         -1   -1    0    0    0  501 -0.00000000000E+00 -0.00000000000E+00 -0.11173091440E+03  0.11173091440E+03  0.00000000000E+00 0.  1.
         25    2    1    2    0    0 -0.82799273623E+02  0.12436599491E+03  0.12900053219E+03  0.23369001380E+03  0.12508902766E+03 0.  0.
          5    1    3    3  502    0 -0.54334556956E+02  0.33331502324E+01  0.86377670557E+02  0.10218575410E+03  0.41800000000E+01 0. -1.
         -5    1    3    3    0  502 -0.28464716668E+02  0.12103284467E+03  0.42622861634E+02  0.13150425970E+03  0.41800000000E+01 0. -1.
        -11    1    1    2    0    0  0.16314823231E+02 -0.79296792329E+02 -0.16320352158E+01  0.80974182736E+02  0.00000000000E+00 0.  1.
         11    1    1    2    0    0  0.66484450393E+02 -0.45069202577E+02  0.71108332112E+02  0.10727446136E+03  0.00000000000E+00 0. -1.
</event>
<event>
 7    1  0.2686828E-009  0.1103941E+03  0.7561462E-02  0.1259842E+00
          2   -1    0    0  501    0  0.00000000000E+00  0.00000000000E+00  0.14480089522E+03  0.14480089522E+03  0.00000000000E+00 0. -1.
         -2   -1    0    0    0  501 -0.00000000000E+00 -0.00000000000E+00 -0.14855520426E+03  0.14855520426E+03  0.00000000000E+00 0.  1.
         25    2    1    2    0    0  0.68401580368E+02  0.14718059066E+02  0.67667734814E+02  0.15849793616E+03  0.12508907216E+03 0.  0.
          5    1    3    3  502    0  0.12596260694E+02  0.42878672265E+02 -0.21302537311E+02  0.49684170664E+02  0.41800000000E+01 0. -1.
         -5    1    3    3    0  502  0.55805319674E+02 -0.28160613199E+02  0.88970272126E+02  0.10881376550E+03  0.41800000000E+01 0. -1.
        -11    1    1    2    0    0 -0.78921272795E+02 -0.38084334128E+02 -0.62846131517E+02  0.10783607955E+03  0.00000000000E+00 0.  1.
         11    1    1    2    0    0  0.10519692427E+02  0.23366275062E+02 -0.85759123422E+01  0.27022083775E+02  0.00000000000E+00 0. -1.
</event>
<event>
 7    1  0.2686828E-009  0.8702613E+02  0.7561462E-02  0.1310217E+00
         -2   -1    0    0    0  501 -0.00000000000E+00  0.00000000000E+00  0.38204670470E+02  0.38204670470E+02  0.00000000000E+00 0.  1.
          2   -1    0    0  501    0  0.00000000000E+00 -0.00000000000E+00 -0.51644371710E+03  0.51644371710E+03  0.00000000000E+00 0. -1.
         25    2    1    2    0    0 -0.52220562238E+02 -0.22679330297E+02 -0.39241691944E+03  0.41578848815E+03  0.12509072338E+03 0.  0.
          5    1    3    3  502    0 -0.83204476820E+01  0.12132647098E+02 -0.33537607746E+03  0.33572461439E+03  0.41800000000E+01 0. -1.
         -5    1    3    3    0  502 -0.43900114556E+02 -0.34811977395E+02 -0.57040841982E+02  0.80063873764E+02  0.41800000000E+01 0. -1.
        -11    1    1    2    0    0 -0.10114991413E+02  0.37216706619E+02 -0.56614777365E+02  0.68502768696E+02  0.00000000000E+00 0. -1.
         11    1    1    2    0    0  0.62335553651E+02 -0.14537376322E+02 -0.29207349823E+02  0.70357130719E+02  0.00000000000E+00 0.  1.
</event>
<event>
 7    1  0.2686828E-009  0.7568378E+02  0.7561462E-02  0.1341767E+00
          1   -1    0    0  501    0  0.00000000000E+00  0.00000000000E+00  0.17221479090E+03  0.17221479090E+03  0.00000000000E+00 0. -1.
         -1   -1    0    0    0  501 -0.00000000000E+00 -0.00000000000E+00 -0.95864310853E+02  0.95864310853E+02  0.00000000000E+00 0.  1.
         25    2    1    2    0    0  0.58135036316E+02 -0.23580849928E+02  0.70701720567E+02  0.15678579502E+03  0.12508922135E+03 0.  0.
          5    1    3    3  502    0  0.47485950039E+02 -0.94328465726E+01 -0.28227414406E+02  0.56197449849E+02  0.41800000000E+01 0.  1.
         -5    1    3    3    0  502  0.10649086277E+02 -0.14148003355E+02  0.98929134973E+02  0.10058834517E+03  0.41800000000E+01 0.  1.
        -11    1    1    2    0    0 -0.69589980978E+02  0.22178291468E+02 -0.26060992448E+02  0.77548806518E+02  0.00000000000E+00 0.  1.
         11    1    1    2    0    0  0.11454944662E+02  0.14025584600E+01  0.31709751931E+02  0.33744500218E+02  0.00000000000E+00 0. -1.
</event>
<event>
 7    1  0.2686828E-009  0.9247269E+02  0.7561462E-02  0.1296972E+00
         -1   -1    0    0    0  501 -0.00000000000E+00  0.00000000000E+00  0.50011718171E+02  0.50011718171E+02  0.00000000000E+00 0.  1.
          1   -1    0    0  501    0  0.00000000000E+00 -0.00000000000E+00 -0.38575333220E+03  0.38575333220E+03  0.00000000000E+00 0. -1.
         25    2    1    2    0    0  0.32267476742E+02 -0.20012433546E+02 -0.30403000591E+03  0.33093947533E+03  0.12507999155E+03 0.  0.
          5    1    3    3  502    0  0.71384392233E+02 -0.44098112417E+02 -0.21075077952E+03  0.22687824585E+03  0.41800000000E+01 0.  1.
         -5    1    3    3    0  502 -0.39116915491E+02  0.24085678870E+02 -0.93279226395E+02  0.10406122948E+03  0.41800000000E+01 0.  1.
        -11    1    1    2    0    0 -0.32971267638E+02 -0.17648390001E+01  0.26712423025E+02  0.42470845179E+02  0.00000000000E+00 0.  1.
         11    1    1    2    0    0  0.70379089629E+00  0.21777272546E+02 -0.58424031137E+02  0.62354729857E+02  0.00000000000E+00 0. -1.
</event>
<event>
 7    1  0.2686828E-009  0.1232763E+03  0.7561462E-02  0.1237788E+00
          2   -1    0    0  501    0  0.00000000000E+00  0.00000000000E+00  0.13633624853E+04  0.13633624853E+04  0.00000000000E+00 0. -1.
         -2   -1    0    0    0  501 -0.00000000000E+00 -0.00000000000E+00 -0.13001569936E+02  0.13001569936E+02  0.00000000000E+00 0.  1.
         25    2    1    2    0    0  0.63223577751E+02  0.41833878890E+02  0.83494190272E+03  0.84765722541E+03  0.12508995431E+03 0.  0.
          5    1    3    3  502    0  0.37992039246E+02  0.77192161104E+02  0.71217553308E+03  0.71736565788E+03  0.41800000000E+01 0. -1.
         -5    1    3    3    0  502  0.25231538505E+02 -0.35358282214E+02  0.12276636964E+03  0.13029156754E+03  0.41800000000E+01 0. -1.
        -11    1    1    2    0    0 -0.21927978519E+02 -0.65574885531E+02  0.27038970246E+03  0.27909047467E+03  0.00000000000E+00 0. -1.
         11    1    1    2    0    0 -0.41295599231E+02  0.23741006641E+02  0.24502931019E+03  0.24961635516E+03  0.00000000000E+00 0.  1.
</event>
<event>
 7    1  0.2686828E-009  0.1443901E+03  0.7561462E-02  0.1207541E+00
         -1   -1    0    0    0  501 -0.00000000000E+00  0.00000000000E+00  0.68177834814E+02  0.68177834814E+02  0.00000000000E+00 0.  1.
          1   -1    0    0  501    0  0.00000000000E+00 -0.00000000000E+00 -0.37612044019E+03  0.37612044019E+03  0.00000000000E+00 0. -1.
         25    2    1    2    0    0  0.51820858447E+00  0.11744028565E+03 -0.17910029427E+03  0.24802567163E+03  0.12508928469E+03 0.  0.
          5    1    3    3  502    0 -0.23572802371E+01 -0.24156184863E+02 -0.80418973467E+01  0.25907963065E+02  0.41800000000E+01 0. -1.
         -5    1    3    3    0  502  0.28754888216E+01  0.14159647052E+03 -0.17105839693E+03  0.22211770856E+03  0.41800000000E+01 0. -1.
        -11    1    1    2    0    0 -0.16858707562E+02 -0.77469646280E+02 -0.13090447145E+03  0.15304163734E+03  0.00000000000E+00 0. -1.
         11    1    1    2    0    0  0.16340498977E+02 -0.39970639374E+02  0.20621603440E+01  0.43230966032E+02  0.00000000000E+00 0.  1.
</event>
<event>
 7    1  0.2686828E-009  0.1665415E+03  0.7561462E-02  0.1181503E+00
          3   -1    0    0  501    0  0.00000000000E+00  0.00000000000E+00  0.77079063829E+02  0.77079063829E+02  0.00000000000E+00 0. -1.
         -3   -1    0    0    0  501 -0.00000000000E+00 -0.00000000000E+00 -0.53719227900E+03  0.53719227900E+03  0.00000000000E+00 0.  1.
         25    2    1    2    0    0  0.12039758242E+03 -0.61667402673E+02 -0.89151749349E+02  0.20467923196E+03  0.12508839745E+03 0.  0.
          5    1    3    3  502    0  0.87384512313E+02 -0.97013120005E+02 -0.85224439507E+02  0.15597524142E+03  0.41800000000E+01 0.  1.
         -5    1    3    3    0  502  0.33013070112E+02  0.35345717333E+02 -0.39273098420E+01  0.48703990541E+02  0.41800000000E+01 0.  1.
        -11    1    1    2    0    0 -0.44977748362E+02  0.64263466266E+02 -0.28312492018E+03  0.29378991026E+03  0.00000000000E+00 0.  1.
         11    1    1    2    0    0 -0.75419834063E+02 -0.25960635936E+01 -0.87836545644E+02  0.11580220061E+03  0.00000000000E+00 0. -1.
</event>
<event>
 7    1  0.2686828E-009  0.1522162E+03  0.7561462E-02  0.1197776E+00
          1   -1    0    0  501    0  0.00000000000E+00  0.00000000000E+00  0.94796222700E+03  0.94796222700E+03  0.00000000000E+00 0. -1.
         -1   -1    0    0    0  501 -0.00000000000E+00 -0.00000000000E+00 -0.28177615223E+02  0.28177615223E+02  0.00000000000E+00 0.  1.
         25    2    1    2    0    0 -0.36727595124E+02 -0.11445369008E+03  0.41309141512E+03  0.44803825018E+03  0.12508074579E+03 0.  0.
          5    1    3    3  502    0 -0.52744400469E+02 -0.12954024466E+03  0.39560709461E+03  0.41962494263E+03  0.41800000000E+01 0.  1.
         -5    1    3    3    0  502  0.16016805345E+02  0.15086554585E+02  0.17484320503E+02  0.28413307554E+02  0.41800000000E+01 0.  1.
        -11    1    1    2    0    0  0.42296782286E+02  0.18792717532E+02  0.24688216463E+03  0.25118317467E+03  0.00000000000E+00 0. -1.
         11    1    1    2    0    0 -0.55691871624E+01  0.95660972547E+02  0.25981103203E+03  0.27691841737E+03  0.00000000000E+00 0.  1.
</event>
<event>
 7    1  0.2686828E-009  0.9122890E+02  0.7561462E-02  0.1299903E+00
         -2   -1    0    0    0  501 -0.00000000000E+00  0.00000000000E+00  0.66511353664E+02  0.66511353664E+02  0.00000000000E+00 0.  1.
          2   -1    0    0  501    0  0.00000000000E+00 -0.00000000000E+00 -0.20031222892E+03  0.20031222892E+03  0.00000000000E+00 0. -1.
         25    2    1    2    0    0 -0.28972263213E+02  0.28515458670E+02 -0.86674579811E+02  0.15751890617E+03  0.12508876686E+03 0.  0.
          5    1    3    3  502    0 -0.34489723243E+02 -0.45020657400E+02 -0.46373107978E+02  0.73378049481E+02  0.41800000000E+01 0. -1.
         -5    1    3    3    0  502  0.55174600300E+01  0.73536116071E+02 -0.40301471833E+02  0.84140856686E+02  0.41800000000E+01 0. -1.
        -11    1    1    2    0    0  0.25462842192E+01 -0.24931934034E+02 -0.69886795794E+02  0.74244522521E+02  0.00000000000E+00 0. -1.
         11    1    1    2    0    0  0.26425978994E+02 -0.35835246359E+01  0.22760500353E+02  0.35060153892E+02  0.00000000000E+00 0.  1.
</event>
<event>
 7    1  0.2686828E-009  0.1130845E+03  0.7561462E-02  0.1254962E+00
         -2   -1    0    0    0  501 -0.00000000000E+00  0.00000000000E+00  0.27527259152E+02  0.27527259152E+02  0.00000000000E+00 0.  1.
          2   -1    0    0  501    0  0.00000000000E+00 -0.00000000000E+00 -0.70797609625E+03  0.70797609625E+03  0.00000000000E+00 0. -1.
         25    2    1    2    0    0  0.79068088808E+02 -0.41912900562E+02 -0.40738555132E+03  0.43545247323E+03  0.12508962835E+03 0.  0.
          5    1    3    3  502    0 -0.18077474265E+02 -0.15922646090E+02 -0.23163861549E+03  0.23292540935E+03  0.41800000000E+01 0. -1.
         -5    1    3    3    0  502  0.97145563073E+02 -0.25990254472E+02 -0.17574693582E+03  0.20252706388E+03  0.41800000000E+01 0. -1.
        -11    1    1    2    0    0  0.49051438515E+01  0.10181580605E+02  0.12992725192E+01  0.11375989139E+02  0.00000000000E+00 0.  1.
         11    1    1    2    0    0 -0.83973232660E+02  0.31731319958E+02 -0.27436255830E+03  0.28867489303E+03  0.00000000000E+00 0. -1.
</event>
<event>
 7    1  0.2686828E-009  0.1178961E+03  0.7561462E-02  0.1246609E+00
         -3   -1    0    0    0  501 -0.00000000000E+00  0.00000000000E+00  0.40511213670E+02  0.40511213670E+02  0.00000000000E+00 0.  1.
          3   -1    0    0  501    0  0.00000000000E+00 -0.00000000000E+00 -0.36500327701E+03  0.36500327701E+03  0.00000000000E+00 0. -1.
         25    2    1    2    0    0 -0.10665961982E+02  0.51587642791E+02 -0.15215089395E+03  0.20388257893E+03  0.12507263422E+03 0.  0.
          5    1    3    3  502    0  0.46402077750E+02  0.57124485963E+02 -0.58991320487E+02  0.94412965258E+02  0.41800000000E+01 0. -1.
         -5    1    3    3    0  502 -0.57068039733E+02 -0.55368431716E+01 -0.93159573460E+02  0.10946961368E+03  0.41800000000E+01 0. -1.
        -11    1    1    2    0    0  0.46691952183E+02 -0.69164413353E+01 -0.74077800924E+02  0.87837896999E+02  0.00000000000E+00 0.  1.
         11    1    1    2    0    0 -0.36025990201E+02 -0.44671201456E+02 -0.98263368474E+02  0.11379401475E+03  0.00000000000E+00 0. -1.
</event>
<event>
 7    1  0.2686828E-009  0.1834588E+03  0.7561462E-02  0.1164497E+00
          2   -1    0    0  501    0  0.00000000000E+00  0.00000000000E+00  0.27932856780E+03  0.27932856780E+03  0.00000000000E+00 0. -1.
         -2   -1    0    0    0  501 -0.00000000000E+00 -0.00000000000E+00 -0.12690755078E+03  0.12690755078E+03  0.00000000000E+00 0.  1.
         25    2    1    2    0    0 -0.14068754142E+03 -0.54297618396E+02  0.51299899828E+02  0.20252771692E+03  0.12507829838E+03 0.  0.
          5    1    3    3  502    0 -0.70241158938E+02  0.37216353243E+02  0.29707962138E+02  0.84964185231E+02  0.41800000000E+01 0.  1.
         -5    1    3    3    0  502 -0.70446382486E+02 -0.91513971640E+02  0.21591937689E+02  0.11756353169E+03  0.41800000000E+01 0.  1.
        -11    1    1    2    0    0  0.43047269608E+02  0.60116165273E+02  0.67958775478E+02  0.10042617145E+03  0.00000000000E+00 0.  1.
         11    1    1    2    0    0  0.97640271816E+02 -0.58185468762E+01  0.33162341714E+02  0.10328223020E+03  0.00000000000E+00 0. -1.
</event>
<event>
 7    1  0.2686828E-009  0.1454672E+03  0.7561462E-02  0.1206156E+00
          2   -1    0    0  501    0  0.00000000000E+00  0.00000000000E+00  0.11309462699E+04  0.11309462699E+04  0.00000000000E+00 0.  1.
         -2   -1    0    0    0  501 -0.00000000000E+00 -0.00000000000E+00 -0.20362154354E+02  0.20362154354E+02  0.00000000000E+00 0. -1.
         25    2    1    2    0    0 -0.78452617216E+02 -0.63581150953E+02  0.49989919162E+03  0.52511341502E+03  0.12509005135E+03 0.  0.
          5    1    3    3  502    0 -0.55802934937E+02 -0.97378872000E+02  0.28451665627E+03  0.30588202359E+03  0.41800000000E+01 0.  1.
         -5    1    3    3    0  502 -0.22649682279E+02  0.33797721048E+02  0.21538253535E+03  0.21923139143E+03  0.41800000000E+01 0.  1.
        -11    1    1    2    0    0  0.90822066590E+02  0.20778815351E+02  0.38075507913E+03  0.39198831262E+03  0.00000000000E+00 0.  1.
         11    1    1    2    0    0 -0.12369449374E+02  0.42802335602E+02  0.22992984480E+03  0.23420669661E+03  0.00000000000E+00 0. -1.
</event>
<event>
 7    1  0.2686828E-009  0.7302129E+02  0.7561462E-02  0.1350110E+00
          1   -1    0    0  501    0  0.00000000000E+00  0.00000000000E+00  0.36205890786E+02  0.36205890786E+02  0.00000000000E+00 0. -1.
         -1   -1    0    0    0  501 -0.00000000000E+00 -0.00000000000E+00 -0.53746166862E+03  0.53746166862E+03  0.00000000000E+00 0.  1.
         25    2    1    2    0    0  0.65957928078E+01 -0.14261302539E+02 -0.45378846335E+03  0.47097660136E+03  0.12509236717E+03 0.  0.
          5    1    3    3  502    0  0.24342110485E+01  0.27787053927E+02 -0.18744553741E+02  0.33865564285E+02  0.41800000000E+01 0. -1.
         -5    1    3    3    0  502  0.41615817593E+01 -0.42048356465E+02 -0.43504390961E+03  0.43711103708E+03  0.41800000000E+01 0. -1.
        -11    1    1    2    0    0 -0.28483203938E+02 -0.19942225141E+02 -0.51224140162E+02  0.61910401270E+02  0.00000000000E+00 0.  1.
         11    1    1    2    0    0  0.21887411130E+02  0.34203527680E+02  0.37568256798E+01  0.40780556775E+02  0.00000000000E+00 0. -1.
</event>
<event>
 7    1  0.2686828E-009  0.1340973E+03  0.7561462E-02  0.1221500E+00
         -1   -1    0    0    0  501 -0.00000000000E+00  0.00000000000E+00  0.64766538554E+02  0.64766538554E+02  0.00000000000E+00 0.  1.
          1   -1    0    0  501    0  0.00000000000E+00 -0.00000000000E+00 -0.67580590285E+03  0.67580590285E+03  0.00000000000E+00 0. -1.
         25    2    1    2    0    0 -0.51453184291E+02  0.89067923881E+02 -0.57633789136E+03  0.59865876672E+03  0.12508568551E+03 0.  0.
          5    1    3    3  502    0 -0.61247059517E+02 -0.10348068188E+01 -0.13819463181E+03  0.15122004426E+03  0.41800000000E+01 0. -1.
         -5    1    3    3    0  502  0.97938752260E+01  0.90102730699E+02 -0.43814325955E+03  0.44743872246E+03  0.41800000000E+01 0. -1.
        -11    1    1    2    0    0  0.62173829155E+02 -0.83139032503E+02  0.13636787639E+01  0.10382457983E+03  0.00000000000E+00 0.  1.
         11    1    1    2    0    0 -0.10720644864E+02 -0.59288913771E+01 -0.36065151705E+02  0.38089094853E+02  0.00000000000E+00 0. -1.
</event>
<event>
 7    1  0.3307499E-009  0.1086568E+03  0.7561462E-02  0.1263078E+00
         -2   -1    0    0    0  501 -0.00000000000E+00  0.00000000000E+00  0.24095635883E+02  0.24095635883E+02  0.00000000000E+00 0.  1.
          2   -1    0    0  501    0  0.00000000000E+00 -0.00000000000E+00 -0.61577158512E+03  0.61577158512E+03  0.00000000000E+00 0. -1.
         25    2    1    2    0    0 -0.27023347406E+02 -0.48290468180E+02 -0.33509282290E+03  0.36193403858E+03  0.12508724036E+03 0.  0.
          5    1    3    3  502    0 -0.65621323754E+02 -0.23310989980E+02 -0.97446273598E+02  0.11984493741E+03  0.41800000000E+01 0.  1.
         -5    1    3    3    0  502  0.38597976348E+02 -0.24979478200E+02 -0.23764654930E+03  0.24208910116E+03  0.41800000000E+01 0.  1.
        -11    1    1    2    0    0 -0.25999890169E+02 -0.46996458900E+01 -0.33956980597E+02  0.43025079797E+02  0.00000000000E+00 0.  1.
         11    1    1    2    0    0  0.53023237575E+02  0.52990114070E+02 -0.22262614575E+03  0.23490810263E+03  0.00000000000E+00 0. -1.
</event>
<event>
 7    1  0.2686828E-009  0.1122187E+03  0.7561462E-02  0.1256515E+00
         -1   -1    0    0    0  501 -0.00000000000E+00  0.00000000000E+00  0.73262031168E+02  0.73262031168E+02  0.00000000000E+00 0. -1.
          1   -1    0    0  501    0  0.00000000000E+00 -0.00000000000E+00 -0.27011243055E+03  0.27011243055E+03  0.00000000000E+00 0.  1.
         25    2    1    2    0    0  0.58887601806E+02  0.61089117140E+02 -0.73069208490E+02  0.16789018799E+03  0.12509346951E+03 0.  0.
          5    1    3    3  502    0  0.83813370226E+02  0.50076354612E+02 -0.89943604668E+01  0.98136095500E+02  0.41800000000E+01 0. -1.
         -5    1    3    3    0  502 -0.24925768420E+02  0.11012762528E+02 -0.64074848023E+02  0.69754092489E+02  0.41800000000E+01 0. -1.
        -11    1    1    2    0    0 -0.63643741259E+02 -0.35012941253E+02 -0.12939524296E+03  0.14838989439E+03  0.00000000000E+00 0.  1.
         11    1    1    2    0    0  0.47561394537E+01 -0.26076175886E+02  0.56140520625E+01  0.27094379342E+02  0.00000000000E+00 0. -1.
</event>
<event>
 7    1  0.2686828E-009  0.6404971E+02  0.7561462E-02  0.1381582E+00
          2   -1    0    0  501    0  0.00000000000E+00  0.00000000000E+00  0.13780156482E+03  0.13780156482E+03  0.00000000000E+00 0. -1.
         -2   -1    0    0    0  501 -0.00000000000E+00 -0.00000000000E+00 -0.63603115402E+02  0.63603115402E+02  0.00000000000E+00 0.  1.
         25    2    1    2    0    0  0.12731606476E+02  0.21847559848E+02  0.31109051776E+02  0.13135873312E+03  0.12509170232E+03 0.  0.
          5    1    3    3  502    0  0.29555038793E+02 -0.29047323602E+02 -0.28969996007E+02  0.50734410366E+02  0.41800000000E+01 0. -1.
         -5    1    3    3    0  502 -0.16823432317E+02  0.50894883451E+02  0.60079047782E+02  0.80624322750E+02  0.41800000000E+01 0. -1.
        -11    1    1    2    0    0  0.39303063479E+01 -0.13474362885E+02 -0.76522357175E+01  0.15986321485E+02  0.00000000000E+00 0.  1.
         11    1    1    2    0    0 -0.16661912824E+02 -0.83731969636E+01  0.50741633358E+02  0.54059625620E+02  0.00000000000E+00 0. -1.
</event>
<event>
 7    1  0.2686828E-009  0.1081740E+03  0.7561462E-02  0.1263989E+00
         -1   -1    0    0    0  501 -0.00000000000E+00  0.00000000000E+00  0.78778927167E+02  0.78778927167E+02  0.00000000000E+00 0.  1.
          1   -1    0    0  501    0  0.00000000000E+00 -0.00000000000E+00 -0.18854311414E+03  0.18854311414E+03  0.00000000000E+00 0. -1.
         25    2    1    2    0    0 -0.85362212914E+00 -0.34934903146E+02 -0.12718428620E+02  0.13049844518E+03  0.12508760786E+03 0.  0.
          5    1    3    3  502    0  0.36675902909E+02 -0.65067617352E+02  0.12746656409E+02  0.75887194780E+02  0.41800000000E+01 0. -1.
         -5    1    3    3    0  502 -0.37529525038E+02  0.30132714205E+02 -0.25465085028E+02  0.54611250402E+02  0.41800000000E+01 0. -1.
        -11    1    1    2    0    0 -0.61504037956E+00 -0.29135049220E+02 -0.15184671065E+02  0.32860365230E+02  0.00000000000E+00 0. -1.
         11    1    1    2    0    0  0.14686625087E+01  0.64069952367E+02 -0.81861087284E+02  0.10396323089E+03  0.00000000000E+00 0.  1.
</event>
<event>
 7    1  0.2686828E-009  0.1242545E+03  0.7561462E-02  0.1236239E+00
          2   -1    0    0  501    0  0.00000000000E+00  0.00000000000E+00  0.70002459006E+02  0.70002459006E+02  0.00000000000E+00 0. -1.
         -2   -1    0    0    0  501 -0.00000000000E+00 -0.00000000000E+00 -0.31193356390E+03  0.31193356390E+03  0.00000000000E+00 0.  1.
         25    2    1    2    0    0 -0.89774416092E+02  0.24404009413E+02 -0.17142711143E+03  0.23171092629E+03  0.12509075654E+03 0.  0.
          5    1    3    3  502    0 -0.31247064451E+02  0.43968524472E+02 -0.52030178775E+01  0.54352129453E+02  0.41800000000E+01 0.  1.
         -5    1    3    3    0  502 -0.58527351641E+02 -0.19564515059E+02 -0.16622409355E+03  0.17735879684E+03  0.41800000000E+01 0.  1.
        -11    1    1    2    0    0  0.41979909384E+02  0.36157700387E+02 -0.32333596621E+02  0.64149462661E+02  0.00000000000E+00 0.  1.
         11    1    1    2    0    0  0.47794506708E+02 -0.60561709801E+02 -0.38170396849E+02  0.86075633956E+02  0.00000000000E+00 0. -1.
</event>
<event>
 7    1  0.2686828E-009  0.9882416E+02  0.7561462E-02  0.1282788E+00
          1   -1    0    0  501    0  0.00000000000E+00  0.00000000000E+00  0.21430183282E+03  0.21430183282E+03  0.00000000000E+00 0.  1.
         -1   -1    0    0    0  501 -0.00000000000E+00 -0.00000000000E+00 -0.78635648654E+02  0.78635648654E+02  0.00000000000E+00 0. -1.
         25    2    1    2    0    0 -0.15587817348E+02 -0.56679811874E+02  0.11969107016E+03  0.18283459569E+03  0.12508779310E+03 0.  0.
          5    1    3    3  502    0 -0.62095156986E+02 -0.40182224378E+02  0.10960907910E+03  0.13229528449E+03  0.41800000000E+01 0.  1.
         -5    1    3    3    0  502  0.46507339638E+02 -0.16497587495E+02  0.10081991064E+02  0.50539311207E+02  0.41800000000E+01 0.  1.
        -11    1    1    2    0    0  0.78092774778E+01 -0.66388659236E+01  0.40484628294E+02  0.41761998079E+02  0.00000000000E+00 0.  1.
         11    1    1    2    0    0  0.77785398700E+01  0.63318677797E+02 -0.24509514292E+02  0.68340887698E+02  0.00000000000E+00 0. -1.
</event>
<event>
 7    1  0.2686828E-009  0.9806664E+02  0.7561462E-02  0.1284415E+00
         -2   -1    0    0    0  501 -0.00000000000E+00  0.00000000000E+00  0.48304563710E+02  0.48304563710E+02  0.00000000000E+00 0.  1.
          2   -1    0    0  501    0  0.00000000000E+00 -0.00000000000E+00 -0.38173577280E+03  0.38173577280E+03  0.00000000000E+00 0. -1.
         25    2    1    2    0    0  0.19901189489E+02  0.72371487106E+02 -0.23526988996E+03  0.27682633673E+03  0.12508880885E+03 0.  0.
          5    1    3    3  502    0 -0.15943641643E+02  0.17800251211E+02 -0.20195747994E+03  0.20340930351E+03  0.41800000000E+01 0. -1.
         -5    1    3    3    0  502  0.35844831132E+02  0.54571235895E+02 -0.33312410019E+02  0.73417033223E+02  0.41800000000E+01 0. -1.
        -11    1    1    2    0    0 -0.45362695714E+02 -0.22911092860E+02 -0.14683979206E+02  0.52899069782E+02  0.00000000000E+00 0.  1.
         11    1    1    2    0    0  0.25461506225E+02 -0.49460394246E+02 -0.83477339923E+02  0.10031492999E+03  0.00000000000E+00 0. -1.
</event>
<event>
 7    1  0.2686828E-009  0.3630247E+03  0.7561462E-02  0.1057393E+00
         -1   -1    0    0    0  501 -0.00000000000E+00  0.00000000000E+00  0.13448830115E+03  0.13448830115E+03  0.00000000000E+00 0.  1.
          1   -1    0    0  501    0  0.00000000000E+00 -0.00000000000E+00 -0.10449005006E+04  0.10449005006E+04  0.00000000000E+00 0. -1.
         25    2    1    2    0    0 -0.18890613167E+03 -0.29203930254E+03 -0.59989718681E+03  0.70462558237E+03  0.12509234900E+03 0.  0.
          5    1    3    3  502    0 -0.19676341906E+03 -0.21745429226E+03 -0.49947467466E+03  0.57921898737E+03  0.41800000000E+01 0.  1.
         -5    1    3    3    0  502  0.78572873879E+01 -0.74585010276E+02 -0.10042251215E+03  0.12540659500E+03  0.41800000000E+01 0.  1.
        -11    1    1    2    0    0  0.16565221334E+03  0.18594196084E+03 -0.19579394339E+03  0.31678121291E+03  0.00000000000E+00 0. -1.
         11    1    1    2    0    0  0.23253918335E+02  0.10609734169E+03 -0.11472106923E+03  0.15798200644E+03  0.00000000000E+00 0.  1.
</event>
<event>
 7    1  0.2686828E-009  0.1013804E+03  0.7561462E-02  0.1277420E+00
          2   -1    0    0  501    0  0.00000000000E+00  0.00000000000E+00  0.31974610886E+03  0.31974610886E+03  0.00000000000E+00 0.  1.
         -2   -1    0    0    0  501 -0.00000000000E+00 -0.00000000000E+00 -0.13300286619E+03  0.13300286619E+03  0.00000000000E+00 0. -1.
         25    2    1    2    0    0  0.16096573860E+02  0.65111925738E+02 -0.80204492872E+02  0.16303738367E+03  0.12509902171E+03 0.  0.
          5    1    3    3  502    0  0.38022468650E+02  0.25930670555E+02  0.22108085520E+02  0.51228387082E+02  0.41800000000E+01 0. -1.
         -5    1    3    3    0  502 -0.21925894791E+02  0.39181255184E+02 -0.10231257839E+03  0.11180899658E+03  0.41800000000E+01 0. -1.
        -11    1    1    2    0    0 -0.40842413186E+02  0.10096721507E+01  0.11815362136E+03  0.12501760033E+03  0.00000000000E+00 0.  1.
         11    1    1    2    0    0  0.24745839327E+02 -0.66121597889E+02  0.14879411418E+03  0.16469399104E+03  0.00000000000E+00 0. -1.
</event>
<event>
 7    1  0.2686828E-009  0.1099885E+03  0.7561462E-02  0.1260591E+00
         -1   -1    0    0    0  501 -0.00000000000E+00  0.00000000000E+00  0.86122467515E+03  0.86122467515E+03  0.00000000000E+00 0.  1.
          1   -1    0    0  501    0  0.00000000000E+00 -0.00000000000E+00 -0.17882015451E+02  0.17882015451E+02  0.00000000000E+00 0. -1.
         25    2    1    2    0    0 -0.50553908844E+02 -0.23355810326E+02  0.39236222051E+03  0.41556807426E+03  0.12509005032E+03 0.  0.
          5    1    3    3  502    0 -0.80098340772E+02 -0.11363568195E+02  0.36330405572E+03  0.37222598536E+03  0.41800000000E+01 0.  1.
         -5    1    3    3    0  502  0.29544431927E+02 -0.11992242131E+02  0.29058164785E+02  0.43342088897E+02  0.41800000000E+01 0.  1.
        -11    1    1    2    0    0  0.64229280884E+02 -0.15112818435E+02  0.25989079808E+03  0.26813620556E+03  0.00000000000E+00 0. -1.
         11    1    1    2    0    0 -0.13675372040E+02  0.38468628762E+02  0.19108964110E+03  0.19540241077E+03  0.00000000000E+00 0.  1.
</event>
<event>
 7    1  0.2686828E-009  0.1719189E+03  0.7561462E-02  0.1175861E+00
         -2   -1    0    0    0  501 -0.00000000000E+00  0.00000000000E+00  0.11949984527E+03  0.11949984527E+03  0.00000000000E+00 0.  1.
          2   -1    0    0  501    0  0.00000000000E+00 -0.00000000000E+00 -0.28727639064E+03  0.28727639064E+03  0.00000000000E+00 0. -1.
         25    2    1    2    0    0 -0.12528626434E+03 -0.81358461850E+02 -0.70929861297E+02  0.20735001558E+03  0.12508851423E+03 0.  0.
          5    1    3    3  502    0 -0.93366914488E+02 -0.11451449452E+03 -0.45793633897E+02  0.15474326958E+03  0.41800000000E+01 0.  1.
         -5    1    3    3    0  502 -0.31919349849E+02  0.33156032665E+02 -0.25136227400E+02  0.52606746001E+02  0.41800000000E+01 0.  1.
        -11    1    1    2    0    0  0.11554920684E+02  0.38424264486E+01 -0.53881517123E+02  0.55240368577E+02  0.00000000000E+00 0. -1.
         11    1    1    2    0    0  0.11373134365E+03  0.77516035402E+02 -0.42965166945E+02  0.14418585175E+03  0.00000000000E+00 0.  1.
</event>
<event>
 7    1  0.2686828E-009  0.1164216E+03  0.7561462E-02  0.1249120E+00
          1   -1    0    0  501    0  0.00000000000E+00  0.00000000000E+00  0.17715719573E+04  0.17715719573E+04  0.00000000000E+00 0. -1.
         -1   -1    0    0    0  501 -0.00000000000E+00 -0.00000000000E+00 -0.82662254253E+01  0.82662254253E+01  0.00000000000E+00 0.  1.
         25    2    1    2    0    0  0.42622401494E+02  0.10799106039E+02  0.12017829463E+04  0.12090752697E+04  0.12508984030E+03 0.  0.
          5    1    3    3  502    0  0.72054398326E+02 -0.31746328233E+02  0.81962354517E+03  0.82340748957E+03  0.41800000000E+01 0. -1.
         -5    1    3    3    0  502 -0.29431996831E+02  0.42545434272E+02  0.38215940110E+03  0.38566778017E+03  0.41800000000E+01 0. -1.
        -11    1    1    2    0    0 -0.38788681903E+02  0.37316258966E+02  0.31352403992E+03  0.31811065470E+03  0.00000000000E+00 0. -1.
         11    1    1    2    0    0 -0.38337195908E+01 -0.48115365004E+02  0.24799874568E+03  0.25265225828E+03  0.00000000000E+00 0.  1.
</event>
<event>
 7    1  0.2686828E-009  0.1649159E+03  0.7561462E-02  0.1183256E+00
          2   -1    0    0  501    0  0.00000000000E+00  0.00000000000E+00  0.38222508808E+03  0.38222508808E+03  0.00000000000E+00 0. -1.
         -2   -1    0    0    0  501 -0.00000000000E+00 -0.00000000000E+00 -0.94011876074E+02  0.94011876074E+02  0.00000000000E+00 0.  1.
         25    2    1    2    0    0  0.32799078201E+02  0.13472653244E+03  0.23799069343E+03  0.30251324115E+03  0.12509065850E+03 0.  0.
          5    1    3    3  502    0  0.69835970291E+02  0.31331640240E+02  0.10442545780E+03  0.12954104779E+03  0.41800000000E+01 0. -1.
         -5    1    3    3    0  502 -0.37036892090E+02  0.10339489220E+03  0.13356523562E+03  0.17297219336E+03  0.41800000000E+01 0. -1.
        -11    1    1    2    0    0 -0.27880118719E+02 -0.42003388548E+02 -0.23057776523E+02  0.55436871552E+02  0.00000000000E+00 0.  1.
         11    1    1    2    0    0 -0.49189594821E+01 -0.92723143889E+02  0.73280295104E+02  0.11828685145E+03  0.00000000000E+00 0. -1.
</event>
<event>
 7    1  0.2686828E-009  0.9816296E+02  0.7561462E-02  0.1284207E+00
          1   -1    0    0  501    0  0.00000000000E+00  0.00000000000E+00  0.25560045216E+03  0.25560045216E+03  0.00000000000E+00 0. -1.
         -1   -1    0    0    0  501 -0.00000000000E+00 -0.00000000000E+00 -0.56942941329E+02  0.56942941329E+02  0.00000000000E+00 0.  1.
         25    2    1    2    0    0  0.43533947558E+02  0.10053927645E+02  0.15018531899E+03  0.20049954874E+03  0.12509257753E+03 0.  0.
          5    1    3    3  502    0  0.63110207097E+02 -0.13229586353E+02  0.21345897811E+02  0.68051744638E+02  0.41800000000E+01 0.  1.
         -5    1    3    3    0  502 -0.19576259538E+02  0.23283513997E+02  0.12883942118E+03  0.13244780410E+03  0.41800000000E+01 0.  1.
        -11    1    1    2    0    0 -0.52141965560E+02 -0.42604006633E+02  0.31465079917E+02  0.74323194279E+02  0.00000000000E+00 0.  1.
         11    1    1    2    0    0  0.86080180016E+01  0.32550078988E+02  0.17007111927E+02  0.37720650473E+02  0.00000000000E+00 0. -1.
</event>
<event>
 7    1  0.2686828E-009  0.2714703E+03  0.7561462E-02  0.1100441E+00
          2   -1    0    0  501    0  0.00000000000E+00  0.00000000000E+00  0.52192985684E+03  0.52192985684E+03  0.00000000000E+00 0. -1.
         -2   -1    0    0    0  501 -0.00000000000E+00 -0.00000000000E+00 -0.14605943561E+03  0.14605943561E+03  0.00000000000E+00 0.  1.
         25    2    1    2    0    0 -0.40267699421E+02 -0.24974181047E+03  0.17069067835E+03  0.32981057275E+03  0.12508895519E+03 0.  0.
          5    1    3    3  502    0  0.38745209556E+02 -0.53078548537E+02  0.17095614376E+02  0.68031286988E+02  0.41800000000E+01 0.  1.
         -5    1    3    3    0  502 -0.79012908977E+02 -0.19666326193E+03  0.15359506398E+03  0.26177928577E+03  0.41800000000E+01 0.  1.
        -11    1    1    2    0    0  0.45182046186E+02  0.59043929323E+02  0.33528226157E+02  0.81558229730E+02  0.00000000000E+00 0.  1.
         11    1    1    2    0    0 -0.49143467650E+01  0.19069788114E+03  0.17165151672E+03  0.25662048996E+03  0.00000000000E+00 0. -1.
</event>
<event>
 7    1  0.2686828E-009  0.8401540E+02  0.7561462E-02  0.1318028E+00
         -2   -1    0    0    0  501 -0.00000000000E+00  0.00000000000E+00  0.62650100698E+02  0.62650100698E+02  0.00000000000E+00 0. -1.
          2   -1    0    0  501    0  0.00000000000E+00 -0.00000000000E+00 -0.22781653827E+03  0.22781653827E+03  0.00000000000E+00 0.  1.
         25    2    1    2    0    0  0.87186642940E+01 -0.93457449601E+01 -0.14216117643E+03  0.18979049797E+03  0.12508906819E+03 0.  0.
          5    1    3    3  502    0 -0.48743171493E+02  0.54051679387E+01 -0.18518288010E+02  0.52588135530E+02  0.41800000000E+01 0.  1.
         -5    1    3    3    0  502  0.57461835787E+02 -0.14750912899E+02 -0.12364288842E+03  0.13720236244E+03  0.41800000000E+01 0.  1.
        -11    1    1    2    0    0  0.25138723780E+01 -0.24010774287E+02 -0.50525762794E+02  0.55997227986E+02  0.00000000000E+00 0.  1.
         11    1    1    2    0    0 -0.11232536672E+02  0.33356519247E+02  0.27520501653E+02  0.44678913008E+02  0.00000000000E+00 0. -1.
</event>
<event>
 7    1  0.2686828E-009  0.1136875E+03  0.7561462E-02  0.1253890E+00
         -2   -1    0    0    0  501 -0.00000000000E+00  0.00000000000E+00  0.39180146984E+02  0.39180146984E+02  0.00000000000E+00 0. -1.
          2   -1    0    0  501    0  0.00000000000E+00 -0.00000000000E+00 -0.37768996173E+03  0.37768996173E+03  0.00000000000E+00 0.  1.
         25    2    1    2    0    0 -0.21445504994E+02 -0.44459938631E+02 -0.14420460517E+03  0.19717917222E+03  0.12509221389E+03 0.  0.
          5    1    3    3  502    0  0.11587647524E+02 -0.77196675744E+02 -0.12335962924E+03  0.14604338687E+03  0.41800000000E+01 0. -1.
         -5    1    3    3    0  502 -0.33033152517E+02  0.32736737113E+02 -0.20844975932E+02  0.51135785353E+02  0.41800000000E+01 0. -1.
        -11    1    1    2    0    0  0.49886791424E+02  0.18814261118E+00 -0.93121108101E+02  0.10564217023E+03  0.00000000000E+00 0.  1.
         11    1    1    2    0    0 -0.28441286430E+02  0.44271796020E+02 -0.10118410147E+03  0.11404876627E+03  0.00000000000E+00 0. -1.
</event>
<event>
 7    1  0.3034370E-009  0.2726608E+03  0.7561462E-02  0.1099766E+00
          2   -1    0    0  501    0  0.00000000000E+00  0.00000000000E+00  0.29662021939E+03  0.29662021939E+03  0.00000000000E+00 0. -1.
         -2   -1    0    0    0  501 -0.00000000000E+00 -0.00000000000E+00 -0.26233852551E+03  0.26233852551E+03  0.00000000000E+00 0.  1.
         25    2    1    2    0    0  0.85225861879E+02  0.24096962347E+03 -0.43452546445E+01  0.28459877493E+03  0.12509106476E+03 0.  0.
          5    1    3    3  502    0  0.10586246357E+03  0.16954242120E+03 -0.36948769562E+02  0.20330808580E+03  0.41800000000E+01 0. -1.
         -5    1    3    3    0  502 -0.20636601692E+02  0.71427202279E+02  0.32603514917E+02  0.81290689133E+02  0.41800000000E+01 0. -1.
        -11    1    1    2    0    0 -0.10131967224E+03 -0.16781680704E+03  0.19132655042E+02  0.19696247154E+03  0.00000000000E+00 0. -1.
         11    1    1    2    0    0  0.16093810362E+02 -0.73152816435E+02  0.19494293475E+02  0.77397498425E+02  0.00000000000E+00 0.  1.
</event>
<event>
 7    1  0.2686828E-009  0.9413224E+02  0.7561462E-02  0.1293143E+00
          1   -1    0    0  501    0  0.00000000000E+00  0.00000000000E+00  0.10636523168E+03  0.10636523168E+03  0.00000000000E+00 0. -1.
         -1   -1    0    0    0  501 -0.00000000000E+00 -0.00000000000E+00 -0.14405554312E+03  0.14405554312E+03  0.00000000000E+00 0.  1.
         25    2    1    2    0    0 -0.32853437390E+02  0.42646531072E+02  0.23072432912E+02  0.13811980280E+03  0.12508664119E+03 0.  0.
          5    1    3    3  502    0  0.87268961678E+01  0.69195930158E+02 -0.19806884204E+02  0.72622451962E+02  0.41800000000E+01 0. -1.
         -5    1    3    3    0  502 -0.41580333558E+02 -0.26549399086E+02  0.42879317116E+02  0.65497350839E+02  0.41800000000E+01 0. -1.
        -11    1    1    2    0    0  0.27575798268E+02 -0.17305536752E+01 -0.65195361936E+02  0.70808577758E+02  0.00000000000E+00 0.  1.
         11    1    1    2    0    0  0.52776391224E+01 -0.40915977397E+02  0.44326175817E+01  0.41492394239E+02  0.00000000000E+00 0. -1.
</event>
<event>
 7    1  0.2686828E-009  0.7736496E+02  0.7561462E-02  0.1336700E+00
         -1   -1    0    0    0  501 -0.00000000000E+00  0.00000000000E+00  0.20088867096E+02  0.20088867096E+02  0.00000000000E+00 0.  1.
          1   -1    0    0  501    0  0.00000000000E+00 -0.00000000000E+00 -0.79349380482E+03  0.79349380482E+03  0.00000000000E+00 0. -1.
         25    2    1    2    0    0 -0.50174548512E+02  0.10906506439E+02 -0.29496928014E+03  0.32448309759E+03  0.12508384066E+03 0.  0.
          5    1    3    3  502    0 -0.19390756391E+02 -0.94394917208E+01 -0.28525237663E+03  0.28609700490E+03  0.41800000000E+01 0.  1.
         -5    1    3    3    0  502 -0.30783792122E+02  0.20345998160E+02 -0.97169035091E+01  0.38386092694E+02  0.41800000000E+01 0.  1.
        -11    1    1    2    0    0  0.68895911567E+02  0.75852753476E+01 -0.40926355348E+03  0.41509136252E+03  0.00000000000E+00 0. -1.
         11    1    1    2    0    0 -0.18721363055E+02 -0.18491781787E+02 -0.69172104098E+02  0.74008211799E+02  0.00000000000E+00 0.  1.
</event>
<event>
 7    1  0.2686828E-009  0.1864237E+03  0.7561462E-02  0.1161727E+00
          2   -1    0    0  501    0  0.00000000000E+00  0.00000000000E+00  0.20890819699E+03  0.20890819699E+03  0.00000000000E+00 0. -1.
         -2   -1    0    0    0  501 -0.00000000000E+00 -0.00000000000E+00 -0.18634831073E+03  0.18634831073E+03  0.00000000000E+00 0.  1.
         25    2    1    2    0    0  0.14871233865E+03  0.49490290026E+02 -0.37542385000E+02  0.20400938797E+03  0.12508297740E+03 0.  0.
          5    1    3    3  502    0 -0.14077605541E+02  0.33292763412E+02 -0.12397946532E+02  0.38441755313E+02  0.41800000000E+01 0. -1.
         -5    1    3    3    0  502  0.16278994419E+03  0.16197526614E+02 -0.25144438468E+02  0.16556763266E+03  0.41800000000E+01 0. -1.
        -11    1    1    2    0    0 -0.10919923808E+03  0.36257435238E+00  0.88528610258E+01  0.10955810425E+03  0.00000000000E+00 0. -1.
         11    1    1    2    0    0 -0.39513100566E+02 -0.49852864378E+02  0.51249410241E+02  0.81689015498E+02  0.00000000000E+00 0.  1.
</event>
<event>
 7    1  0.2686828E-009  0.1583479E+03  0.7561462E-02  0.1190575E+00
         -2   -1    0    0    0  501 -0.00000000000E+00  0.00000000000E+00  0.22116655059E+02  0.22116655059E+02  0.00000000000E+00 0.  1.
          2   -1    0    0  501    0  0.00000000000E+00 -0.00000000000E+00 -0.12185529452E+04  0.12185529452E+04  0.00000000000E+00 0. -1.
         25    2    1    2    0    0  0.37224861511E+02 -0.11556309871E+03 -0.57794494905E+03  0.60366035532E+03  0.12507973598E+03 0.  0.
          5    1    3    3  502    0  0.63164728948E+02 -0.12180742595E+03 -0.38308500989E+03  0.40693786897E+03  0.41800000000E+01 0. -1.
         -5    1    3    3    0  502 -0.25939867437E+02  0.62443272396E+01 -0.19485993916E+03  0.19672248634E+03  0.41800000000E+01 0. -1.
        -11    1    1    2    0    0 -0.28141829995E+02 -0.74145851174E+01 -0.11110186957E+03  0.11485018106E+03  0.00000000000E+00 0.  1.
         11    1    1    2    0    0 -0.90830315159E+01  0.12297768383E+03 -0.50738947149E+03  0.52215906385E+03  0.00000000000E+00 0. -1.
</event>
<event>
 7    1  0.2686828E-009  0.1353465E+03  0.7561462E-02  0.1219731E+00
          1   -1    0    0  501    0  0.00000000000E+00  0.00000000000E+00  0.60238808850E+03  0.60238808850E+03  0.00000000000E+00 0. -1.
         -1   -1    0    0    0  501 -0.00000000000E+00 -0.00000000000E+00 -0.42977653273E+02  0.42977653273E+02  0.00000000000E+00 0.  1.
         25    2    1    2    0    0  0.22725478165E+02 -0.11653764786E+03  0.31965021806E+03  0.36320812333E+03  0.12508560356E+03 0.  0.
          5    1    3    3  502    0  0.55558325674E+02 -0.68776769754E+02  0.27790276702E+03  0.29165800508E+03  0.41800000000E+01 0. -1.
         -5    1    3    3    0  502 -0.32832847509E+02 -0.47760878108E+02  0.41747451045E+02  0.71550118253E+02  0.41800000000E+01 0. -1.
        -11    1    1    2    0    0 -0.32648623524E+02  0.90296347507E+02  0.96333702519E+02  0.13601303332E+03  0.00000000000E+00 0.  1.
         11    1    1    2    0    0  0.99231453586E+01  0.26241300356E+02  0.14342651465E+03  0.14614458513E+03  0.00000000000E+00 0. -1.
</event>
<event>
 7    1  0.2686828E-009  0.6808304E+02  0.7561462E-02  0.1366736E+00
          2   -1    0    0  501    0  0.00000000000E+00  0.00000000000E+00  0.97581040447E+03  0.97581040447E+03  0.00000000000E+00 0. -1.
         -2   -1    0    0    0  501 -0.00000000000E+00 -0.00000000000E+00 -0.17754405519E+02  0.17754405519E+02  0.00000000000E+00 0.  1.
         25    2    1    2    0    0  0.18896611281E+02  0.42060588266E+01  0.79699789849E+03  0.80698701750E+03  0.12509046072E+03 0.  0.
          5    1    3    3  502    0 -0.70773129475E+01 -0.13354102189E+02  0.84648520461E+01  0.17819835128E+02  0.41800000000E+01 0.  1.
         -5    1    3    3    0  502  0.25973924228E+02  0.17560161015E+02  0.78853304644E+03  0.78916718237E+03  0.41800000000E+01 0.  1.
        -11    1    1    2    0    0 -0.25704249744E+02 -0.42658614514E+02  0.58456320997E+02  0.76795880825E+02  0.00000000000E+00 0. -1.
         11    1    1    2    0    0  0.68076384630E+01  0.38452555687E+02  0.10260177946E+03  0.10978191167E+03  0.00000000000E+00 0.  1.
</event>
<event>
 7    1  0.2686828E-009  0.1876559E+03  0.7561462E-02  0.1160593E+00
         -1   -1    0    0    0  501 -0.00000000000E+00  0.00000000000E+00  0.30848676785E+03  0.30848676785E+03  0.00000000000E+00 0.  1.
          1   -1    0    0  501    0  0.00000000000E+00 -0.00000000000E+00 -0.13102489331E+03  0.13102489331E+03  0.00000000000E+00 0. -1.
         25    2    1    2    0    0 -0.49202422497E+02 -0.15715193231E+03  0.13398415068E+03  0.24640976538E+03  0.12509361149E+03 0.  0.
          5    1    3    3  502    0 -0.31836557579E+02 -0.17504532787E+03  0.13093630422E+03  0.22094393264E+03  0.41800000000E+01 0. -1.
         -5    1    3    3    0  502 -0.17365864917E+02  0.17893395563E+02  0.30478464560E+01  0.25465832740E+02  0.41800000000E+01 0. -1.
        -11    1    1    2    0    0  0.41096842718E+02  0.50525111569E+02 -0.20758823418E+02  0.68356902579E+02  0.00000000000E+00 0.  1.
         11    1    1    2    0    0  0.81055797786E+01  0.10662682074E+03  0.64236547279E+02  0.12474499321E+03  0.00000000000E+00 0. -1.
</event>
<event>
 7    1  0.2686828E-009  0.1221375E+03  0.7561462E-02  0.1239612E+00
         -2   -1    0    0    0  501 -0.00000000000E+00  0.00000000000E+00  0.13079480370E+03  0.13079480370E+03  0.00000000000E+00 0.  1.
          2   -1    0    0  501    0  0.00000000000E+00 -0.00000000000E+00 -0.11983509973E+03  0.11983509973E+03  0.00000000000E+00 0. -1.
         25    2    1    2    0    0  0.15341502457E+02 -0.57562502112E+02 -0.13296822896E+02  0.13918716024E+03  0.12508979467E+03 0.  0.
          5    1    3    3  502    0 -0.17759654807E+02  0.33713175753E+02  0.92280084929E+01  0.39428569578E+02  0.41800000000E+01 0.  1.
         -5    1    3    3    0  502  0.33101157263E+02 -0.91275677865E+02 -0.22524831389E+02  0.99758590662E+02  0.41800000000E+01 0.  1.
        -11    1    1    2    0    0 -0.52631821212E+02  0.21406289205E+02  0.11855929179E+02  0.58042233575E+02  0.00000000000E+00 0.  1.
         11    1    1    2    0    0  0.37290318755E+02  0.36156212906E+02  0.12400597691E+02  0.53400509620E+02  0.00000000000E+00 0. -1.
</event>
<event>
 7    1  0.2686828E-009  0.8215428E+02  0.7561462E-02  0.1323047E+00
          1   -1    0    0  501    0  0.00000000000E+00  0.00000000000E+00  0.16052686907E+03  0.16052686907E+03  0.00000000000E+00 0. -1.
         -1   -1    0    0    0  501 -0.00000000000E+00 -0.00000000000E+00 -0.11715098598E+03  0.11715098598E+03  0.00000000000E+00 0.  1.
         25    2    1    2    0    0  0.26745500011E+02 -0.27868385473E+02 -0.51679143267E+02  0.14075098358E+03  0.12509251316E+03 0.  0.
          5    1    3    3  502    0  0.26908302399E+02 -0.43757233425E+02 -0.87382152369E+02  0.10144883029E+03  0.41800000000E+01 0. -1.
         -5    1    3    3    0  502 -0.16280238864E+00  0.15888847952E+02  0.35703009103E+02  0.39302153285E+02  0.41800000000E+01 0. -1.
        -11    1    1    2    0    0 -0.52515409836E+02  0.41731555652E+02  0.52017212061E+02  0.84883339696E+02  0.00000000000E+00 0.  1.
         11    1    1    2    0    0  0.25769909826E+02 -0.13863170179E+02  0.43037814296E+02  0.52043531771E+02  0.00000000000E+00 0. -1.
</event>
<event>
 7    1  0.2686828E-009  0.8956123E+02  0.7561462E-02  0.1303918E+00
          2   -1    0    0  501    0  0.00000000000E+00  0.00000000000E+00  0.25553542967E+03  0.25553542967E+03  0.00000000000E+00 0.  1.
         -2   -1    0    0    0  501 -0.00000000000E+00 -0.00000000000E+00 -0.35457258223E+02  0.35457258223E+02  0.00000000000E+00 0. -1.
         25    2    1    2    0    0  0.60057637088E+01 -0.26220225442E+02  0.13801347498E+03  0.18819896714E+03  0.12509021759E+03 0.  0.
          5    1    3    3  502    0 -0.48363942975E+02  0.21038618992E+02  0.39219196978E+02  0.65858274202E+02  0.41800000000E+01 0.  1.
         -5    1    3    3    0  502  0.54369706684E+02 -0.47258844433E+02  0.98794278004E+02  0.12234069294E+03  0.41800000000E+01 0.  1.
        -11    1    1    2    0    0 -0.25936778027E+02  0.82421418424E+01  0.66292780853E+02  0.71661580710E+02  0.00000000000E+00 0.  1.
         11    1    1    2    0    0  0.19931014318E+02  0.17978083599E+02  0.15771915612E+02  0.31132140044E+02  0.00000000000E+00 0. -1.
</event>
<event>
 7    1  0.2686828E-009  0.1721471E+03  0.7561462E-02  0.1175627E+00
         -2   -1    0    0    0  501 -0.00000000000E+00  0.00000000000E+00  0.44373106150E+03  0.44373106150E+03  0.00000000000E+00 0.  1.
          2   -1    0    0  501    0  0.00000000000E+00 -0.00000000000E+00 -0.13630252793E+03  0.13630252793E+03  0.00000000000E+00 0. -1.
         25    2    1    2    0    0  0.10689561325E+03  0.12454556293E+03 -0.14395540195E+02  0.20686475209E+03  0.12509006636E+03 0.  0.
          5    1    3    3  502    0  0.32719802419E+02  0.94283601181E+02  0.42462416418E+02  0.10853806765E+03  0.41800000000E+01 0.  1.
         -5    1    3    3    0  502  0.74175810834E+02  0.30261961749E+02 -0.56857956613E+02  0.98326684435E+02  0.41800000000E+01 0.  1.
        -11    1    1    2    0    0 -0.50600314028E+02 -0.55622308588E+02  0.24272231550E+03  0.25410304098E+03  0.00000000000E+00 0.  1.
         11    1    1    2    0    0 -0.56295299225E+02 -0.68923254342E+02  0.79101758270E+02  0.11906579637E+03  0.00000000000E+00 0. -1.
</event>
<event>
 7    1  0.2686828E-009  0.8095879E+02  0.7561462E-02  0.1326352E+00
          1   -1    0    0  501    0  0.00000000000E+00  0.00000000000E+00  0.74415285549E+02  0.74415285549E+02  0.00000000000E+00 0.  1.
         -1   -1    0    0    0  501 -0.00000000000E+00 -0.00000000000E+00 -0.16870177968E+03  0.16870177968E+03  0.00000000000E+00 0. -1.
         25    2    1    2    0    0 -0.25506277265E+02 -0.11518802886E+01 -0.34378560250E+02  0.13221353557E+03  0.12508651636E+03 0.  0.
          5    1    3    3  502    0 -0.59841294268E+02  0.54401149602E+01 -0.62760385830E+02  0.86988009403E+02  0.41800000000E+01 0. -1.
         -5    1    3    3    0  502  0.34335017003E+02 -0.65919952488E+01  0.28381825580E+02  0.45225526168E+02  0.41800000000E+01 0. -1.
        -11    1    1    2    0    0  0.17878688438E+02  0.30934478152E+02  0.77748273999E+01  0.36565521737E+02  0.00000000000E+00 0.  1.
         11    1    1    2    0    0  0.76275888268E+01 -0.29782597863E+02 -0.67682761278E+02  0.74338007917E+02  0.00000000000E+00 0. -1.
</event>
<event>
 7    1  0.2686828E-009  0.1148289E+03  0.7561462E-02  0.1251880E+00
         -2   -1    0    0    0  501 -0.00000000000E+00  0.00000000000E+00  0.30683133429E+03  0.30683133429E+03  0.00000000000E+00 0.  1.
          2   -1    0    0  501    0  0.00000000000E+00 -0.00000000000E+00 -0.49600862400E+02  0.49600862400E+02  0.00000000000E+00 0. -1.
         25    2    1    2    0    0 -0.51765908888E+02 -0.14665724874E+02  0.12731216721E+03  0.18642119580E+03  0.12509868710E+03 0.  0.
          5    1    3    3  502    0 -0.11712243333E+02 -0.61601870036E+02  0.10155488465E+03  0.11942710761E+03  0.41800000000E+01 0.  1.
         -5    1    3    3    0  502 -0.40053665555E+02  0.46936145162E+02  0.25757282554E+02  0.66994088184E+02  0.41800000000E+01 0.  1.
        -11    1    1    2    0    0 -0.26004342683E+02  0.11280840002E+01  0.56498168968E+02  0.62205638881E+02  0.00000000000E+00 0.  1.
         11    1    1    2    0    0  0.77770251571E+02  0.13537640874E+02  0.73420135715E+02  0.10780536201E+03  0.00000000000E+00 0. -1.
</event>
<event>
 7    1  0.2686828E-009  0.8221599E+02  0.7561462E-02  0.1322878E+00
          2   -1    0    0  501    0  0.00000000000E+00  0.00000000000E+00  0.36463395022E+02  0.36463395022E+02  0.00000000000E+00 0. -1.
         -2   -1    0    0    0  501 -0.00000000000E+00 -0.00000000000E+00 -0.59212723660E+03  0.59212723660E+03  0.00000000000E+00 0.  1.
         25    2    1    2    0    0 -0.42385630338E+02 -0.82270354941E+01 -0.48902033773E+03  0.50660920776E+03  0.12509105846E+03 0.  0.
          5    1    3    3  502    0  0.28492167770E+02 -0.19711265631E+01 -0.34206707275E+03  0.34328274588E+03  0.41800000000E+01 0.  1.
         -5    1    3    3    0  502 -0.70877798108E+02 -0.62559089310E+01 -0.14695326498E+03  0.16332646188E+03  0.41800000000E+01 0.  1.
        -11    1    1    2    0    0  0.14472601623E+02 -0.19938579761E+02 -0.77125785432E+02  0.80965362589E+02  0.00000000000E+00 0.  1.
         11    1    1    2    0    0  0.27913028715E+02  0.28165615255E+02  0.10482281585E+02  0.41016061268E+02  0.00000000000E+00 0. -1.
</event>
<event>
 7    1  0.2686828E-009  0.2349579E+03  0.7561462E-02  0.1123198E+00
          1   -1    0    0  501    0  0.00000000000E+00  0.00000000000E+00  0.11670327727E+03  0.11670327727E+03  0.00000000000E+00 0. -1.
         -1   -1    0    0    0  501 -0.00000000000E+00 -0.00000000000E+00 -0.53946843465E+03  0.53946843465E+03  0.00000000000E+00 0.  1.
         25    2    1    2    0    0  0.78473592881E+02  0.20707018513E+03 -0.15478795443E+03  0.29772939056E+03  0.12508921943E+03 0.  0.
          5    1    3    3  502    0  0.98140569596E+02  0.15522392151E+03 -0.15762027119E+03  0.24204887833E+03  0.41800000000E+01 0.  1.
         -5    1    3    3    0  502 -0.19666976715E+02  0.51846263620E+02  0.28323167599E+01  0.55680512234E+02  0.41800000000E+01 0.  1.
        -11    1    1    2    0    0 -0.28239795655E+01 -0.97068203171E+02 -0.70211511389E+02  0.11983266357E+03  0.00000000000E+00 0.  1.
         11    1    1    2    0    0 -0.75649613315E+02 -0.11000198196E+03 -0.19776569156E+03  0.23860965778E+03  0.00000000000E+00 0. -1.
</event>
<event>
 7    1  0.2686828E-009  0.1484564E+03  0.7561462E-02  0.1202383E+00
          1   -1    0    0  501    0  0.00000000000E+00  0.00000000000E+00  0.63945546196E+03  0.63945546196E+03  0.00000000000E+00 0. -1.
         -1   -1    0    0    0  501 -0.00000000000E+00 -0.00000000000E+00 -0.51659533267E+02  0.51659533267E+02  0.00000000000E+00 0.  1.
         25    2    1    2    0    0 -0.48675817560E+02  0.12804520683E+03  0.21441609040E+03  0.28352584260E+03  0.12509090051E+03 0.  0.
          5    1    3    3  502    0 -0.10109629202E+02  0.17381417302E+02  0.14666308412E+03  0.14809406104E+03  0.41800000000E+01 0.  1.
         -5    1    3    3    0  502 -0.38566188358E+02  0.11066378953E+03  0.67753006280E+02  0.13543178156E+03  0.41800000000E+01 0.  1.
        -11    1    1    2    0    0 -0.22885008686E+02 -0.31331631604E+02  0.55617867665E+02  0.67814024841E+02  0.00000000000E+00 0.  1.
         11    1    1    2    0    0  0.71560826246E+02 -0.96713575227E+02  0.31776197062E+03  0.33977512779E+03  0.00000000000E+00 0. -1.
</event>
<event>
 7    1  0.2686828E-009  0.1134730E+03  0.7561462E-02  0.1254270E+00
          1   -1    0    0  501    0  0.00000000000E+00  0.00000000000E+00  0.15668146532E+03  0.15668146532E+03  0.00000000000E+00 0. -1.
         -1   -1    0    0    0  501 -0.00000000000E+00 -0.00000000000E+00 -0.10677433615E+03  0.10677433615E+03  0.00000000000E+00 0.  1.
         25    2    1    2    0    0  0.44402736242E+02  0.49535680373E+02  0.21850506418E+02  0.14335381965E+03  0.12508991311E+03 0.  0.
          5    1    3    3  502    0  0.13099288370E+01 -0.26375996594E+02 -0.31225447879E+02  0.41108516212E+02  0.41800000000E+01 0. -1.
         -5    1    3    3    0  502  0.43092807405E+02  0.75911676968E+02  0.53075954297E+02  0.10224530344E+03  0.41800000000E+01 0. -1.
        -11    1    1    2    0    0 -0.15976050941E+02  0.26889770625E+02 -0.58011663897E+01  0.31811122260E+02  0.00000000000E+00 0.  1.
         11    1    1    2    0    0 -0.28426685301E+02 -0.76425450998E+02  0.33857789146E+02  0.88290859568E+02  0.00000000000E+00 0. -1.
</event>
<event>
 7    1  0.2686828E-009  0.1123494E+03  0.7561462E-02  0.1256280E+00
          2   -1    0    0  501    0  0.00000000000E+00  0.00000000000E+00  0.21661118035E+03  0.21661118035E+03  0.00000000000E+00 0. -1.
         -2   -1    0    0    0  501 -0.00000000000E+00 -0.00000000000E+00 -0.67705013266E+02  0.67705013266E+02  0.00000000000E+00 0.  1.
         25    2    1    2    0    0 -0.39305596299E+02  0.37846743218E+02  0.92914918936E+02  0.16510275582E+03  0.12509369267E+03 0.  0.
          5    1    3    3  502    0 -0.31813423998E+01  0.80335404639E+02  0.52780403388E+02  0.96265993787E+02  0.41800000000E+01 0.  1.
         -5    1    3    3    0  502 -0.36124253899E+02 -0.42488661421E+02  0.40134515548E+02  0.68836762034E+02  0.41800000000E+01 0.  1.
        -11    1    1    2    0    0 -0.46138410818E+01 -0.43713389766E+02 -0.45483794356E+01  0.44190900985E+02  0.00000000000E+00 0.  1.
         11    1    1    2    0    0  0.43919437380E+02  0.58666465477E+01  0.60539627586E+02  0.75022536813E+02  0.00000000000E+00 0. -1.
</event>
<event>
 7    1  0.3013184E-009  0.1565936E+03  0.7561462E-02  0.1192597E+00
          1   -1    0    0  501    0  0.00000000000E+00  0.00000000000E+00  0.79158613249E+03  0.79158613249E+03  0.00000000000E+00 0. -1.
         -1   -1    0    0    0  501 -0.00000000000E+00 -0.00000000000E+00 -0.31853627095E+02  0.31853627095E+02  0.00000000000E+00 0.  1.
         25    2    1    2    0    0  0.59056724347E+02 -0.99151505386E+02  0.41992736330E+03  0.45310468026E+03  0.12508454388E+03 0.  0.
          5    1    3    3  502    0 -0.12066545322E+02  0.24175447420E+02  0.80086900400E+02  0.84625278668E+02  0.41800000000E+01 0.  1.
         -5    1    3    3    0  502  0.71123269669E+02 -0.12332695281E+03  0.33984046290E+03  0.36847940159E+03  0.41800000000E+01 0.  1.
        -11    1    1    2    0    0 -0.80508824413E+02  0.66860642681E+02  0.28144701067E+03  0.30027393521E+03  0.00000000000E+00 0.  1.
         11    1    1    2    0    0  0.21452100066E+02  0.32290862705E+02  0.58358131425E+02  0.70061144116E+02  0.00000000000E+00 0. -1.
</event>
<event>
 7    1  0.2686828E-009  0.1525999E+03  0.7561462E-02  0.1197314E+00
          1   -1    0    0  501    0  0.00000000000E+00  0.00000000000E+00  0.21114213998E+03  0.21114213998E+03  0.00000000000E+00 0. -1.
         -1   -1    0    0    0  501 -0.00000000000E+00 -0.00000000000E+00 -0.15084652137E+03  0.15084652137E+03  0.00000000000E+00 0.  1.
         25    2    1    2    0    0  0.11940860436E+03  0.56824347778E+02  0.80102372060E+02  0.19887496645E+03  0.12508973169E+03 0.  0.
          5    1    3    3  502    0  0.24545946235E+02 -0.30758906181E+02 -0.10676673016E+02  0.40988748855E+02  0.41800000000E+01 0. -1.
         -5    1    3    3    0  502  0.94862658128E+02  0.87583253959E+02  0.90779045076E+02  0.15788621759E+03  0.41800000000E+01 0. -1.
        -11    1    1    2    0    0 -0.96266093001E+02 -0.29596865657E+02 -0.53464438147E+02  0.11402447660E+03  0.00000000000E+00 0.  1.
         11    1    1    2    0    0 -0.23142511362E+02 -0.27227482121E+02  0.33657684695E+02  0.49089218305E+02  0.00000000000E+00 0. -1.
</event>
<event>
 7    1  0.2686828E-009  0.9858130E+02  0.7561462E-02  0.1283308E+00
          2   -1    0    0  501    0  0.00000000000E+00  0.00000000000E+00  0.10553860129E+04  0.10553860129E+04  0.00000000000E+00 0. -1.
         -2   -1    0    0    0  501 -0.00000000000E+00 -0.00000000000E+00 -0.16584994152E+02  0.16584994152E+02  0.00000000000E+00 0.  1.
         25    2    1    2    0    0  0.17497508251E+02  0.43341744137E+02  0.80945883955E+03  0.82039955134E+03  0.12508853403E+03 0.  0.
          5    1    3    3  502    0 -0.20415839063E+02  0.53941177914E+02  0.72299207759E+03  0.72530095396E+03  0.41800000000E+01 0. -1.
         -5    1    3    3    0  502  0.37913347314E+02 -0.10599433777E+02  0.86466761960E+02  0.95098597386E+02  0.41800000000E+01 0. -1.
        -11    1    1    2    0    0  0.35829496687E+02 -0.23500755079E+02  0.66833911139E+02  0.79390238696E+02  0.00000000000E+00 0.  1.
         11    1    1    2    0    0 -0.53327004937E+02 -0.19840989058E+02  0.16250826802E+03  0.17218121697E+03  0.00000000000E+00 0. -1.
</event>
<event>
 7    1  0.2686828E-009  0.1792173E+03  0.7561462E-02  0.1168563E+00
          1   -1    0    0  501    0  0.00000000000E+00  0.00000000000E+00  0.95563801918E+03  0.95563801918E+03  0.00000000000E+00 0. -1.
         -1   -1    0    0    0  501 -0.00000000000E+00 -0.00000000000E+00 -0.46242941477E+02  0.46242941477E+02  0.00000000000E+00 0.  1.
         25    2    1    2    0    0  0.11077245389E+03  0.91503458555E+02  0.21633518270E+03  0.28825132691E+03  0.12507796258E+03 0.  0.
          5    1    3    3  502    0  0.74025095549E+02  0.12045419816E+03  0.14277477913E+03  0.20097521882E+03  0.41800000000E+01 0. -1.
         -5    1    3    3    0  502  0.36747358340E+02 -0.28950739609E+02  0.73560403571E+02  0.87276108085E+02  0.41800000000E+01 0. -1.
        -11    1    1    2    0    0 -0.31630576810E+01 -0.56898148389E+02  0.22201423817E+03  0.22921109523E+03  0.00000000000E+00 0. -1.
         11    1    1    2    0    0 -0.10760939621E+03 -0.34605310166E+02  0.47104565684E+03  0.48441853853E+03  0.00000000000E+00 0.  1.
</event>
<event>
 7    1  0.2686828E-009  0.4441213E+03  0.7561462E-02  0.1029490E+00
         -1   -1    0    0    0  501 -0.00000000000E+00  0.00000000000E+00  0.14556452026E+03  0.14556452026E+03  0.00000000000E+00 0.  1.
          1   -1    0    0  501    0  0.00000000000E+00 -0.00000000000E+00 -0.13786134489E+04  0.13786134489E+04  0.00000000000E+00 0. -1.
         25    2    1    2    0    0  0.13617138340E+03  0.41211776379E+03 -0.63559607133E+03  0.77975228466E+03  0.12509021804E+03 0.  0.
          5    1    3    3  502    0  0.14781570697E+03  0.40169917160E+03 -0.63177795764E+03  0.76313338798E+03  0.41800000000E+01 0.  1.
         -5    1    3    3    0  502 -0.11644323570E+02  0.10418592194E+02 -0.38181136916E+01  0.16618896680E+02  0.41800000000E+01 0.  1.
        -11    1    1    2    0    0 -0.10321186745E+03 -0.16439136192E+03 -0.26814616705E+03  0.33102805978E+03  0.00000000000E+00 0.  1.
         11    1    1    2    0    0 -0.32959515948E+02 -0.24772640187E+03 -0.32930669024E+03  0.41339762470E+03  0.00000000000E+00 0. -1.
</event>
<event>
 7    1  0.2686828E-009  0.1248795E+03  0.7561462E-02  0.1235258E+00
          2   -1    0    0  501    0  0.00000000000E+00  0.00000000000E+00  0.29623176816E+03  0.29623176816E+03  0.00000000000E+00 0. -1.
         -2   -1    0    0    0  501 -0.00000000000E+00 -0.00000000000E+00 -0.92788338910E+02  0.92788338910E+02  0.00000000000E+00 0.  1.
         25    2    1    2    0    0  0.10086820154E+03 -0.22231491382E+02  0.21304469067E+02  0.16361592497E+03  0.12509059602E+03 0.  0.
          5    1    3    3  502    0 -0.67773109172E+01 -0.22484531976E+02  0.47142737885E+02  0.52833665941E+02  0.41800000000E+01 0.  1.
         -5    1    3    3    0  502  0.10764551245E+03  0.25304059439E+00 -0.25838268818E+02  0.11078225903E+03  0.41800000000E+01 0.  1.
        -11    1    1    2    0    0 -0.41524864149E+01 -0.14226432993E+02  0.75325827027E+02  0.76769881832E+02  0.00000000000E+00 0. -1.
         11    1    1    2    0    0 -0.96715715121E+02  0.36457924375E+02  0.10681313316E+03  0.14863430027E+03  0.00000000000E+00 0.  1.
</event>
<event>
 7    1  0.2686828E-009  0.1636772E+03  0.7561462E-02  0.1184607E+00
          2   -1    0    0  501    0  0.00000000000E+00  0.00000000000E+00  0.11031454619E+04  0.11031454619E+04  0.00000000000E+00 0. -1.
         -2   -1    0    0    0  501 -0.00000000000E+00 -0.00000000000E+00 -0.50136264148E+02  0.50136264148E+02  0.00000000000E+00 0.  1.
         25    2    1    2    0    0 -0.14550658205E+03  0.27453177378E+02  0.90212961318E+03  0.92271993789E+03  0.12509357472E+03 0.  0.
          5    1    3    3  502    0 -0.13019884790E+03 -0.16807642516E+02  0.46897498798E+03  0.48702078866E+03  0.41800000000E+01 0.  1.
         -5    1    3    3    0  502 -0.15307734144E+02  0.44260819894E+02  0.43315462521E+03  0.43569914923E+03  0.41800000000E+01 0.  1.
        -11    1    1    2    0    0  0.12428719911E+02 -0.72436809888E+01 -0.12372326560E+02  0.18974152349E+02  0.00000000000E+00 0. -1.
         11    1    1    2    0    0  0.13307786214E+03 -0.20209496389E+02  0.16325191109E+03  0.21158763577E+03  0.00000000000E+00 0.  1.
</event>
<event>
 7    1  0.2686828E-009  0.1200234E+03  0.7561462E-02  0.1243058E+00
         -3   -1    0    0    0  501 -0.00000000000E+00  0.00000000000E+00  0.13284410149E+02  0.13284410149E+02  0.00000000000E+00 0.  1.
          3   -1    0    0  501    0  0.00000000000E+00 -0.00000000000E+00 -0.14760259820E+04  0.14760259820E+04  0.00000000000E+00 0. -1.
         25    2    1    2    0    0 -0.34432285795E+01  0.80148532046E+02 -0.97906754417E+03  0.99028026372E+03  0.12508437806E+03 0.  0.
          5    1    3    3  502    0  0.48440352495E+02  0.63458883414E+02 -0.77168193799E+03  0.77581182219E+03  0.41800000000E+01 0. -1.
         -5    1    3    3    0  502 -0.51883581074E+02  0.16689648633E+02 -0.20738560619E+03  0.21446844152E+03  0.41800000000E+01 0. -1.
        -11    1    1    2    0    0 -0.28572029156E+02 -0.13709131641E+02 -0.50481128815E+02  0.59604072905E+02  0.00000000000E+00 0.  1.
         11    1    1    2    0    0  0.32015257735E+02 -0.66439400405E+02 -0.43319289890E+03  0.43942605557E+03  0.00000000000E+00 0. -1.
</event>
<event>
 7    1  0.4106062E-009  0.1491270E+03  0.7561462E-02  0.1201550E+00
         -1   -1    0    0    0  501 -0.00000000000E+00  0.00000000000E+00  0.36624219884E+02  0.36624219884E+02  0.00000000000E+00 0.  1.
          1   -1    0    0  501    0  0.00000000000E+00 -0.00000000000E+00 -0.73990741594E+03  0.73990741594E+03  0.00000000000E+00 0. -1.
         25    2    1    2    0    0  0.81013291944E+02  0.92855117840E+02 -0.38134137362E+03  0.41982569773E+03  0.12508855608E+03 0.  0.
          5    1    3    3  502    0  0.96125058811E+02  0.10091716202E+03 -0.24137867842E+03  0.27875695384E+03  0.41800000000E+01 0. -1.
         -5    1    3    3    0  502 -0.15111766867E+02 -0.80620441777E+01 -0.13996269521E+03  0.14106874389E+03  0.41800000000E+01 0. -1.
        -11    1    1    2    0    0 -0.24677450940E+02 -0.79569711934E+02 -0.11620570318E+03  0.14298279999E+03  0.00000000000E+00 0.  1.
         11    1    1    2    0    0 -0.56335841004E+02 -0.13285405906E+02 -0.20573611926E+03  0.21372313810E+03  0.00000000000E+00 0. -1.
</event>
<event>
 7    1  0.2686828E-009  0.1818011E+03  0.7561462E-02  0.1166071E+00
          1   -1    0    0  501    0  0.00000000000E+00  0.00000000000E+00  0.20321152581E+03  0.20321152581E+03  0.00000000000E+00 0. -1.
         -1   -1    0    0    0  501 -0.00000000000E+00 -0.00000000000E+00 -0.22560187322E+03  0.22560187322E+03  0.00000000000E+00 0.  1.
         25    2    1    2    0    0 -0.12139036143E+03  0.94690907870E+02 -0.11254602160E+03  0.22806908918E+03  0.12508762760E+03 0.  0.
          5    1    3    3  502    0 -0.10553806058E+03  0.11693301722E+03 -0.59826819465E+02  0.16854771869E+03  0.41800000000E+01 0.  1.
         -5    1    3    3    0  502 -0.15852300846E+02 -0.22242109354E+02 -0.52719202139E+02  0.59521370488E+02  0.41800000000E+01 0.  1.
        -11    1    1    2    0    0  0.59870903570E+02 -0.10010356511E+03  0.68681267962E+02  0.13536013228E+03  0.00000000000E+00 0.  1.
         11    1    1    2    0    0  0.61519457859E+02  0.54126572420E+01  0.21474406229E+02  0.65384177571E+02  0.00000000000E+00 0. -1.
</event>
<event>
 7    1  0.2686828E-009  0.7524003E+02  0.7561462E-02  0.1343129E+00
         -2   -1    0    0    0  501 -0.00000000000E+00  0.00000000000E+00  0.17970642913E+02  0.17970642913E+02  0.00000000000E+00 0.  1.
          2   -1    0    0  501    0  0.00000000000E+00 -0.00000000000E+00 -0.67094664103E+03  0.67094664103E+03  0.00000000000E+00 0. -1.
         25    2    1    2    0    0  0.80214962840E+01  0.17542967060E+02 -0.41780555644E+03  0.43655627731E+03  0.12509116745E+03 0.  0.
          5    1    3    3  502    0  0.21881728113E+02  0.45974531079E+02 -0.66763170179E+02  0.84067002001E+02  0.41800000000E+01 0. -1.
         -5    1    3    3    0  502 -0.13860231829E+02 -0.28431564020E+02 -0.35104238626E+03  0.35248927531E+03  0.41800000000E+01 0. -1.
        -11    1    1    2    0    0 -0.16128603308E+02  0.21912175625E+02 -0.20823036389E+02  0.34261846561E+02  0.00000000000E+00 0.  1.
         11    1    1    2    0    0  0.81071070245E+01 -0.39455142684E+02 -0.21434740529E+03  0.21809916007E+03  0.00000000000E+00 0. -1.
</event>
<event>
 7    1  0.2686828E-009  0.8669937E+02  0.7561462E-02  0.1311047E+00
         -1   -1    0    0    0  501 -0.00000000000E+00  0.00000000000E+00  0.32637660230E+02  0.32637660230E+02  0.00000000000E+00 0.  1.
          1   -1    0    0  501    0  0.00000000000E+00 -0.00000000000E+00 -0.44472936896E+03  0.44472936896E+03  0.00000000000E+00 0. -1.
         25    2    1    2    0    0 -0.93603842841E+01  0.52893630165E+02 -0.25454025611E+03  0.28865914174E+03  0.12509198706E+03 0.  0.
          5    1    3    3  502    0  0.41534568167E+02  0.50047225930E+02 -0.21306793139E+03  0.22281216520E+03  0.41800000000E+01 0. -1.
         -5    1    3    3    0  502 -0.50894952451E+02  0.28464042347E+01 -0.41472324720E+02  0.65846976542E+02  0.41800000000E+01 0. -1.
        -11    1    1    2    0    0  0.15373374830E+02 -0.40085226378E+02 -0.16651338698E+03  0.17195893135E+03  0.00000000000E+00 0. -1.
         11    1    1    2    0    0 -0.60129905460E+01 -0.12808403786E+02  0.89619343584E+01  0.16748956096E+02  0.00000000000E+00 0.  1.
</event>
<event>
 7    1  0.2686828E-009  0.1546915E+03  0.7561462E-02  0.1194824E+00
          2   -1    0    0  501    0  0.00000000000E+00  0.00000000000E+00  0.45676205238E+03  0.45676205238E+03  0.00000000000E+00 0. -1.
         -2   -1    0    0    0  501 -0.00000000000E+00 -0.00000000000E+00 -0.79674759988E+02  0.79674759988E+02  0.00000000000E+00 0.  1.
         25    2    1    2    0    0 -0.53669563613E+02  0.14257316969E+03  0.14384642658E+03  0.24402325921E+03  0.12509206937E+03 0.  0.
          5    1    3    3  502    0 -0.13177916007E+02  0.47668717516E+02  0.13084444037E+03  0.13994178817E+03  0.41800000000E+01 0. -1.
         -5    1    3    3    0  502 -0.40491647606E+02  0.94904452177E+02  0.13001986212E+02  0.10408147104E+03  0.41800000000E+01 0. -1.
        -11    1    1    2    0    0  0.62948746048E+01 -0.66961667808E+02  0.17064123257E+03  0.18341734011E+03  0.00000000000E+00 0. -1.
         11    1    1    2    0    0  0.47374689008E+02 -0.75611501885E+02  0.62599633242E+02  0.10899621304E+03  0.00000000000E+00 0.  1.
</event>
<event>
 7    1  0.2686828E-009  0.9154760E+02  0.7561462E-02  0.1299147E+00
         -1   -1    0    0    0  501 -0.00000000000E+00  0.00000000000E+00  0.14065437274E+03  0.14065437274E+03  0.00000000000E+00 0.  1.
          1   -1    0    0  501    0  0.00000000000E+00 -0.00000000000E+00 -0.91919277797E+02  0.91919277797E+02  0.00000000000E+00 0. -1.
         25    2    1    2    0    0  0.44423064421E+02  0.23294397389E+02  0.22332810310E+02  0.13660830658E+03  0.12508811857E+03 0.  0.
          5    1    3    3  502    0  0.37570240559E+02 -0.47584566847E+02 -0.31683642458E+01  0.60854949755E+02  0.41800000000E+01 0. -1.
         -5    1    3    3    0  502  0.68528238623E+01  0.70878964237E+02  0.25501174556E+02  0.75753356823E+02  0.41800000000E+01 0. -1.
        -11    1    1    2    0    0 -0.29606768588E+02 -0.10496220945E+02  0.53795295962E+02  0.62294985897E+02  0.00000000000E+00 0.  1.
         11    1    1    2    0    0 -0.14816295833E+02 -0.12798176444E+02 -0.27393011327E+02  0.33670358063E+02  0.00000000000E+00 0. -1.
</event>
<event>
 7    1  0.2686828E-009  0.1226675E+03  0.7561462E-02  0.1238760E+00
          2   -1    0    0  501    0  0.00000000000E+00  0.00000000000E+00  0.32320323687E+03  0.32320323687E+03  0.00000000000E+00 0. -1.
         -2   -1    0    0    0  501 -0.00000000000E+00 -0.00000000000E+00 -0.77808922914E+02  0.77808922914E+02  0.00000000000E+00 0.  1.
         25    2    1    2    0    0 -0.51940614682E+02 -0.65399825317E+02  0.23111991928E+03  0.27575798160E+03  0.12510428739E+03 0.  0.
          5    1    3    3  502    0 -0.23964852967E+02 -0.94326503475E+02  0.20669235445E+03  0.22849727618E+03  0.41800000000E+01 0.  1.
         -5    1    3    3    0  502 -0.27975761715E+02  0.28926678158E+02  0.24427564832E+02  0.47260705416E+02  0.41800000000E+01 0.  1.
        -11    1    1    2    0    0  0.11357976835E+02  0.65906614990E+02 -0.22423528740E+02  0.70537225480E+02  0.00000000000E+00 0.  1.
         11    1    1    2    0    0  0.40582637847E+02 -0.50678967299E+00  0.36697923419E+02  0.54716952708E+02  0.00000000000E+00 0. -1.
</event>
<event>
 7    1  0.2686828E-009  0.1482849E+03  0.7561462E-02  0.1202597E+00
         -2   -1    0    0    0  501 -0.00000000000E+00  0.00000000000E+00  0.35290974113E+02  0.35290974113E+02  0.00000000000E+00 0.  1.
          2   -1    0    0  501    0  0.00000000000E+00 -0.00000000000E+00 -0.65797823673E+03  0.65797823673E+03  0.00000000000E+00 0. -1.
         25    2    1    2    0    0  0.92739708315E+02 -0.51047366623E+02 -0.29561606338E+03  0.33799792293E+03  0.12508897569E+03 0.  0.
          5    1    3    3  502    0  0.92240557295E+02 -0.83883748656E+02 -0.18981718993E+03  0.22714057693E+03  0.41800000000E+01 0. -1.
         -5    1    3    3    0  502  0.49915101940E+00  0.32836382033E+02 -0.10579887346E+03  0.11085734600E+03  0.41800000000E+01 0. -1.
        -11    1    1    2    0    0 -0.36515632618E+02  0.70356753026E+02 -0.18659611403E+03  0.20273523101E+03  0.00000000000E+00 0.  1.
         11    1    1    2    0    0 -0.56224075696E+02 -0.19309386403E+02 -0.14047508520E+03  0.15253605690E+03  0.00000000000E+00 0. -1.
</event>
<event>
 7    1  0.2686828E-009  0.5951995E+02  0.7561462E-02  0.1399857E+00
         -2   -1    0    0    0  501 -0.00000000000E+00  0.00000000000E+00  0.13289083826E+02  0.13289083826E+02  0.00000000000E+00 0.  1.
          2   -1    0    0  501    0  0.00000000000E+00 -0.00000000000E+00 -0.13791683116E+04  0.13791683116E+04  0.00000000000E+00 0. -1.
         25    2    1    2    0    0 -0.85230092455E+01  0.14627091065E+02 -0.11488325896E+04  0.11557463344E+04  0.12508667846E+03 0.  0.
          5    1    3    3  502    0 -0.52698427543E+00 -0.62770307799E+01 -0.11146472197E+04  0.11146728559E+04  0.41800000000E+01 0.  1.
         -5    1    3    3    0  502 -0.79960249701E+01  0.20904121845E+02 -0.34185369905E+02  0.41073478560E+02  0.41800000000E+01 0.  1.
        -11    1    1    2    0    0  0.43638475324E+02 -0.27190805228E+02 -0.16396252767E+03  0.17183529003E+03  0.00000000000E+00 0. -1.
         11    1    1    2    0    0 -0.35115466078E+02  0.12563714163E+02 -0.53084110483E+02  0.64875770956E+02  0.00000000000E+00 0.  1.
</event>
<event>
 7    1  0.2686828E-009  0.1313859E+03  0.7561462E-02  0.1225414E+00
          1   -1    0    0  501    0  0.00000000000E+00  0.00000000000E+00  0.10802737523E+03  0.10802737523E+03  0.00000000000E+00 0. -1.
         -1   -1    0    0    0  501 -0.00000000000E+00 -0.00000000000E+00 -0.22872497668E+03  0.22872497668E+03  0.00000000000E+00 0.  1.
         25    2    1    2    0    0  0.41460228210E+02  0.10538857404E+03 -0.79211890426E+02  0.18640715666E+03  0.12508957753E+03 0.  0.
          5    1    3    3  502    0  0.23439711324E+01 -0.10250492244E+02 -0.62034453724E+02  0.63058010123E+02  0.41800000000E+01 0.  1.
         -5    1    3    3    0  502  0.39116257077E+02  0.11563906628E+03 -0.17177436702E+02  0.12334914653E+03  0.41800000000E+01 0.  1.
        -11    1    1    2    0    0 -0.12141649313E+01 -0.83474971477E+02 -0.57979165661E+02  0.10164216010E+03  0.00000000000E+00 0.  1.
         11    1    1    2    0    0 -0.40246063278E+02 -0.21913602562E+02  0.16493454635E+02  0.48703035146E+02  0.00000000000E+00 0. -1.
</event>
<event>
 7    1  0.2686828E-009  0.1076094E+03  0.7561462E-02  0.1265062E+00
          2   -1    0    0  501    0  0.00000000000E+00  0.00000000000E+00  0.35489214660E+03  0.35489214660E+03  0.00000000000E+00 0. -1.
         -2   -1    0    0    0  501 -0.00000000000E+00 -0.00000000000E+00 -0.36613197534E+02  0.36613197534E+02  0.00000000000E+00 0.  1.
         25    2    1    2    0    0  0.19867786047E+02  0.23173839536E+02  0.19017430409E+03  0.22966396134E+03  0.12509002135E+03 0.  0.
          5    1    3    3  502    0 -0.51257027335E+02 -0.59312450899E+01  0.78888920982E+02  0.94357812465E+02  0.41800000000E+01 0.  1.
         -5    1    3    3    0  502  0.71124813382E+02  0.29105084626E+02  0.11128538310E+03  0.13530614887E+03  0.41800000000E+01 0.  1.
        -11    1    1    2    0    0 -0.15826051159E+02  0.29596837989E+02  0.14592968144E+02  0.36597697107E+02  0.00000000000E+00 0.  1.
         11    1    1    2    0    0 -0.40417348880E+01 -0.52770677526E+02  0.11351167684E+03  0.12524368570E+03  0.00000000000E+00 0. -1.
</event>
<event>
 7    1  0.2686828E-009  0.8116969E+02  0.7561462E-02  0.1325764E+00
         -1   -1    0    0    0  501 -0.00000000000E+00  0.00000000000E+00  0.57063211746E+02  0.57063211746E+02  0.00000000000E+00 0.  1.
          1   -1    0    0  501    0  0.00000000000E+00 -0.00000000000E+00 -0.26538745246E+03  0.26538745246E+03  0.00000000000E+00 0. -1.
         25    2    1    2    0    0 -0.46447716064E+02 -0.32471328842E+02 -0.14254788807E+03  0.19793590725E+03  0.12508775105E+03 0.  0.
          5    1    3    3  502    0 -0.57441642416E+02 -0.23289798531E+02 -0.16195177012E+03  0.17345836747E+03  0.41800000000E+01 0. -1.
         -5    1    3    3    0  502  0.10993926352E+02 -0.91815303108E+01  0.19403882047E+02  0.24477539786E+02  0.41800000000E+01 0. -1.
        -11    1    1    2    0    0 -0.44171236574E+01  0.34117742111E+02  0.75858838084E+01  0.35228921944E+02  0.00000000000E+00 0.  1.
         11    1    1    2    0    0  0.50864839722E+02 -0.16464132695E+01 -0.73362236452E+02  0.89285835012E+02  0.00000000000E+00 0. -1.
</event>
<event>
 7    1  0.2686828E-009  0.2411546E+03  0.7561462E-02  0.1119026E+00
         -2   -1    0    0    0  501 -0.00000000000E+00  0.00000000000E+00  0.66186139728E+02  0.66186139728E+02  0.00000000000E+00 0. -1.
          2   -1    0    0  501    0  0.00000000000E+00 -0.00000000000E+00 -0.11567053793E+04  0.11567053793E+04  0.00000000000E+00 0.  1.
         25    2    1    2    0    0  0.75773936702E+02 -0.15201386027E+03 -0.75096397787E+03  0.78002814089E+03  0.12508837407E+03 0.  0.
          5    1    3    3  502    0 -0.27622500866E+02 -0.71555250546E+02 -0.21644986643E+03  0.22967623628E+03  0.41800000000E+01 0.  1.
         -5    1    3    3    0  502  0.10339643757E+03 -0.80458609729E+02 -0.53451411145E+03  0.55035190462E+03  0.41800000000E+01 0.  1.
        -11    1    1    2    0    0 -0.13525899836E+03  0.29815559954E+02 -0.11337406181E+03  0.17899062026E+03  0.00000000000E+00 0.  1.
         11    1    1    2    0    0  0.59485061655E+02  0.12219830032E+03 -0.22618119992E+03  0.26387275789E+03  0.00000000000E+00 0. -1.
</event>
<event>
 7    1  0.2686828E-009  0.1624303E+03  0.7561462E-02  0.1185980E+00
          2   -1    0    0  501    0  0.00000000000E+00  0.00000000000E+00  0.55355692623E+03  0.55355692623E+03  0.00000000000E+00 0. -1.
         -2   -1    0    0    0  501 -0.00000000000E+00 -0.00000000000E+00 -0.68161005301E+02  0.68161005301E+02  0.00000000000E+00 0.  1.
         25    2    1    2    0    0 -0.10218884836E+03  0.83160667372E+02  0.10718385474E+03  0.21094019565E+03  0.12509648315E+03 0.  0.
          5    1    3    3  502    0 -0.54231315553E+02  0.10263951709E+03  0.33685419992E+02  0.12094662449E+03  0.41800000000E+01 0. -1.
         -5    1    3    3    0  502 -0.47957532808E+02 -0.19478849721E+02  0.73498434748E+02  0.89993571159E+02  0.41800000000E+01 0. -1.
        -11    1    1    2    0    0 -0.15143748942E+02 -0.13675509408E+02  0.25737805775E+02  0.32844898169E+02  0.00000000000E+00 0.  1.
         11    1    1    2    0    0  0.11733259730E+03 -0.69485157964E+02  0.35247426041E+03  0.37793283771E+03  0.00000000000E+00 0. -1.
</event>
<event>
 7    1  0.2686828E-009  0.1347605E+03  0.7561462E-02  0.1220558E+00
          2   -1    0    0  501    0  0.00000000000E+00  0.00000000000E+00  0.17834642339E+03  0.17834642339E+03  0.00000000000E+00 0. -1.
         -2   -1    0    0    0  501 -0.00000000000E+00 -0.00000000000E+00 -0.20239163124E+03  0.20239163124E+03  0.00000000000E+00 0.  1.
         25    2    1    2    0    0  0.10005662741E+03 -0.14407240897E+02  0.10507422109E+03  0.19211439018E+03  0.12509376363E+03 0.  0.
          5    1    3    3  502    0  0.10683918978E+03  0.13200591897E+02  0.11871125924E+03  0.16030815191E+03  0.41800000000E+01 0. -1.
         -5    1    3    3    0  502 -0.67825623694E+01 -0.27607832795E+02 -0.13637038148E+02  0.31806238277E+02  0.41800000000E+01 0. -1.
        -11    1    1    2    0    0 -0.52732383753E+01 -0.28519424038E+02 -0.50403766587E+02  0.58152422792E+02  0.00000000000E+00 0.  1.
         11    1    1    2    0    0 -0.94783389032E+02  0.42926664935E+02 -0.78715662351E+02  0.13047124165E+03  0.00000000000E+00 0. -1.
</event>
<event>
 7    1  0.2686828E-009  0.1297954E+03  0.7561462E-02  0.1227760E+00
          1   -1    0    0  501    0  0.00000000000E+00  0.00000000000E+00  0.88582351169E+03  0.88582351169E+03  0.00000000000E+00 0. -1.
         -1   -1    0    0    0  501 -0.00000000000E+00 -0.00000000000E+00 -0.20793387169E+02  0.20793387169E+02  0.00000000000E+00 0.  1.
         25    2    1    2    0    0  0.53823633503E+02 -0.52386906630E+02  0.55757985054E+03  0.57635551523E+03  0.12509603790E+03 0.  0.
          5    1    3    3  502    0  0.20582879979E+02 -0.90960651037E+02  0.39773735017E+03  0.40854616276E+03  0.41800000000E+01 0. -1.
         -5    1    3    3    0  502  0.33240753524E+02  0.38573744407E+02  0.15984250037E+03  0.16780935247E+03  0.41800000000E+01 0. -1.
        -11    1    1    2    0    0 -0.77928821671E+02  0.35022405344E+02  0.17795143049E+03  0.19739853529E+03  0.00000000000E+00 0.  1.
         11    1    1    2    0    0  0.24105188168E+02  0.17364501286E+02  0.12949884349E+03  0.13286284833E+03  0.00000000000E+00 0. -1.
</event>
<event>
 7    1  0.2686828E-009  0.9842886E+02  0.7561462E-02  0.1283635E+00
         -2   -1    0    0    0  501 -0.00000000000E+00  0.00000000000E+00  0.10766146845E+03  0.10766146845E+03  0.00000000000E+00 0. -1.
          2   -1    0    0  501    0  0.00000000000E+00 -0.00000000000E+00 -0.16172002856E+03  0.16172002856E+03  0.00000000000E+00 0.  1.
         25    2    1    2    0    0  0.38975189793E+02  0.54012406715E+02  0.64135553240E+01  0.14185601883E+03  0.12508233643E+03 0.  0.
          5    1    3    3  502    0  0.95438938675E+01 -0.10220095613E+02 -0.49531980836E+02  0.51637445619E+02  0.41800000000E+01 0.  1.
         -5    1    3    3    0  502  0.29431295925E+02  0.64232502328E+02  0.55945536160E+02  0.90218573206E+02  0.41800000000E+01 0.  1.
        -11    1    1    2    0    0 -0.67919758006E+02 -0.43673944226E+02 -0.36846944375E+02  0.88759248767E+02  0.00000000000E+00 0.  1.
         11    1    1    2    0    0  0.28944568213E+02 -0.10338462489E+02 -0.23625171059E+02  0.38766229418E+02  0.00000000000E+00 0. -1.
</event>
<event>
 7    1  0.2686828E-009  0.1126441E+03  0.7561462E-02  0.1255750E+00
         -1   -1    0    0    0  501 -0.00000000000E+00  0.00000000000E+00  0.29561009256E+02  0.29561009256E+02  0.00000000000E+00 0.  1.
          1   -1    0    0  501    0  0.00000000000E+00 -0.00000000000E+00 -0.73865258187E+03  0.73865258187E+03  0.00000000000E+00 0. -1.
         25    2    1    2    0    0  0.41154568373E+02  0.65067663077E+02 -0.55376028269E+03  0.57290970704E+03  0.12509029726E+03 0.  0.
          5    1    3    3  502    0  0.27178076575E+02 -0.31859133396E+02 -0.25586397967E+03  0.25930194893E+03  0.41800000000E+01 0. -1.
         -5    1    3    3    0  502  0.13976491798E+02  0.96926796473E+02 -0.29789630302E+03  0.31360775812E+03  0.41800000000E+01 0. -1.
        -11    1    1    2    0    0 -0.33105872977E+02 -0.18494714221E+02 -0.56528896310E+01  0.38340689103E+02  0.00000000000E+00 0.  1.
         11    1    1    2    0    0 -0.80486953964E+01 -0.46572948856E+02 -0.14967840030E+03  0.15696319498E+03  0.00000000000E+00 0. -1.
</event>
<event>
 7    1  0.2686828E-009  0.1057084E+03  0.7561462E-02  0.1268730E+00
         -1   -1    0    0    0  501 -0.00000000000E+00  0.00000000000E+00  0.18297391368E+02  0.18297391368E+02  0.00000000000E+00 0.  1.
          1   -1    0    0  501    0  0.00000000000E+00 -0.00000000000E+00 -0.80363351386E+03  0.80363351386E+03  0.00000000000E+00 0. -1.
         25    2    1    2    0    0 -0.15382010577E+02 -0.16856491441E+02 -0.27207726511E+03  0.30032540958E+03  0.12509422807E+03 0.  0.
          5    1    3    3  502    0  0.34910086468E+02  0.32575443159E+02 -0.60011213048E+02  0.76802940866E+02  0.41800000000E+01 0.  1.
         -5    1    3    3    0  502 -0.50292097044E+02 -0.49431934600E+02 -0.21206605206E+03  0.22352246872E+03  0.41800000000E+01 0.  1.
        -11    1    1    2    0    0  0.25519032478E+01  0.53736098793E+02 -0.28569821213E+03  0.29071902059E+03  0.00000000000E+00 0. -1.
         11    1    1    2    0    0  0.12830107329E+02 -0.36879607352E+02 -0.22756064525E+03  0.23088647505E+03  0.00000000000E+00 0.  1.
</event>
<event>
 7    1  0.2686828E-009  0.1277985E+03  0.7561462E-02  0.1230759E+00
         -2   -1    0    0    0  501 -0.00000000000E+00  0.00000000000E+00  0.37554763675E+02  0.37554763675E+02  0.00000000000E+00 0.  1.
          2   -1    0    0  501    0  0.00000000000E+00 -0.00000000000E+00 -0.52716326739E+03  0.52716326739E+03  0.00000000000E+00 0. -1.
         25    2    1    2    0    0 -0.34879339008E+02 -0.79715412063E+02 -0.31688082823E+03  0.35161296969E+03  0.12508839251E+03 0.  0.
          5    1    3    3  502    0 -0.81043994976E+02 -0.53702615794E+02 -0.17722357554E+03  0.20218251208E+03  0.41800000000E+01 0.  1.
         -5    1    3    3    0  502  0.46164655968E+02 -0.26012796269E+02 -0.13965725270E+03  0.14943045761E+03  0.41800000000E+01 0.  1.
        -11    1    1    2    0    0 -0.14992803490E+02  0.35286750489E+02 -0.12570321319E+03  0.13142007732E+03  0.00000000000E+00 0. -1.
         11    1    1    2    0    0  0.49872142497E+02  0.44428661574E+02 -0.47024462292E+02  0.81684984057E+02  0.00000000000E+00 0.  1.
</event>
<event>
 7    1  0.2686828E-009  0.1414280E+03  0.7561462E-02  0.1211420E+00
          1   -1    0    0  501    0  0.00000000000E+00  0.00000000000E+00  0.10826934508E+03  0.10826934508E+03  0.00000000000E+00 0. -1.
         -1   -1    0    0    0  501 -0.00000000000E+00 -0.00000000000E+00 -0.28588963356E+03  0.28588963356E+03  0.00000000000E+00 0.  1.
         25    2    1    2    0    0  0.31737446702E+02 -0.13152418900E+03 -0.65767041948E+02  0.19564811837E+03  0.12508798743E+03 0.  0.
          5    1    3    3  502    0  0.32067041580E+02 -0.87502113300E+02  0.23348323448E+02  0.96164086828E+02  0.41800000000E+01 0.  1.
         -5    1    3    3    0  502 -0.32959487854E+00 -0.44022075704E+02 -0.89115365396E+02  0.99484031541E+02  0.41800000000E+01 0.  1.
        -11    1    1    2    0    0 -0.31777805710E+02  0.29612677493E+02 -0.81202129629E+02  0.92089768489E+02  0.00000000000E+00 0.  1.
         11    1    1    2    0    0  0.40359008532E-01  0.10191151151E+03 -0.30651116902E+02  0.10642109177E+03  0.00000000000E+00 0. -1.
</event>
<event>
 7    1  0.2686828E-009  0.1239784E+03  0.7561462E-02  0.1236675E+00
         -3   -1    0    0    0  501 -0.00000000000E+00  0.00000000000E+00  0.15349528591E+02  0.15349528591E+02  0.00000000000E+00 0.  1.
          3   -1    0    0  501    0  0.00000000000E+00 -0.00000000000E+00 -0.12759868803E+04  0.12759868803E+04  0.00000000000E+00 0. -1.
         25    2    1    2    0    0 -0.73056364647E+02  0.32230481140E+02 -0.86191721501E+03  0.87460044154E+03  0.12509440628E+03 0.  0.
          5    1    3    3  502    0  0.93865272328E-01  0.66794956898E+02 -0.35562741729E+03  0.36187001451E+03  0.41800000000E+01 0.  1.
         -5    1    3    3    0  502 -0.73150229919E+02 -0.34564475758E+02 -0.50628979772E+03  0.51273042703E+03  0.41800000000E+01 0.  1.
        -11    1    1    2    0    0  0.45823898219E+02 -0.49749131496E+02 -0.35982248469E+03  0.36612433164E+03  0.00000000000E+00 0. -1.
         11    1    1    2    0    0  0.27232466428E+02  0.17518650355E+02 -0.38897652045E+02  0.50611635743E+02  0.00000000000E+00 0.  1.
</event>
<event>
 7    1  0.2686828E-009  0.1163733E+03  0.7561462E-02  0.1249203E+00
         -1   -1    0    0    0  501 -0.00000000000E+00  0.00000000000E+00  0.10394142717E+03  0.10394142717E+03  0.00000000000E+00 0.  1.
          1   -1    0    0  501    0  0.00000000000E+00 -0.00000000000E+00 -0.14450108574E+03  0.14450108574E+03  0.00000000000E+00 0. -1.
         25    2    1    2    0    0 -0.44475585877E+02  0.38111336180E+02 -0.26302934956E+02  0.14060914098E+03  0.12509410240E+03 0.  0.
          5    1    3    3  502    0  0.19423488461E+02 -0.30584929145E+02  0.13115899028E+02  0.38758341065E+02  0.41800000000E+01 0. -1.
         -5    1    3    3    0  502 -0.63899074338E+02  0.68696265325E+02 -0.39418833985E+02  0.10185079992E+03  0.41800000000E+01 0. -1.
        -11    1    1    2    0    0  0.62505012928E+02 -0.26279566365E+01 -0.23748353886E+02  0.66916119953E+02  0.00000000000E+00 0. -1.
         11    1    1    2    0    0 -0.18029427052E+02 -0.35483379544E+02  0.94916302787E+01  0.40917251973E+02  0.00000000000E+00 0.  1.
</event>
<event>
 7    1  0.2686828E-009  0.1091911E+03  0.7561462E-02  0.1262075E+00
          1   -1    0    0  501    0  0.00000000000E+00  0.00000000000E+00  0.13762711276E+03  0.13762711276E+03  0.00000000000E+00 0. -1.
         -1   -1    0    0    0  501 -0.00000000000E+00 -0.00000000000E+00 -0.13079027717E+03  0.13079027717E+03  0.00000000000E+00 0.  1.
         25    2    1    2    0    0  0.48348477025E+02  0.20661914883E+02 -0.54714333195E+02  0.14631102126E+03  0.12509503079E+03 0.  0.
          5    1    3    3  502    0  0.23171050901E+02 -0.51466763480E+02 -0.93541924267E+01  0.57364611556E+02  0.41800000000E+01 0. -1.
         -5    1    3    3    0  502  0.25177426124E+02  0.72128678363E+02 -0.45360140768E+02  0.88946409703E+02  0.41800000000E+01 0. -1.
        -11    1    1    2    0    0 -0.47650056951E+02  0.14730643515E+02 -0.13888887707E+01  0.49894376415E+02  0.00000000000E+00 0.  1.
         11    1    1    2    0    0 -0.69842007323E+00 -0.35392558398E+02  0.62940057552E+02  0.72211992253E+02  0.00000000000E+00 0. -1.
</event>
<event>
 7    1  0.2686828E-009  0.1228693E+03  0.7561462E-02  0.1238437E+00
         -3   -1    0    0    0  501 -0.00000000000E+00  0.00000000000E+00  0.45393636089E+03  0.45393636089E+03  0.00000000000E+00 0. -1.
          3   -1    0    0  501    0  0.00000000000E+00 -0.00000000000E+00 -0.46624475442E+02  0.46624475442E+02  0.00000000000E+00 0.  1.
         25    2    1    2    0    0  0.54618991386E+02 -0.72500802614E+02  0.28641783093E+03  0.32545686032E+03  0.12508954174E+03 0.  0.
          5    1    3    3  502    0  0.40555829468E+02 -0.93754483673E+02  0.12268121771E+03  0.15969606160E+03  0.41800000000E+01 0. -1.
         -5    1    3    3    0  502  0.14063161918E+02  0.21253681059E+02  0.16373661322E+03  0.16576079872E+03  0.41800000000E+01 0. -1.
        -11    1    1    2    0    0 -0.50524014790E+01  0.67689346615E+02  0.36388195804E+02  0.77016071048E+02  0.00000000000E+00 0.  1.
         11    1    1    2    0    0 -0.49566589907E+02  0.48114559998E+01  0.84505858707E+02  0.98087904961E+02  0.00000000000E+00 0. -1.
</event>
<event>
 7    1  0.2686828E-009  0.1054728E+03  0.7561462E-02  0.1269191E+00
          1   -1    0    0  501    0  0.00000000000E+00  0.00000000000E+00  0.10322733945E+03  0.10322733945E+03  0.00000000000E+00 0. -1.
         -1   -1    0    0    0  501 -0.00000000000E+00 -0.00000000000E+00 -0.17160427187E+03  0.17160427187E+03  0.00000000000E+00 0.  1.
         25    2    1    2    0    0  0.14259417387E+01  0.98340682484E+01 -0.11411944275E+03  0.16961858305E+03  0.12509386193E+03 0.  0.
          5    1    3    3  502    0 -0.52671623159E+02  0.31871510858E+02 -0.82625652540E+02  0.10312402217E+03  0.41800000000E+01 0. -1.
         -5    1    3    3    0  502  0.54097564898E+02 -0.22037442609E+02 -0.31493790212E+02  0.66494560880E+02  0.41800000000E+01 0. -1.
        -11    1    1    2    0    0 -0.10419727067E+02 -0.49202727607E+02  0.99874685614E+01  0.51276004568E+02  0.00000000000E+00 0.  1.
         11    1    1    2    0    0  0.89937853281E+01  0.39368659359E+02  0.35755041772E+02  0.53937023707E+02  0.00000000000E+00 0. -1.
</event>
<event>
 7    1  0.2686828E-009  0.1007761E+03  0.7561462E-02  0.1278672E+00
          4   -1    0    0  501    0  0.00000000000E+00  0.00000000000E+00  0.10100931897E+03  0.10100931897E+03  0.00000000000E+00 0. -1.
         -4   -1    0    0    0  501 -0.00000000000E+00 -0.00000000000E+00 -0.17614936234E+03  0.17614936234E+03  0.00000000000E+00 0.  1.
         25    2    1    2    0    0 -0.45933569037E+02 -0.47500375646E+02 -0.82708990236E+02  0.16388600401E+03  0.12510662170E+03 0.  0.
          5    1    3    3  502    0  0.13908342788E+01 -0.40893656140E+02 -0.10367690020E+03  0.11153742676E+03  0.41800000000E+01 0. -1.
         -5    1    3    3    0  502 -0.47324403316E+02 -0.66067195062E+01  0.20967909965E+02  0.52348577251E+02  0.41800000000E+01 0. -1.
        -11    1    1    2    0    0  0.72641016109E+02  0.45410461154E+02  0.10567567818E+02  0.86316282897E+02  0.00000000000E+00 0. -1.
         11    1    1    2    0    0 -0.26707447071E+02  0.20899144918E+01 -0.29986209451E+01  0.26956394403E+02  0.00000000000E+00 0.  1.
</event>
<event>
 7    1  0.2686828E-009  0.9582531E+02  0.7561462E-02  0.1289328E+00
         -1   -1    0    0    0  501 -0.00000000000E+00  0.00000000000E+00  0.72907988242E+02  0.72907988242E+02  0.00000000000E+00 0.  1.
          1   -1    0    0  501    0  0.00000000000E+00 -0.00000000000E+00 -0.18819986882E+03  0.18819986882E+03  0.00000000000E+00 0. -1.
         25    2    1    2    0    0  0.22934194960E+02 -0.21137534610E+02 -0.37669038851E+02  0.13430918073E+03  0.12508887589E+03 0.  0.
          5    1    3    3  502    0 -0.25701371818E+02 -0.60715961449E+02 -0.20170491797E+02  0.69074667044E+02  0.41800000000E+01 0. -1.
         -5    1    3    3    0  502  0.48635566778E+02  0.39578426839E+02 -0.17498547054E+02  0.65234513686E+02  0.41800000000E+01 0. -1.
        -11    1    1    2    0    0  0.42665573680E+01 -0.16084709738E+02 -0.78943103247E+02  0.80677970658E+02  0.00000000000E+00 0. -1.
         11    1    1    2    0    0 -0.27200752328E+02  0.37222244348E+02  0.13202615188E+01  0.46120705676E+02  0.00000000000E+00 0.  1.
</event>
<event>
 7    1  0.2686828E-009  0.3100008E+03  0.7561462E-02  0.1080345E+00
         -1   -1    0    0    0  501 -0.00000000000E+00  0.00000000000E+00  0.56678288088E+02  0.56678288088E+02  0.00000000000E+00 0.  1.
          1   -1    0    0  501    0  0.00000000000E+00 -0.00000000000E+00 -0.19281169539E+04  0.19281169539E+04  0.00000000000E+00 0. -1.
         25    2    1    2    0    0  0.31163465296E+02  0.29775373514E+03 -0.12125793618E+04  0.12552385620E+04  0.12508673193E+03 0.  0.
          5    1    3    3  502    0  0.56948495382E+02  0.15938121383E+03 -0.84099582506E+03  0.85786767780E+03  0.41800000000E+01 0.  1.
         -5    1    3    3    0  502 -0.25785030086E+02  0.13837252132E+03 -0.37158353673E+03  0.39737088418E+03  0.41800000000E+01 0.  1.
        -11    1    1    2    0    0 -0.56067463172E+02 -0.15185899596E+03 -0.29018311498E+03  0.33228143990E+03  0.00000000000E+00 0.  1.
         11    1    1    2    0    0  0.24903997876E+02 -0.14589473918E+03 -0.36867618906E+03  0.39727524012E+03  0.00000000000E+00 0. -1.
</event>
<event>
 7    1  0.2686828E-009  0.1386904E+03  0.7561462E-02  0.1215102E+00
         -2   -1    0    0    0  501 -0.00000000000E+00  0.00000000000E+00  0.11288798338E+03  0.11288798338E+03  0.00000000000E+00 0.  1.
          2   -1    0    0  501    0  0.00000000000E+00 -0.00000000000E+00 -0.26063487790E+03  0.26063487790E+03  0.00000000000E+00 0. -1.
         25    2    1    2    0    0 -0.29570038283E+02 -0.10687109318E+03 -0.16002705191E+03  0.23141147731E+03  0.12508715668E+03 0.  0.
          5    1    3    3  502    0  0.30908981600E+02 -0.61822093171E+02 -0.13521056623E+03  0.15191019047E+03  0.41800000000E+01 0.  1.
         -5    1    3    3    0  502 -0.60479019883E+02 -0.45049000009E+02 -0.24816485680E+02  0.79501286841E+02  0.41800000000E+01 0.  1.
        -11    1    1    2    0    0 -0.22738328151E+02  0.16162656300E+02 -0.17890875481E+02  0.33141310343E+02  0.00000000000E+00 0. -1.
         11    1    1    2    0    0  0.52308366434E+02  0.90708436879E+02  0.30171032877E+02  0.10897007362E+03  0.00000000000E+00 0.  1.
</event>
<event>
 7    1  0.2686828E-009  0.1222529E+03  0.7561462E-02  0.1239426E+00
         -2   -1    0    0    0  501 -0.00000000000E+00  0.00000000000E+00  0.94913988675E+03  0.94913988675E+03  0.00000000000E+00 0.  1.
          2   -1    0    0  501    0  0.00000000000E+00 -0.00000000000E+00 -0.22784871812E+02  0.22784871812E+02  0.00000000000E+00 0. -1.
         25    2    1    2    0    0 -0.96835217953E+02  0.16123286254E+02  0.43763169793E+03  0.46562410679E+03  0.12508911222E+03 0.  0.
          5    1    3    3  502    0  0.14476356748E+02 -0.53013502712E+01  0.27697330733E+01  0.16211509513E+02  0.41800000000E+01 0.  1.
         -5    1    3    3    0  502 -0.11131157470E+03  0.21424636525E+02  0.43486196486E+03  0.44941259728E+03  0.41800000000E+01 0.  1.
        -11    1    1    2    0    0  0.89831253306E+02 -0.33883864262E+02  0.46946896745E+03  0.47918564433E+03  0.00000000000E+00 0.  1.
         11    1    1    2    0    0  0.70039646466E+01  0.17760578008E+02  0.19254349554E+02  0.27115007444E+02  0.00000000000E+00 0. -1.
</event>
<event>
 7    1  0.2686828E-009  0.1724801E+03  0.7561462E-02  0.1175286E+00
          1   -1    0    0  501    0  0.00000000000E+00  0.00000000000E+00  0.45179342729E+03  0.45179342729E+03  0.00000000000E+00 0. -1.
         -1   -1    0    0    0  501 -0.00000000000E+00 -0.00000000000E+00 -0.88399227153E+02  0.88399227153E+02  0.00000000000E+00 0.  1.
         25    2    1    2    0    0  0.15431814138E+03 -0.64961075590E+02  0.19613283234E+03  0.28661553486E+03  0.12508535805E+03 0.  0.
          5    1    3    3  502    0  0.69117277802E+02 -0.60300475810E+02  0.17650474038E+03  0.19895914468E+03  0.41800000000E+01 0.  1.
         -5    1    3    3    0  502  0.85200863582E+02 -0.46605997800E+01  0.19628091955E+02  0.87656390179E+02  0.41800000000E+01 0.  1.
        -11    1    1    2    0    0 -0.40999540015E+02  0.12703366869E+02 -0.23729478957E+01  0.42988006385E+02  0.00000000000E+00 0.  1.
         11    1    1    2    0    0 -0.11331860137E+03  0.52257708721E+02  0.16963431569E+03  0.21058911320E+03  0.00000000000E+00 0. -1.
</event>
<event>
 7    1  0.2686828E-009  0.1996020E+03  0.7561462E-02  0.1150075E+00
         -2   -1    0    0    0  501 -0.00000000000E+00  0.00000000000E+00  0.31310400520E+03  0.31310400520E+03  0.00000000000E+00 0.  1.
          2   -1    0    0  501    0  0.00000000000E+00 -0.00000000000E+00 -0.26866117133E+03  0.26866117133E+03  0.00000000000E+00 0. -1.
         25    2    1    2    0    0  0.16821718765E+03 -0.18829341119E+02  0.23183546436E+03  0.31312240334E+03  0.12508553325E+03 0.  0.
          5    1    3    3  502    0 -0.14317767243E+02 -0.20125935363E+02  0.13344431555E+02  0.28383058091E+02  0.41800000000E+01 0. -1.
         -5    1    3    3    0  502  0.18253495489E+03  0.12965942435E+01  0.21849103281E+03  0.28473934525E+03  0.41800000000E+01 0. -1.
        -11    1    1    2    0    0 -0.51789707372E+02  0.48996513746E+02 -0.57249856956E+02  0.91435104147E+02  0.00000000000E+00 0.  1.
         11    1    1    2    0    0 -0.11642748028E+03 -0.30167172627E+02 -0.13014277353E+03  0.17720766905E+03  0.00000000000E+00 0. -1.
</event>
<event>
 7    1  0.2686828E-009  0.1253370E+03  0.7561462E-02  0.1234544E+00
         -1   -1    0    0    0  501 -0.00000000000E+00  0.00000000000E+00  0.19782469026E+02  0.19782469026E+02  0.00000000000E+00 0.  1.
          1   -1    0    0  501    0  0.00000000000E+00 -0.00000000000E+00 -0.91098666696E+03  0.91098666696E+03  0.00000000000E+00 0. -1.
         25    2    1    2    0    0  0.54569202876E+02 -0.57656347198E+02 -0.49880737363E+03  0.52034511989E+03  0.12509274774E+03 0.  0.
          5    1    3    3  502    0  0.80800479683E+01  0.32839922326E+02 -0.52649070254E+02  0.62714788306E+02  0.41800000000E+01 0. -1.
         -5    1    3    3    0  502  0.46489154908E+02 -0.90496269524E+02 -0.44615830337E+03  0.45763033159E+03  0.41800000000E+01 0. -1.
        -11    1    1    2    0    0  0.22135952998E+02  0.87493116450E+01 -0.14271288447E+03  0.14468420185E+03  0.00000000000E+00 0. -1.
         11    1    1    2    0    0 -0.76705155874E+02  0.48907035553E+02 -0.24968393984E+03  0.26573981425E+03  0.00000000000E+00 0.  1.
</event>
<event>
 7    1  0.2686828E-009  0.8354458E+02  0.7561462E-02  0.1319283E+00
          2   -1    0    0  501    0  0.00000000000E+00  0.00000000000E+00  0.28844913163E+03  0.28844913163E+03  0.00000000000E+00 0. -1.
         -2   -1    0    0    0  501 -0.00000000000E+00 -0.00000000000E+00 -0.43370035012E+02  0.43370035012E+02  0.00000000000E+00 0.  1.
         25    2    1    2    0    0  0.68146297279E+01  0.23472230419E+02  0.15902567662E+03  0.20379898572E+03  0.12508987160E+03 0.  0.
          5    1    3    3  502    0  0.43186366031E+02  0.48009938219E+01  0.44800154484E+01  0.43882282200E+02  0.41800000000E+01 0.  1.
         -5    1    3    3    0  502 -0.36371736303E+02  0.18671236597E+02  0.15454566117E+03  0.15991670352E+03  0.41800000000E+01 0.  1.
        -11    1    1    2    0    0  0.33288365105E+02  0.42903830588E+01  0.57326369698E+01  0.34049754255E+02  0.00000000000E+00 0.  1.
         11    1    1    2    0    0 -0.40102994833E+02 -0.27762613478E+02  0.80320783030E+02  0.93970426668E+02  0.00000000000E+00 0. -1.
</event>
<event>
 7    1  0.2686828E-009  0.1842406E+03  0.7561462E-02  0.1163761E+00
          2   -1    0    0  501    0  0.00000000000E+00  0.00000000000E+00  0.12473926797E+04  0.12473926797E+04  0.00000000000E+00 0. -1.
         -2   -1    0    0    0  501 -0.00000000000E+00 -0.00000000000E+00 -0.42373029484E+02  0.42373029484E+02  0.00000000000E+00 0.  1.
         25    2    1    2    0    0 -0.14568670125E+03 -0.92825333744E+02  0.92092991996E+03  0.94530441792E+03  0.12508943824E+03 0.  0.
          5    1    3    3  502    0 -0.19753088110E+02 -0.75261633409E+01  0.44760155307E+03  0.44811990620E+03  0.41800000000E+01 0.  1.
         -5    1    3    3    0  502 -0.12593361314E+03 -0.85299170403E+02  0.47332836689E+03  0.49718451172E+03  0.41800000000E+01 0.  1.
        -11    1    1    2    0    0  0.55974091484E+01  0.47069407715E+02  0.66766566208E+02  0.81881832509E+02  0.00000000000E+00 0.  1.
         11    1    1    2    0    0  0.14008929211E+03  0.45755926028E+02  0.21732316408E+03  0.26257945878E+03  0.00000000000E+00 0. -1.
</event>
<event>
 7    1  0.2686828E-009  0.1535452E+03  0.7561462E-02  0.1196183E+00
          1   -1    0    0  501    0  0.00000000000E+00  0.00000000000E+00  0.10169488440E+03  0.10169488440E+03  0.00000000000E+00 0. -1.
         -1   -1    0    0    0  501 -0.00000000000E+00 -0.00000000000E+00 -0.30042999682E+03  0.30042999682E+03  0.00000000000E+00 0.  1.
         25    2    1    2    0    0  0.11433230016E+03  0.63838026522E+02 -0.59966770224E+02  0.19076404872E+03  0.12509092798E+03 0.  0.
          5    1    3    3  502    0  0.13131101854E+03  0.31102846861E+02 -0.20444447770E+02  0.13654822781E+03  0.41800000000E+01 0. -1.
         -5    1    3    3    0  502 -0.16978718380E+02  0.32735179661E+02 -0.39522322454E+02  0.54215820914E+02  0.41800000000E+01 0. -1.
        -11    1    1    2    0    0 -0.76725893786E+02 -0.59539549729E+02 -0.14343736297E+03  0.17322268285E+03  0.00000000000E+00 0.  1.
         11    1    1    2    0    0 -0.37606406375E+02 -0.42984767930E+01  0.46690207748E+01  0.38138149643E+02  0.00000000000E+00 0. -1.
</event>
<event>
 7    1  0.2686828E-009  0.9623008E+02  0.7561462E-02  0.1288429E+00
         -3   -1    0    0    0  501 -0.00000000000E+00  0.00000000000E+00  0.30467910954E+03  0.30467910954E+03  0.00000000000E+00 0.  1.
          3   -1    0    0  501    0  0.00000000000E+00 -0.00000000000E+00 -0.49184690823E+02  0.49184690823E+02  0.00000000000E+00 0. -1.
         25    2    1    2    0    0 -0.26345658641E+02  0.48034775663E+02  0.16352373753E+03  0.21304702683E+03  0.12509032538E+03 0.  0.
          5    1    3    3  502    0  0.16429279650E+02 -0.51787573968E+01  0.13938958995E+03  0.14051217365E+03  0.41800000000E+01 0. -1.
         -5    1    3    3    0  502 -0.42774938291E+02  0.53213533060E+02  0.24134147585E+02  0.72534853182E+02  0.41800000000E+01 0. -1.
        -11    1    1    2    0    0  0.43323016559E+02  0.11171070530E+02  0.33512096484E+02  0.55899348756E+02  0.00000000000E+00 0.  1.
         11    1    1    2    0    0 -0.16977357918E+02 -0.59205846193E+02  0.58458584700E+02  0.84917424775E+02  0.00000000000E+00 0. -1.
</event>
<event>
 7    1  0.2686828E-009  0.8606959E+02  0.7561462E-02  0.1312659E+00
          1   -1    0    0  501    0  0.00000000000E+00  0.00000000000E+00  0.20043471063E+03  0.20043471063E+03  0.00000000000E+00 0. -1.
         -1   -1    0    0    0  501 -0.00000000000E+00 -0.00000000000E+00 -0.81579721024E+02  0.81579721024E+02  0.00000000000E+00 0.  1.
         25    2    1    2    0    0 -0.59060467700E+02  0.23868787146E+01  0.30591120139E+02  0.14170544196E+03  0.12510307597E+03 0.  0.
          5    1    3    3  502    0 -0.52002084607E+02  0.26201772598E+02 -0.37309419636E+02  0.69283583080E+02  0.41800000000E+01 0.  1.
         -5    1    3    3    0  502 -0.70583830928E+01 -0.23814893884E+02  0.67900539776E+02  0.72421858885E+02  0.41800000000E+01 0.  1.
        -11    1    1    2    0    0  0.58837420736E+02  0.23007392430E+02  0.18140335832E+02  0.65728638883E+02  0.00000000000E+00 0.  1.
         11    1    1    2    0    0  0.22304696379E+00 -0.25394271144E+02  0.70123533638E+02  0.74580350809E+02  0.00000000000E+00 0. -1.
</event>
<event>
 7    1  0.2686828E-009  0.1428168E+03  0.7561462E-02  0.1209588E+00
         -1   -1    0    0    0  501 -0.00000000000E+00  0.00000000000E+00  0.58444284148E+02  0.58444284148E+02  0.00000000000E+00 0.  1.
          1   -1    0    0  501    0  0.00000000000E+00 -0.00000000000E+00 -0.54094309324E+03  0.54094309324E+03  0.00000000000E+00 0. -1.
         25    2    1    2    0    0 -0.10369081472E+03 -0.80423999945E+00 -0.41546101378E+03  0.44610287506E+03  0.12508992488E+03 0.  0.
          5    1    3    3  502    0 -0.12266400960E+03  0.17571783465E+02 -0.38978772056E+03  0.40903198692E+03  0.41800000000E+01 0. -1.
         -5    1    3    3    0  502  0.18973194886E+02 -0.18376023464E+02 -0.25673293218E+02  0.37070888137E+02  0.41800000000E+01 0. -1.
        -11    1    1    2    0    0  0.89313045788E+02 -0.35305567605E+02 -0.32789858780E+02  0.10148141746E+03  0.00000000000E+00 0.  1.
         11    1    1    2    0    0  0.14377768928E+02  0.36109807605E+02 -0.34247936535E+02  0.51803084865E+02  0.00000000000E+00 0. -1.
</event>
<event>
 7    1  0.2686828E-009  0.1293464E+03  0.7561462E-02  0.1228429E+00
         -2   -1    0    0    0  501 -0.00000000000E+00  0.00000000000E+00  0.53667806644E+03  0.53667806644E+03  0.00000000000E+00 0.  1.
          2   -1    0    0  501    0  0.00000000000E+00 -0.00000000000E+00 -0.38600079576E+02  0.38600079576E+02  0.00000000000E+00 0. -1.
         25    2    1    2    0    0 -0.18227686165E+02 -0.90399087163E+02  0.31110871450E+03  0.34776560962E+03  0.12509214000E+03 0.  0.
          5    1    3    3  502    0 -0.59766121540E+02 -0.84313640329E+01  0.91777012575E+02  0.10992529109E+03  0.41800000000E+01 0.  1.
         -5    1    3    3    0  502  0.41538435374E+02 -0.81967723130E+02  0.21933170193E+03  0.23784031853E+03  0.41800000000E+01 0.  1.
        -11    1    1    2    0    0 -0.18270425504E+02  0.21341564094E+02  0.12411335127E+03  0.12725327017E+03  0.00000000000E+00 0.  1.
         11    1    1    2    0    0  0.36498111670E+02  0.69057523069E+02  0.62855921093E+02  0.10025926623E+03  0.00000000000E+00 0. -1.
</event>
<event>
 7    1  0.2686828E-009  0.1703010E+03  0.7561462E-02  0.1177534E+00
          1   -1    0    0  501    0  0.00000000000E+00  0.00000000000E+00  0.68419362782E+02  0.68419362782E+02  0.00000000000E+00 0. -1.
         -1   -1    0    0    0  501 -0.00000000000E+00 -0.00000000000E+00 -0.54517929340E+03  0.54517929340E+03  0.00000000000E+00 0.  1.
         25    2    1    2    0    0  0.13623796972E+03  0.76104323558E+02 -0.30372486296E+03  0.36365981196E+03  0.12508802500E+03 0.  0.
          5    1    3    3  502    0  0.77298494725E+02  0.22536149130E+02 -0.43758518341E+02  0.91734484420E+02  0.41800000000E+01 0.  1.
         -5    1    3    3    0  502  0.58939474993E+02  0.53568174427E+02 -0.25996634462E+03  0.27192532754E+03  0.41800000000E+01 0.  1.
        -11    1    1    2    0    0 -0.73050459519E+02  0.96680153308E+01 -0.66031843346E+02  0.98944653682E+02  0.00000000000E+00 0.  1.
         11    1    1    2    0    0 -0.63187510199E+02 -0.85772338888E+02 -0.10700322431E+03  0.15099419054E+03  0.00000000000E+00 0. -1.
</event>
<event>
 7    1  0.2686828E-009  0.9480732E+02  0.7561462E-02  0.1291611E+00
          1   -1    0    0  501    0  0.00000000000E+00  0.00000000000E+00  0.17710083454E+03  0.17710083454E+03  0.00000000000E+00 0. -1.
         -1   -1    0    0    0  501 -0.00000000000E+00 -0.00000000000E+00 -0.11078066323E+03  0.11078066323E+03  0.00000000000E+00 0.  1.
         25    2    1    2    0    0  0.11255235896E+02 -0.77490180143E+02 -0.82074296022E+01  0.14780646121E+03  0.12509188512E+03 0.  0.
          5    1    3    3  502    0  0.17638299278E+02 -0.71026477848E+02  0.50009336418E+02  0.88737118986E+02  0.41800000000E+01 0.  1.
         -5    1    3    3    0  502 -0.63830633814E+01 -0.64637022941E+01 -0.58216766020E+02  0.59069342228E+02  0.41800000000E+01 0.  1.
        -11    1    1    2    0    0 -0.31861730461E+02  0.79461385989E+02  0.81530267084E+02  0.11822210530E+03  0.00000000000E+00 0. -1.
         11    1    1    2    0    0  0.20606494565E+02 -0.19712058466E+01 -0.70026661746E+01  0.21852931252E+02  0.00000000000E+00 0.  1.
</event>
<event>
 7    1  0.2686828E-009  0.1306934E+03  0.7561462E-02  0.1226430E+00
         -2   -1    0    0    0  501 -0.00000000000E+00  0.00000000000E+00  0.11242099115E+04  0.11242099115E+04  0.00000000000E+00 0.  1.
          2   -1    0    0  501    0  0.00000000000E+00 -0.00000000000E+00 -0.15337662472E+02  0.15337662472E+02  0.00000000000E+00 0. -1.
         25    2    1    2    0    0 -0.23550682637E+02 -0.67376739583E+02  0.56485547785E+03  0.58292651454E+03  0.12508937127E+03 0.  0.
          5    1    3    3  502    0  0.44040044166E+02  0.49603614020E+01  0.15524708720E+03  0.16150313049E+03  0.41800000000E+01 0.  1.
         -5    1    3    3    0  502 -0.67590726803E+02 -0.72337100985E+02  0.40960839066E+03  0.42142338405E+03  0.41800000000E+01 0.  1.
        -11    1    1    2    0    0 -0.32929916355E+02  0.44553647261E+01  0.15332187040E+03  0.15688156555E+03  0.00000000000E+00 0. -1.
         11    1    1    2    0    0  0.56480598992E+02  0.62921374857E+02  0.39069490073E+03  0.39973949384E+03  0.00000000000E+00 0.  1.
</event>
<event>
 7    1  0.2686828E-009  0.1748545E+03  0.7561462E-02  0.1172878E+00
         -2   -1    0    0    0  501 -0.00000000000E+00  0.00000000000E+00  0.13138004581E+03  0.13138004581E+03  0.00000000000E+00 0. -1.
          2   -1    0    0  501    0  0.00000000000E+00 -0.00000000000E+00 -0.36599058499E+03  0.36599058499E+03  0.00000000000E+00 0.  1.
         25    2    1    2    0    0  0.10016435863E+03 -0.20646361875E+02 -0.10611229605E+03  0.19330438651E+03  0.12509034924E+03 0.  0.
          5    1    3    3  502    0  0.49985254496E+02 -0.53234582138E+01 -0.12702154856E+03  0.13667044696E+03  0.41800000000E+01 0. -1.
         -5    1    3    3    0  502  0.50179104133E+02 -0.15322903661E+02  0.20909252512E+02  0.56633939549E+02  0.41800000000E+01 0. -1.
        -11    1    1    2    0    0 -0.15853379830E+03  0.66988423713E+02 -0.14804203903E+03  0.22701731087E+03  0.00000000000E+00 0.  1.
         11    1    1    2    0    0  0.58369439670E+02 -0.46342061838E+02  0.19543795893E+02  0.77048933417E+02  0.00000000000E+00 0. -1.
</event>
<event>
 7    1  0.2686828E-009  0.1527508E+03  0.7561462E-02  0.1197133E+00
          1   -1    0    0  501    0  0.00000000000E+00  0.00000000000E+00  0.29556570640E+03  0.29556570640E+03  0.00000000000E+00 0. -1.
         -1   -1    0    0    0  501 -0.00000000000E+00 -0.00000000000E+00 -0.10352933382E+03  0.10352933382E+03  0.00000000000E+00 0.  1.
         25    2    1    2    0    0  0.34681657065E+02  0.13231373804E+03  0.97060663146E+02  0.20923144026E+03  0.12508909086E+03 0.  0.
          5    1    3    3  502    0 -0.25381432787E+02  0.65786030920E+02  0.96390650169E+02  0.11950166875E+03  0.41800000000E+01 0. -1.
         -5    1    3    3    0  502  0.60063089852E+02  0.66527707121E+02  0.67001297631E+00  0.89729771507E+02  0.41800000000E+01 0. -1.
        -11    1    1    2    0    0 -0.87084619426E+01 -0.11153907364E+03  0.28376095726E+02  0.11542099058E+03  0.00000000000E+00 0. -1.
         11    1    1    2    0    0 -0.25973195122E+02 -0.20774664399E+02  0.66599613709E+02  0.74442609384E+02  0.00000000000E+00 0.  1.
</event>
<event>
 7    1  0.2686828E-009  0.1387054E+03  0.7561462E-02  0.1215082E+00
          3   -1    0    0  501    0  0.00000000000E+00  0.00000000000E+00  0.45606559017E+03  0.45606559017E+03  0.00000000000E+00 0. -1.
         -3   -1    0    0    0  501 -0.00000000000E+00 -0.00000000000E+00 -0.53068850621E+02  0.53068850621E+02  0.00000000000E+00 0.  1.
         25    2    1    2    0    0  0.51820383299E+02  0.80402165985E+02  0.12422084021E+03  0.20056953915E+03  0.12508981762E+03 0.  0.
          5    1    3    3  502    0  0.81682962390E+02  0.30162168141E+02  0.10985328373E+03  0.14023936351E+03  0.41800000000E+01 0.  1.
         -5    1    3    3    0  502 -0.29862579091E+02  0.50239997844E+02  0.14367556483E+02  0.60330175639E+02  0.41800000000E+01 0.  1.
        -11    1    1    2    0    0  0.17359846317E+02 -0.55442892831E+02  0.13814055762E+03  0.14986024253E+03  0.00000000000E+00 0.  1.
         11    1    1    2    0    0 -0.69180229615E+02 -0.24959273154E+02  0.14063534172E+03  0.15870465912E+03  0.00000000000E+00 0. -1.
</event>
<event>
 7    1  0.2686828E-009  0.9512831E+02  0.7561462E-02  0.1290887E+00
         -1   -1    0    0    0  501 -0.00000000000E+00  0.00000000000E+00  0.12661035611E+03  0.12661035611E+03  0.00000000000E+00 0.  1.
          1   -1    0    0  501    0  0.00000000000E+00 -0.00000000000E+00 -0.11247723170E+03  0.11247723170E+03  0.00000000000E+00 0. -1.
         25    2    1    2    0    0  0.24126150588E+02  0.35594043608E+02 -0.73143128463E+01  0.13247660056E+03  0.12509014126E+03 0.  0.
          5    1    3    3  502    0  0.57624825326E+02 -0.20370926378E+02  0.15600911611E+02  0.63217529044E+02  0.41800000000E+01 0.  1.
         -5    1    3    3    0  502 -0.33498674738E+02  0.55964969987E+02 -0.22915224458E+02  0.69259071512E+02  0.41800000000E+01 0.  1.
        -11    1    1    2    0    0  0.11375070425E+02  0.24123858417E+01 -0.30781271189E+02  0.32904384034E+02  0.00000000000E+00 0. -1.
         11    1    1    2    0    0 -0.35501221013E+02 -0.38006429450E+02  0.52228708441E+02  0.73706603221E+02  0.00000000000E+00 0.  1.
</event>
<event>
 7    1  0.2686828E-009  0.1177197E+03  0.7561462E-02  0.1246907E+00
         -2   -1    0    0    0  501 -0.00000000000E+00  0.00000000000E+00  0.92590282678E+01  0.92590282678E+01  0.00000000000E+00 0.  1.
          2   -1    0    0  501    0  0.00000000000E+00 -0.00000000000E+00 -0.19204289279E+04  0.19204289279E+04  0.00000000000E+00 0. -1.
         25    2    1    2    0    0  0.23616399216E+02  0.59877236274E+02 -0.13559476976E+04  0.13632258404E+04  0.12509002928E+03 0.  0.
          5    1    3    3  502    0  0.32075941207E+02 -0.23046143425E+02 -0.80634539277E+03  0.80732295618E+03  0.41800000000E+01 0. -1.
         -5    1    3    3    0  502 -0.84595419913E+01  0.82923379700E+02 -0.54960230484E+03  0.55590288418E+03  0.41800000000E+01 0. -1.
        -11    1    1    2    0    0 -0.57616435893E+02 -0.51426153357E+02 -0.37693229873E+03  0.38476260312E+03  0.00000000000E+00 0.  1.
         11    1    1    2    0    0  0.34000036677E+02 -0.84510829178E+01 -0.17828990331E+03  0.18169951271E+03  0.00000000000E+00 0. -1.
</event>
<event>
 7    1  0.3408421E-009  0.9718111E+02  0.7561462E-02  0.1286338E+00
         -2   -1    0    0    0  501 -0.00000000000E+00  0.00000000000E+00  0.37547231107E+02  0.37547231107E+02  0.00000000000E+00 0.  1.
          2   -1    0    0  501    0  0.00000000000E+00 -0.00000000000E+00 -0.40998346833E+03  0.40998346833E+03  0.00000000000E+00 0. -1.
         25    2    1    2    0    0 -0.53348031805E+02 -0.27427679239E+02 -0.20521089179E+03  0.24769895280E+03  0.12507985860E+03 0.  0.
          5    1    3    3  502    0 -0.35919269192E+02  0.27953391853E+02 -0.13966945575E+02  0.47792614325E+02  0.41800000000E+01 0.  1.
         -5    1    3    3    0  502 -0.17428762613E+02 -0.55381071092E+02 -0.19124394621E+03  0.19990633848E+03  0.41800000000E+01 0.  1.
        -11    1    1    2    0    0 -0.33485001418E+01  0.33281005420E+02 -0.13841199556E+02  0.36199676519E+02  0.00000000000E+00 0.  1.
         11    1    1    2    0    0  0.56696531946E+02 -0.58533261813E+01 -0.15338414588E+03  0.16363207012E+03  0.00000000000E+00 0. -1.
</event>
<event>
 7    1  0.2686828E-009  0.1209338E+03  0.7561462E-02  0.1241564E+00
          2   -1    0    0  501    0  0.00000000000E+00  0.00000000000E+00  0.13269295396E+04  0.13269295396E+04  0.00000000000E+00 0. -1.
         -2   -1    0    0    0  501 -0.00000000000E+00 -0.00000000000E+00 -0.23200807545E+02  0.23200807545E+02  0.00000000000E+00 0.  1.
         25    2    1    2    0    0  0.58951303072E+02  0.19627868073E+02  0.11609022611E+04  0.11692740314E+04  0.12508873414E+03 0.  0.
          5    1    3    3  502    0 -0.12421424219E+02 -0.42699561502E+02  0.39789383177E+03  0.40039295460E+03  0.41800000000E+01 0.  1.
         -5    1    3    3    0  502  0.71372727291E+02  0.62327429575E+02  0.76300842933E+03  0.76888107683E+03  0.41800000000E+01 0.  1.
        -11    1    1    2    0    0 -0.10800110896E+02  0.30794203071E+02  0.16500089674E+02  0.36567448604E+02  0.00000000000E+00 0. -1.
         11    1    1    2    0    0 -0.48151192176E+02 -0.50422071145E+02  0.12632638132E+03  0.14428886715E+03  0.00000000000E+00 0.  1.
</event>
<event>
 7    1  0.2686828E-009  0.1545089E+03  0.7561462E-02  0.1195039E+00
         -2   -1    0    0    0  501 -0.00000000000E+00  0.00000000000E+00  0.12609439837E+03  0.12609439837E+03  0.00000000000E+00 0.  1.
          2   -1    0    0  501    0  0.00000000000E+00 -0.00000000000E+00 -0.20975404020E+03  0.20975404020E+03  0.00000000000E+00 0. -1.
         25    2    1    2    0    0  0.12052032935E+03 -0.97239171497E+01 -0.63821697048E+02  0.18530551157E+03  0.12508085087E+03 0.  0.
          5    1    3    3  502    0 -0.39457457471E+01  0.28916909406E+02 -0.44656978299E+02  0.53511444289E+02  0.41800000000E+01 0.  1.
         -5    1    3    3    0  502  0.12446607510E+03 -0.38640826556E+02 -0.19164718749E+02  0.13179406729E+03  0.41800000000E+01 0.  1.
        -11    1    1    2    0    0 -0.65847503891E+02  0.48783786205E+02 -0.83239195364E+01  0.82371349398E+02  0.00000000000E+00 0. -1.
         11    1    1    2    0    0 -0.54672825459E+02 -0.39059869055E+02 -0.11514025244E+02  0.68171577593E+02  0.00000000000E+00 0.  1.
</event>
<event>
 7    1  0.2686828E-009  0.1524659E+03  0.7561462E-02  0.1197475E+00
          4   -1    0    0  501    0  0.00000000000E+00  0.00000000000E+00  0.58459261148E+02  0.58459261148E+02  0.00000000000E+00 0.  1.
         -4   -1    0    0    0  501 -0.00000000000E+00 -0.00000000000E+00 -0.85477137540E+03  0.85477137540E+03  0.00000000000E+00 0. -1.
         25    2    1    2    0    0 -0.10411281319E+03 -0.79620022640E+02 -0.70728579017E+03  0.73012224430E+03  0.12508587762E+03 0.  0.
          5    1    3    3  502    0  0.13529014973E+02  0.26880119703E+01 -0.85127494537E+01  0.16739144475E+02  0.41800000000E+01 0.  1.
         -5    1    3    3    0  502 -0.11764182816E+03 -0.82308034610E+02 -0.69877304071E+03  0.71338309983E+03  0.41800000000E+01 0.  1.
        -11    1    1    2    0    0  0.94659809680E+02  0.34451231738E+02 -0.92592095044E+02  0.13682347387E+03  0.00000000000E+00 0. -1.
         11    1    1    2    0    0  0.94530035094E+01  0.45168790902E+02  0.35657709546E+01  0.46284918379E+02  0.00000000000E+00 0.  1.
</event>
<event>
 7    1  0.2686828E-009  0.1559548E+03  0.7561462E-02  0.1193341E+00
          1   -1    0    0  501    0  0.00000000000E+00  0.00000000000E+00  0.15263168774E+03  0.15263168774E+03  0.00000000000E+00 0. -1.
         -1   -1    0    0    0  501 -0.00000000000E+00 -0.00000000000E+00 -0.18890070148E+03  0.18890070148E+03  0.00000000000E+00 0.  1.
         25    2    1    2    0    0  0.15899938024E+02 -0.13036460730E+03 -0.26595453266E+02  0.18330953985E+03  0.12508928971E+03 0.  0.
          5    1    3    3  502    0  0.60035298229E+02 -0.95719262934E+02  0.13999223728E+02  0.11392921046E+03  0.41800000000E+01 0. -1.
         -5    1    3    3    0  502 -0.44135360205E+02 -0.34645344368E+02 -0.40594676994E+02  0.69380329396E+02  0.41800000000E+01 0. -1.
        -11    1    1    2    0    0  0.20905015283E+02  0.49445049227E+02  0.29300192042E+02  0.61158268540E+02  0.00000000000E+00 0. -1.
         11    1    1    2    0    0 -0.36804953307E+02  0.80919558074E+02 -0.38973752508E+02  0.97064580829E+02  0.00000000000E+00 0.  1.
</event>
<event>
 7    1  0.2686828E-009  0.9780812E+02  0.7561462E-02  0.1284974E+00
         -2   -1    0    0    0  501 -0.00000000000E+00  0.00000000000E+00  0.10637582386E+03  0.10637582386E+03  0.00000000000E+00 0.  1.
          2   -1    0    0  501    0  0.00000000000E+00 -0.00000000000E+00 -0.12761955840E+03  0.12761955840E+03  0.00000000000E+00 0. -1.
         25    2    1    2    0    0  0.15009323271E+02  0.15797926133E+02  0.15559558385E+02  0.12792247976E+03  0.12508879532E+03 0.  0.
          5    1    3    3  502    0 -0.49009278736E+02  0.24216246945E+02  0.28720869097E+02  0.61892622662E+02  0.41800000000E+01 0.  1.
         -5    1    3    3    0  502  0.64018602007E+02 -0.84183208124E+01 -0.13161310712E+02  0.66029857094E+02  0.41800000000E+01 0.  1.
        -11    1    1    2    0    0  0.11102985896E+01 -0.43779472121E+02 -0.53968564773E+02  0.69501661317E+02  0.00000000000E+00 0. -1.
         11    1    1    2    0    0 -0.16119621860E+02  0.27981545988E+02  0.17165271847E+02  0.36571241193E+02  0.00000000000E+00 0.  1.
</event>
<event>
 7    1  0.2686828E-009  0.1055430E+03  0.7561462E-02  0.1269053E+00
         -2   -1    0    0    0  501 -0.00000000000E+00  0.00000000000E+00  0.13878401782E+02  0.13878401782E+02  0.00000000000E+00 0.  1.
          2   -1    0    0  501    0  0.00000000000E+00 -0.00000000000E+00 -0.92448560626E+03  0.92448560626E+03  0.00000000000E+00 0. -1.
         25    2    1    2    0    0 -0.87425436741E+01 -0.33587729845E+01 -0.63501508943E+03  0.64728483957E+03  0.12508311759E+03 0.  0.
          5    1    3    3  502    0 -0.86492008030E+01 -0.62227352569E+02 -0.40259184043E+03  0.40748584572E+03  0.41800000000E+01 0. -1.
         -5    1    3    3    0  502 -0.93342871076E-01  0.58868579584E+02 -0.23242324900E+03  0.23979899385E+03  0.41800000000E+01 0. -1.
        -11    1    1    2    0    0  0.38443205997E+02 -0.26732778779E+02 -0.99275784585E+02  0.10976430637E+03  0.00000000000E+00 0. -1.
         11    1    1    2    0    0 -0.29700662323E+02  0.30091551763E+02 -0.17631633047E+03  0.18131486210E+03  0.00000000000E+00 0.  1.
</event>
<event>
 7    1  0.2686828E-009  0.5935187E+02  0.7561462E-02  0.1400572E+00
          2   -1    0    0  501    0  0.00000000000E+00  0.00000000000E+00  0.97168811148E+03  0.97168811148E+03  0.00000000000E+00 0. -1.
         -2   -1    0    0    0  501 -0.00000000000E+00 -0.00000000000E+00 -0.12507360286E+02  0.12507360286E+02  0.00000000000E+00 0.  1.
         25    2    1    2    0    0 -0.18483978480E+02 -0.46575955506E+01  0.51182830727E+03  0.52723627834E+03  0.12508607607E+03 0.  0.
          5    1    3    3  502    0 -0.18234315095E+02 -0.10259248337E+02  0.71389017944E+01  0.22498416439E+02  0.41800000000E+01 0. -1.
         -5    1    3    3    0  502 -0.24966338469E+00  0.56016527866E+01  0.50468940547E+03  0.50473786191E+03  0.41800000000E+01 0. -1.
        -11    1    1    2    0    0  0.35679521375E+02  0.38452597462E+02  0.31271840150E+03  0.31708741560E+03  0.00000000000E+00 0. -1.
         11    1    1    2    0    0 -0.17195542895E+02 -0.33795001911E+02  0.13463404242E+03  0.13987177781E+03  0.00000000000E+00 0.  1.
</event>
<event>
 7    1  0.2686828E-009  0.1391195E+03  0.7561462E-02  0.1214519E+00
          1   -1    0    0  501    0  0.00000000000E+00  0.00000000000E+00  0.74697090096E+02  0.74697090096E+02  0.00000000000E+00 0. -1.
         -1   -1    0    0    0  501 -0.00000000000E+00 -0.00000000000E+00 -0.27649217929E+03  0.27649217929E+03  0.00000000000E+00 0.  1.
         25    2    1    2    0    0 -0.70580150374E+02  0.61758787876E+02 -0.96789001458E+02  0.18387935550E+03  0.12509117103E+03 0.  0.
          5    1    3    3  502    0  0.15534763277E+02  0.60107782285E+02 -0.12844098022E+02  0.63535168334E+02  0.41800000000E+01 0. -1.
         -5    1    3    3    0  502 -0.86114913651E+02  0.16510055916E+01 -0.83944903436E+02  0.12034418717E+03  0.41800000000E+01 0. -1.
        -11    1    1    2    0    0  0.88282047417E+02 -0.29667312869E+02 -0.68781493182E+02  0.11577894089E+03  0.00000000000E+00 0. -1.
         11    1    1    2    0    0 -0.17701897042E+02 -0.32091475008E+02 -0.36224594554E+02  0.51530972994E+02  0.00000000000E+00 0.  1.
</event>
<event>
 7    1  0.2686828E-009  0.1102679E+03  0.7561462E-02  0.1260075E+00
         -2   -1    0    0    0  501 -0.00000000000E+00  0.00000000000E+00  0.35656124091E+03  0.35656124091E+03  0.00000000000E+00 0. -1.
          2   -1    0    0  501    0  0.00000000000E+00 -0.00000000000E+00 -0.50897272279E+02  0.50897272279E+02  0.00000000000E+00 0.  1.
         25    2    1    2    0    0 -0.22448403206E+02 -0.16850890563E+02  0.55210803804E+02  0.13958911122E+03  0.12509597833E+03 0.  0.
          5    1    3    3  502    0  0.48600833928E+02  0.10745789941E+02  0.10228523154E+02  0.50986352545E+02  0.41800000000E+01 0. -1.
         -5    1    3    3    0  502 -0.71049237134E+02 -0.27596680504E+02  0.44982280651E+02  0.88602758674E+02  0.41800000000E+01 0. -1.
        -11    1    1    2    0    0 -0.34887853550E+02  0.11177665015E+02  0.11429158280E+03  0.12001945017E+03  0.00000000000E+00 0.  1.
         11    1    1    2    0    0  0.57336256756E+02  0.56732255481E+01  0.13616158203E+03  0.14784995180E+03  0.00000000000E+00 0. -1.
</event>
<event>
 7    1  0.2686828E-009  0.1793358E+03  0.7561462E-02  0.1168447E+00
          1   -1    0    0  501    0  0.00000000000E+00  0.00000000000E+00  0.65550878166E+03  0.65550878166E+03  0.00000000000E+00 0. -1.
         -1   -1    0    0    0  501 -0.00000000000E+00 -0.00000000000E+00 -0.57125632359E+02  0.57125632359E+02  0.00000000000E+00 0.  1.
         25    2    1    2    0    0 -0.14954391683E+03  0.49506513338E+02  0.35079187486E+03  0.40437167791E+03  0.12508891437E+03 0.  0.
          5    1    3    3  502    0 -0.82376132818E+02  0.81482732811E+02  0.27327138305E+03  0.29685010393E+03  0.41800000000E+01 0.  1.
         -5    1    3    3    0  502 -0.67167784014E+02 -0.31976219473E+02  0.77520491809E+02  0.10752157398E+03  0.41800000000E+01 0.  1.
        -11    1    1    2    0    0  0.14343041322E+03 -0.28358819191E+02  0.24602918123E+03  0.28619375269E+03  0.00000000000E+00 0. -1.
         11    1    1    2    0    0  0.61135036157E+01 -0.21147694147E+02  0.15620932096E+01  0.22068983424E+02  0.00000000000E+00 0.  1.
</event>
<event>
 7    1  0.2686828E-009  0.2669446E+03  0.7561462E-02  0.1103041E+00
          1   -1    0    0  501    0  0.00000000000E+00  0.00000000000E+00  0.16382498205E+03  0.16382498205E+03  0.00000000000E+00 0. -1.
         -1   -1    0    0    0  501 -0.00000000000E+00 -0.00000000000E+00 -0.53533521246E+03  0.53533521246E+03  0.00000000000E+00 0.  1.
         25    2    1    2    0    0  0.20552885534E+03  0.16835251541E+03 -0.27341151515E+03  0.40123039935E+03  0.12508915590E+03 0.  0.
          5    1    3    3  502    0  0.18093439563E+03  0.13745258340E+03 -0.28037303404E+03  0.36091131712E+03  0.41800000000E+01 0.  1.
         -5    1    3    3    0  502  0.24594459709E+02  0.30899932006E+02  0.69615188970E+01  0.40319082228E+02  0.41800000000E+01 0.  1.
        -11    1    1    2    0    0 -0.13906151320E+03 -0.12893484181E+03 -0.24500277611E+02  0.19121339254E+03  0.00000000000E+00 0. -1.
         11    1    1    2    0    0 -0.66467342136E+02 -0.39417673603E+02 -0.73598437660E+02  0.10671640262E+03  0.00000000000E+00 0.  1.
</event>
<event>
 7    1  0.2686828E-009  0.1080726E+03  0.7561462E-02  0.1264181E+00
         -1   -1    0    0    0  501 -0.00000000000E+00  0.00000000000E+00  0.27510329584E+03  0.27510329584E+03  0.00000000000E+00 0.  1.
          1   -1    0    0  501    0  0.00000000000E+00 -0.00000000000E+00 -0.49702727751E+02  0.49702727751E+02  0.00000000000E+00 0. -1.
         25    2    1    2    0    0 -0.32152024252E+02  0.53046048381E+01  0.81548594556E+02  0.15283706152E+03  0.12508837918E+03 0.  0.
          5    1    3    3  502    0 -0.60690619719E+02  0.48168204705E+02  0.49524257693E+02  0.92052440307E+02  0.41800000000E+01 0. -1.
         -5    1    3    3    0  502  0.28538595467E+02 -0.42863599867E+02  0.32024336863E+02  0.60784621216E+02  0.41800000000E+01 0. -1.
        -11    1    1    2    0    0  0.57866548492E+02  0.71629080469E+01  0.12443594330E+03  0.13741960803E+03  0.00000000000E+00 0.  1.
         11    1    1    2    0    0 -0.25714524240E+02 -0.12467512885E+02  0.19416030230E+02  0.34549354036E+02  0.00000000000E+00 0. -1.
</event>
<event>
 7    1  0.2686828E-009  0.8655270E+02  0.7561462E-02  0.1311421E+00
          1   -1    0    0  501    0  0.00000000000E+00  0.00000000000E+00  0.13821408995E+03  0.13821408995E+03  0.00000000000E+00 0. -1.
         -1   -1    0    0    0  501 -0.00000000000E+00 -0.00000000000E+00 -0.10588701554E+03  0.10588701554E+03  0.00000000000E+00 0.  1.
         25    2    1    2    0    0  0.44773670187E+02  0.28034733310E+02  0.28530990614E+02  0.13875423682E+03  0.12509233788E+03 0.  0.
          5    1    3    3  502    0 -0.29080128469E+02  0.64287371004E+01  0.50362579364E+02  0.58658710629E+02  0.41800000000E+01 0. -1.
         -5    1    3    3    0  502  0.73853798656E+02  0.21605996209E+02 -0.21831588750E+02  0.80095526189E+02  0.41800000000E+01 0. -1.
        -11    1    1    2    0    0 -0.31338355606E+02  0.36526091623E+01 -0.39169299383E+02  0.50295805987E+02  0.00000000000E+00 0.  1.
         11    1    1    2    0    0 -0.13435314581E+02 -0.31687342472E+02  0.42965383179E+02  0.55051062684E+02  0.00000000000E+00 0. -1.
</event>
<event>
 7    1  0.2686828E-009  0.1094362E+03  0.7561462E-02  0.1261617E+00
          1   -1    0    0  501    0  0.00000000000E+00  0.00000000000E+00  0.51967164334E+02  0.51967164334E+02  0.00000000000E+00 0. -1.
         -1   -1    0    0    0  501 -0.00000000000E+00 -0.00000000000E+00 -0.30465401833E+03  0.30465401833E+03  0.00000000000E+00 0.  1.
         25    2    1    2    0    0 -0.55361460959E+02  0.21992043409E+02 -0.10912521746E+03  0.17636791614E+03  0.12509511351E+03 0.  0.
          5    1    3    3  502    0 -0.68860262423E+02 -0.20249660674E+02 -0.16762667175E+02  0.73825767244E+02  0.41800000000E+01 0.  1.
         -5    1    3    3    0  502  0.13498801463E+02  0.42241704083E+02 -0.92362550285E+02  0.10254214889E+03  0.41800000000E+01 0.  1.
        -11    1    1    2    0    0 -0.61934117197E+01  0.24513944749E+02 -0.66788640523E+02  0.71414384677E+02  0.00000000000E+00 0.  1.
         11    1    1    2    0    0  0.61554872679E+02 -0.46505988158E+02 -0.76772996012E+02  0.10883888185E+03  0.00000000000E+00 0. -1.
</event>
<event>
 7    1  0.2686828E-009  0.1306112E+03  0.7561462E-02  0.1226552E+00
          2   -1    0    0  501    0  0.00000000000E+00  0.00000000000E+00  0.71207616962E+03  0.71207616962E+03  0.00000000000E+00 0. -1.
         -2   -1    0    0    0  501 -0.00000000000E+00 -0.00000000000E+00 -0.29785497730E+02  0.29785497730E+02  0.00000000000E+00 0.  1.
         25    2    1    2    0    0  0.86754184209E+02 -0.24374446677E+02  0.46553354533E+03  0.49039767574E+03  0.12509195184E+03 0.  0.
          5    1    3    3  502    0  0.23013487146E+02 -0.58134152764E+02  0.10166514386E+03  0.11942560104E+03  0.41800000000E+01 0. -1.
         -5    1    3    3    0  502  0.63740697063E+02  0.33759706087E+02  0.36386840148E+03  0.37097207471E+03  0.41800000000E+01 0. -1.
        -11    1    1    2    0    0 -0.53712878377E+01 -0.28667884919E+02  0.36750066006E+02  0.46917648175E+02  0.00000000000E+00 0. -1.
         11    1    1    2    0    0 -0.81382896371E+02  0.53042331596E+02  0.18000706055E+03  0.20454634343E+03  0.00000000000E+00 0.  1.
</event>
<event>
 7    1  0.2686828E-009  0.9675395E+02  0.7561462E-02  0.1287274E+00
          1   -1    0    0  501    0  0.00000000000E+00  0.00000000000E+00  0.42347943626E+02  0.42347943626E+02  0.00000000000E+00 0. -1.
         -1   -1    0    0    0  501 -0.00000000000E+00 -0.00000000000E+00 -0.31891915366E+03  0.31891915366E+03  0.00000000000E+00 0.  1.
         25    2    1    2    0    0 -0.28106936587E+02  0.32260752333E+02 -0.16643298976E+03  0.21255316933E+03  0.12509258046E+03 0.  0.
          5    1    3    3  502    0 -0.17891624481E+02  0.65067908931E+02 -0.16453705428E+03  0.17788720480E+03  0.41800000000E+01 0. -1.
         -5    1    3    3    0  502 -0.10215312107E+02 -0.32807156598E+02 -0.18959354790E+01  0.34665964530E+02  0.41800000000E+01 0. -1.
        -11    1    1    2    0    0  0.44006126047E+02  0.10857220192E+02 -0.24498277573E+02  0.51522654862E+02  0.00000000000E+00 0.  1.
         11    1    1    2    0    0 -0.15899189460E+02 -0.43117972525E+02 -0.85639942702E+02  0.97191273097E+02  0.00000000000E+00 0. -1.
</event>
<event>
 7    1  0.2686828E-009  0.9002426E+02  0.7561462E-02  0.1302793E+00
         -2   -1    0    0    0  501 -0.00000000000E+00  0.00000000000E+00  0.74535332042E+02  0.74535332042E+02  0.00000000000E+00 0. -1.
          2   -1    0    0  501    0  0.00000000000E+00 -0.00000000000E+00 -0.22408254763E+03  0.22408254763E+03  0.00000000000E+00 0.  1.
         25    2    1    2    0    0  0.50763656094E+02  0.17065785111E+02 -0.14719901171E+03  0.20045623714E+03  0.12508782579E+03 0.  0.
          5    1    3    3  502    0 -0.16604027317E+02  0.48183681023E+01 -0.12798738037E+03  0.12921746139E+03  0.41800000000E+01 0. -1.
         -5    1    3    3    0  502  0.67367683412E+02  0.12247417009E+02 -0.19211631336E+02  0.71238775749E+02  0.41800000000E+01 0. -1.
        -11    1    1    2    0    0 -0.59410546120E+02  0.14315704817E+02  0.12512601534E+02  0.62378823264E+02  0.00000000000E+00 0. -1.
         11    1    1    2    0    0  0.86468900255E+01 -0.31381489928E+02 -0.14860805420E+02  0.35782819270E+02  0.00000000000E+00 0.  1.
</event>
<event>
 7    1  0.2686828E-009  0.1266951E+03  0.7561462E-02  0.1232444E+00
          1   -1    0    0  501    0  0.00000000000E+00  0.00000000000E+00  0.22532113806E+03  0.22532113806E+03  0.00000000000E+00 0. -1.
         -1   -1    0    0    0  501 -0.00000000000E+00 -0.00000000000E+00 -0.93213202446E+02  0.93213202446E+02  0.00000000000E+00 0.  1.
         25    2    1    2    0    0  0.61035164012E+01  0.85999536544E+02  0.11646095471E+03  0.19142743510E+03  0.12509250872E+03 0.  0.
          5    1    3    3  502    0  0.37499111339E+02  0.19145960049E+01  0.90236944531E+02  0.97826517813E+02  0.41800000000E+01 0.  1.
         -5    1    3    3    0  502 -0.31395594937E+02  0.84084940539E+02  0.26224010177E+02  0.93600917285E+02  0.41800000000E+01 0.  1.
        -11    1    1    2    0    0 -0.29979359639E+02  0.61174968111E+01 -0.41494687292E+00  0.30599966545E+02  0.00000000000E+00 0.  1.
         11    1    1    2    0    0  0.23875843238E+02 -0.92117033355E+02  0.16061927776E+02  0.96506938861E+02  0.00000000000E+00 0. -1.
</event>
<event>
 7    1  0.2686828E-009  0.1042897E+03  0.7561462E-02  0.1271526E+00
          2   -1    0    0  501    0  0.00000000000E+00  0.00000000000E+00  0.15100314756E+03  0.15100314756E+03  0.00000000000E+00 0. -1.
         -2   -1    0    0    0  501 -0.00000000000E+00 -0.00000000000E+00 -0.10873847757E+03  0.10873847757E+03  0.00000000000E+00 0.  1.
         25    2    1    2    0    0  0.23271007701E+02 -0.19747279517E+02  0.40817603885E+02  0.13507226144E+03  0.12508774590E+03 0.  0.
          5    1    3    3  502    0 -0.13867366568E+02  0.28605766754E+02 -0.28332249503E+02  0.42787644350E+02  0.41800000000E+01 0.  1.
         -5    1    3    3    0  502  0.37138374269E+02 -0.48353046271E+02  0.69149853388E+02  0.92284617085E+02  0.41800000000E+01 0.  1.
        -11    1    1    2    0    0 -0.36784348371E+02 -0.39885754230E+02 -0.22850447096E+02  0.58873632537E+02  0.00000000000E+00 0. -1.
         11    1    1    2    0    0  0.13513340670E+02  0.59633033747E+02  0.24297513203E+02  0.65795731152E+02  0.00000000000E+00 0.  1.
</event>
<event>
 7    1  0.2686828E-009  0.7579772E+02  0.7561462E-02  0.1341418E+00
         -2   -1    0    0    0  501 -0.00000000000E+00  0.00000000000E+00  0.15985000606E+03  0.15985000606E+03  0.00000000000E+00 0.  1.
          2   -1    0    0  501    0  0.00000000000E+00 -0.00000000000E+00 -0.90510393195E+02  0.90510393195E+02  0.00000000000E+00 0. -1.
         25    2    1    2    0    0  0.13161899122E+01 -0.84446341203E+01 -0.10721651256E+02  0.12583922810E+03  0.12509002088E+03 0.  0.
          5    1    3    3  502    0  0.55307898302E+02 -0.84633137437E+01  0.24516807933E+02  0.61230201415E+02  0.41800000000E+01 0. -1.
         -5    1    3    3    0  502 -0.53991708389E+02  0.18679623466E-01 -0.35238459189E+02  0.64609026690E+02  0.41800000000E+01 0. -1.
        -11    1    1    2    0    0  0.17292650989E+01  0.24718127626E+02 -0.14373808880E+02  0.28645812483E+02  0.00000000000E+00 0. -1.
         11    1    1    2    0    0 -0.30454550111E+01 -0.16273493505E+02  0.94435072999E+02  0.95875358666E+02  0.00000000000E+00 0.  1.
</event>
<event>
 7    1  0.2686828E-009  0.1519726E+03  0.7561462E-02  0.1198070E+00
         -1   -1    0    0    0  501 -0.00000000000E+00  0.00000000000E+00  0.28220867858E+02  0.28220867858E+02  0.00000000000E+00 0.  1.
          1   -1    0    0  501    0  0.00000000000E+00 -0.00000000000E+00 -0.11132953237E+04  0.11132953237E+04  0.00000000000E+00 0. -1.
         25    2    1    2    0    0  0.87972639785E+01  0.13921457498E+03 -0.55429700769E+03  0.58510645561E+03  0.12508517867E+03 0.  0.
          5    1    3    3  502    0 -0.10672913922E+02  0.23144444362E+02 -0.91748622343E+01  0.27408518628E+02  0.41800000000E+01 0.  1.
         -5    1    3    3    0  502  0.19470177900E+02  0.11607013062E+03 -0.54512214546E+03  0.55769793698E+03  0.41800000000E+01 0.  1.
        -11    1    1    2    0    0 -0.35093704981E+02 -0.12624328872E+03 -0.35936909506E+03  0.38251154566E+03  0.00000000000E+00 0.  1.
         11    1    1    2    0    0  0.26296441003E+02 -0.12971286262E+02 -0.17140835311E+03  0.17389819031E+03  0.00000000000E+00 0. -1.
</event>
<event>
 7    1  0.2686828E-009  0.1768018E+03  0.7561462E-02  0.1170935E+00
          2   -1    0    0  501    0  0.00000000000E+00  0.00000000000E+00  0.15575542458E+03  0.15575542458E+03  0.00000000000E+00 0. -1.
         -2   -1    0    0    0  501 -0.00000000000E+00 -0.00000000000E+00 -0.24531423920E+03  0.24531423920E+03  0.00000000000E+00 0.  1.
         25    2    1    2    0    0  0.15444155776E+03 -0.12788764670E+02 -0.95952011329E+02  0.22106370693E+03  0.12508647721E+03 0.  0.
          5    1    3    3  502    0  0.16544147440E+03 -0.12849074310E+02 -0.49604507243E+02  0.17324566286E+03  0.41800000000E+01 0. -1.
         -5    1    3    3    0  502 -0.10999916644E+02  0.60309640645E-01 -0.46347504085E+02  0.47818044067E+02  0.41800000000E+01 0. -1.
        -11    1    1    2    0    0 -0.69587461504E+02 -0.35597004590E+02 -0.16017536786E+02  0.79787987937E+02  0.00000000000E+00 0.  1.
         11    1    1    2    0    0 -0.84854096253E+02  0.48385769260E+02  0.22410733494E+02  0.10021796892E+03  0.00000000000E+00 0. -1.
</event>
<event>
 7    1  0.2686828E-009  0.2101254E+03  0.7561462E-02  0.1141467E+00
          2   -1    0    0  501    0  0.00000000000E+00  0.00000000000E+00  0.12342410707E+04  0.12342410707E+04  0.00000000000E+00 0. -1.
         -2   -1    0    0    0  501 -0.00000000000E+00 -0.00000000000E+00 -0.58496134341E+02  0.58496134341E+02  0.00000000000E+00 0.  1.
         25    2    1    2    0    0  0.10154723089E+03  0.16543143703E+03  0.23570920896E+03  0.32997491037E+03  0.12508081319E+03 0.  0.
          5    1    3    3  502    0  0.17047047745E+02 -0.17344130621E+02  0.79219829613E+01  0.25916228850E+02  0.41800000000E+01 0. -1.
         -5    1    3    3    0  502  0.84500183146E+02  0.18277556765E+03  0.22778722600E+03  0.30405868152E+03  0.41800000000E+01 0. -1.
        -11    1    1    2    0    0 -0.36314936802E+02 -0.54924237481E+02  0.17378144214E+03  0.18583712258E+03  0.00000000000E+00 0.  1.
         11    1    1    2    0    0 -0.65232294089E+02 -0.11050719955E+03  0.76625428525E+03  0.77692517208E+03  0.00000000000E+00 0. -1.
</event>
<event>
 7    1  0.2686828E-009  0.1103129E+03  0.7561462E-02  0.1259991E+00
          1   -1    0    0  501    0  0.00000000000E+00  0.00000000000E+00  0.59648118214E+03  0.59648118214E+03  0.00000000000E+00 0. -1.
         -1   -1    0    0    0  501 -0.00000000000E+00 -0.00000000000E+00 -0.24739242731E+02  0.24739242731E+02  0.00000000000E+00 0.  1.
         25    2    1    2    0    0 -0.23322744537E+02  0.52505858876E+02  0.32402257046E+03  0.35204947669E+03  0.12508953690E+03 0.  0.
          5    1    3    3  502    0 -0.27261131996E+01 -0.30263717208E+02  0.19453446032E+03  0.19693768792E+03  0.41800000000E+01 0.  1.
         -5    1    3    3    0  502 -0.20596631338E+02  0.82769576084E+02  0.12948811014E+03  0.15511178877E+03  0.41800000000E+01 0.  1.
        -11    1    1    2    0    0  0.53283411581E+02 -0.12770338224E+02  0.14567048800E+03  0.15563449028E+03  0.00000000000E+00 0.  1.
         11    1    1    2    0    0 -0.29960667044E+02 -0.39735520652E+02  0.10204888094E+03  0.11353645790E+03  0.00000000000E+00 0. -1.
</event>
<event>
 7    1  0.2686828E-009  0.1608440E+03  0.7561462E-02  0.1187747E+00
         -2   -1    0    0    0  501 -0.00000000000E+00  0.00000000000E+00  0.10649000739E+02  0.10649000739E+02  0.00000000000E+00 0. -1.
          2   -1    0    0  501    0  0.00000000000E+00 -0.00000000000E+00 -0.29334771867E+04  0.29334771867E+04  0.00000000000E+00 0.  1.
         25    2    1    2    0    0 -0.11749167648E+03 -0.17446710008E+02 -0.21350010445E+04  0.21419584134E+04  0.12509077941E+03 0.  0.
          5    1    3    3  502    0  0.25817753843E+02 -0.76640215768E+01 -0.45874845772E+03  0.45955730165E+03  0.41800000000E+01 0. -1.
         -5    1    3    3    0  502 -0.14330943032E+03 -0.97826884314E+01 -0.16762525868E+04  0.16824011118E+04  0.41800000000E+01 0. -1.
        -11    1    1    2    0    0  0.87140245207E+02  0.54540911349E+02 -0.55919089272E+03  0.56856185929E+03  0.00000000000E+00 0.  1.
         11    1    1    2    0    0  0.30351431269E+02 -0.37094201340E+02 -0.22863624874E+03  0.23360591472E+03  0.00000000000E+00 0. -1.
</event>
<event>
 7    1  0.2686828E-009  0.7453260E+02  0.7561462E-02  0.1345325E+00
         -1   -1    0    0    0  501 -0.00000000000E+00  0.00000000000E+00  0.76804263797E+02  0.76804263797E+02  0.00000000000E+00 0.  1.
          1   -1    0    0  501    0  0.00000000000E+00 -0.00000000000E+00 -0.17243552550E+03  0.17243552550E+03  0.00000000000E+00 0. -1.
         25    2    1    2    0    0 -0.15524555836E+02  0.34546998413E+02 -0.43177614083E+02  0.13764774581E+03  0.12509232045E+03 0.  0.
          5    1    3    3  502    0 -0.33307073119E+02  0.38420515852E+02  0.31974279545E+02  0.60210664425E+02  0.41800000000E+01 0.  1.
         -5    1    3    3    0  502  0.17782517283E+02 -0.38735174383E+01 -0.75151893628E+02  0.77437081389E+02  0.41800000000E+01 0.  1.
        -11    1    1    2    0    0  0.38708841677E+02 -0.11612354991E+01  0.72169744524E+01  0.39392989377E+02  0.00000000000E+00 0.  1.
         11    1    1    2    0    0 -0.23184285841E+02 -0.33385762914E+02 -0.59670622074E+02  0.72199054108E+02  0.00000000000E+00 0. -1.
</event>
<event>
 7    1  0.2686828E-009  0.1906976E+03  0.7561462E-02  0.1157834E+00
         -2   -1    0    0    0  501 -0.00000000000E+00  0.00000000000E+00  0.52710168922E+02  0.52710168922E+02  0.00000000000E+00 0.  1.
          2   -1    0    0  501    0  0.00000000000E+00 -0.00000000000E+00 -0.86713948943E+03  0.86713948943E+03  0.00000000000E+00 0. -1.
         25    2    1    2    0    0  0.15187220688E+03 -0.70570490010E+02 -0.26367750007E+03  0.33648117107E+03  0.12509353762E+03 0.  0.
          5    1    3    3  502    0  0.16935651343E+03 -0.81308828339E+02 -0.24126176068E+03  0.30580625202E+03  0.41800000000E+01 0.  1.
         -5    1    3    3    0  502 -0.17484306558E+02  0.10738338329E+02 -0.22415739393E+02  0.30674919045E+02  0.41800000000E+01 0.  1.
        -11    1    1    2    0    0 -0.23767362910E+02  0.29782196333E+02 -0.40102149732E+02  0.55317711190E+02  0.00000000000E+00 0. -1.
         11    1    1    2    0    0 -0.12810484397E+03  0.40788293676E+02 -0.51064967071E+03  0.52805077610E+03  0.00000000000E+00 0.  1.
</event>
<event>
 7    1  0.2686828E-009  0.2413909E+03  0.7561462E-02  0.1118870E+00
         -1   -1    0    0    0  501 -0.00000000000E+00  0.00000000000E+00  0.95436296330E+02  0.95436296330E+02  0.00000000000E+00 0.  1.
          1   -1    0    0  501    0  0.00000000000E+00 -0.00000000000E+00 -0.72248776057E+03  0.72248776057E+03  0.00000000000E+00 0. -1.
         25    2    1    2    0    0  0.21450917670E+03 -0.43508282477E+02 -0.47193133801E+03  0.53504665846E+03  0.12509429002E+03 0.  0.
          5    1    3    3  502    0  0.14733614660E+03 -0.82096548852E+02 -0.37252485881E+03  0.40894990679E+03  0.41800000000E+01 0.  1.
         -5    1    3    3    0  502  0.67173030107E+02  0.38588266375E+02 -0.99406479200E+02  0.12609675167E+03  0.41800000000E+01 0.  1.
        -11    1    1    2    0    0 -0.17397055871E+03  0.70574799562E+02 -0.12587355935E+03  0.22603254318E+03  0.00000000000E+00 0.  1.
         11    1    1    2    0    0 -0.40538617991E+02 -0.27066517085E+02 -0.29246566875E+02  0.56844855262E+02  0.00000000000E+00 0. -1.
</event>
<event>
 7    1  0.2686828E-009  0.8981146E+02  0.7561462E-02  0.1303309E+00
          2   -1    0    0  501    0  0.00000000000E+00  0.00000000000E+00  0.22181119607E+03  0.22181119607E+03  0.00000000000E+00 0. -1.
         -2   -1    0    0    0  501 -0.00000000000E+00 -0.00000000000E+00 -0.72393805670E+02  0.72393805670E+02  0.00000000000E+00 0.  1.
         25    2    1    2    0    0  0.36819456689E+02  0.43527892289E+02  0.57878185271E+02  0.14916097771E+03  0.12509501646E+03 0.  0.
          5    1    3    3  502    0  0.71639721215E+02  0.33380453251E+02 -0.18403840650E+01  0.79166683197E+02  0.41800000000E+01 0.  1.
         -5    1    3    3    0  502 -0.34820264525E+02  0.10147439037E+02  0.59718569336E+02  0.69994294512E+02  0.41800000000E+01 0.  1.
        -11    1    1    2    0    0 -0.14044144111E+02 -0.38028535685E+02 -0.92386879967E+01  0.41578370170E+02  0.00000000000E+00 0.  1.
         11    1    1    2    0    0 -0.22775312579E+02 -0.54993566040E+01  0.10077789313E+03  0.10346565386E+03  0.00000000000E+00 0. -1.
</event>
<event>
 7    1  0.2686828E-009  0.1090253E+03  0.7561462E-02  0.1262386E+00
         -2   -1    0    0    0  501 -0.00000000000E+00  0.00000000000E+00  0.40242091479E+02  0.40242091479E+02  0.00000000000E+00 0.  1.
          2   -1    0    0  501    0  0.00000000000E+00 -0.00000000000E+00 -0.54329264855E+03  0.54329264855E+03  0.00000000000E+00 0. -1.
         25    2    1    2    0    0  0.29337719255E+02  0.85327827978E+02 -0.18643093980E+03  0.24196203171E+03  0.12509032526E+03 0.  0.
          5    1    3    3  502    0 -0.69496474881E+01  0.49259743171E+01 -0.14342174016E+03  0.14373528020E+03  0.41800000000E+01 0. -1.
         -5    1    3    3    0  502  0.36287366744E+02  0.80401853661E+02 -0.43009199638E+02  0.98226751503E+02  0.41800000000E+01 0. -1.
        -11    1    1    2    0    0 -0.28704955476E+02  0.56633152992E+01 -0.35004623418E+02  0.45622048065E+02  0.00000000000E+00 0.  1.
         11    1    1    2    0    0 -0.63276377898E+00 -0.90991143277E+02 -0.28161499386E+03  0.29595066026E+03  0.00000000000E+00 0. -1.
</event>
<event>
 7    1  0.2686828E-009  0.1343436E+03  0.7561462E-02  0.1221149E+00
          4   -1    0    0  501    0  0.00000000000E+00  0.00000000000E+00  0.76612688888E+03  0.76612688888E+03  0.00000000000E+00 0. -1.
         -4   -1    0    0    0  501 -0.00000000000E+00 -0.00000000000E+00 -0.28600462374E+02  0.28600462374E+02  0.00000000000E+00 0.  1.
         25    2    1    2    0    0 -0.51218979063E+02  0.54827602673E+02  0.28730675311E+03  0.32221549705E+03  0.12509279085E+03 0.  0.
          5    1    3    3  502    0  0.29038099954E+02 -0.10747602024E+01  0.15428603149E+03  0.15705418896E+03  0.41800000000E+01 0.  1.
         -5    1    3    3    0  502 -0.80257079017E+02  0.55902362876E+02  0.13302072163E+03  0.16516130809E+03  0.41800000000E+01 0.  1.
        -11    1    1    2    0    0  0.46388249400E+02 -0.92485441135E+02  0.36136551573E+03  0.37588623606E+03  0.00000000000E+00 0.  1.
         11    1    1    2    0    0  0.48307296627E+01  0.37657838462E+02  0.88854157665E+02  0.96625618141E+02  0.00000000000E+00 0. -1.
</event>
<event>
 7    1  0.6917522E-009  0.9911167E+02  0.7561462E-02  0.1282175E+00
         -1   -1    0    0    0  501 -0.00000000000E+00  0.00000000000E+00  0.24713996402E+02  0.24713996402E+02  0.00000000000E+00 0.  1.
          1   -1    0    0  501    0  0.00000000000E+00 -0.00000000000E+00 -0.93218891564E+03  0.93218891564E+03  0.00000000000E+00 0. -1.
         25    2    1    2    0    0  0.55434411760E+02 -0.76274098432E+02 -0.63691399303E+03  0.65589500373E+03  0.12509240309E+03 0.  0.
          5    1    3    3  502    0  0.26812005356E+02 -0.60538617225E+01 -0.48746004471E+03  0.48825229182E+03  0.41800000000E+01 0.  1.
         -5    1    3    3    0  502  0.28622406404E+02 -0.70220236709E+02 -0.14945394831E+03  0.16764271191E+03  0.41800000000E+01 0.  1.
        -11    1    1    2    0    0 -0.33793607044E+02  0.41515555609E+02 -0.24908589153E+03  0.25477309629E+03  0.00000000000E+00 0. -1.
         11    1    1    2    0    0 -0.21640804717E+02  0.34758542823E+02 -0.21475034684E+02  0.46234812021E+02  0.00000000000E+00 0.  1.
</event>
<event>
 7    1  0.2686828E-009  0.1398837E+03  0.7561462E-02  0.1213486E+00
          1   -1    0    0  501    0  0.00000000000E+00  0.00000000000E+00  0.21133738520E+04  0.21133738520E+04  0.00000000000E+00 0.  1.
         -1   -1    0    0    0  501 -0.00000000000E+00 -0.00000000000E+00 -0.13755436768E+02  0.13755436768E+02  0.00000000000E+00 0. -1.
         25    2    1    2    0    0  0.31896628508E+02  0.86418170485E+02  0.16922632128E+04  0.16993787698E+04  0.12509167367E+03 0.  0.
          5    1    3    3  502    0 -0.41561853526E+02  0.56928944692E+02  0.10238347065E+04  0.10262666666E+04  0.41800000000E+01 0. -1.
         -5    1    3    3    0  502  0.73458482034E+02  0.29489225793E+02  0.66842850625E+03  0.67311210313E+03  0.41800000000E+01 0. -1.
        -11    1    1    2    0    0 -0.56321054548E+01 -0.10011221332E+03  0.33088270970E+03  0.34574201863E+03  0.00000000000E+00 0. -1.
         11    1    1    2    0    0 -0.26264523053E+02  0.13694042836E+02  0.76472492806E+02  0.82008500391E+02  0.00000000000E+00 0.  1.
</event>
<event>
 7    1  0.2686828E-009  0.9837403E+02  0.7561462E-02  0.1283753E+00
          2   -1    0    0  501    0  0.00000000000E+00  0.00000000000E+00  0.41655370669E+03  0.41655370669E+03  0.00000000000E+00 0. -1.
         -2   -1    0    0    0  501 -0.00000000000E+00 -0.00000000000E+00 -0.29254487884E+02  0.29254487884E+02  0.00000000000E+00 0.  1.
         25    2    1    2    0    0 -0.57083440580E+01  0.16351707731E+02  0.22433803724E+03  0.25743821844E+03  0.12508764059E+03 0.  0.
          5    1    3    3  502    0 -0.18913390881E+02 -0.50974582944E+02  0.72074919126E+02  0.90379150404E+02  0.41800000000E+01 0.  1.
         -5    1    3    3    0  502  0.13205046823E+02  0.67326290675E+02  0.15226311811E+03  0.16705906804E+03  0.41800000000E+01 0.  1.
        -11    1    1    2    0    0  0.56728719696E+01  0.28283028376E+02  0.12518459210E+02  0.31445555990E+02  0.00000000000E+00 0.  1.
         11    1    1    2    0    0  0.35472088430E-01 -0.44634736107E+02  0.15044272236E+03  0.15692442014E+03  0.00000000000E+00 0. -1.
</event>
<event>
 7    1  0.2686828E-009  0.1111736E+03  0.7561462E-02  0.1258412E+00
          2   -1    0    0  501    0  0.00000000000E+00  0.00000000000E+00  0.16015376472E+04  0.16015376472E+04  0.00000000000E+00 0. -1.
         -2   -1    0    0    0  501 -0.00000000000E+00 -0.00000000000E+00 -0.93504474755E+01  0.93504474755E+01  0.00000000000E+00 0.  1.
         25    2    1    2    0    0 -0.40243552412E+02 -0.34282613706E+02  0.12634060354E+04  0.12706837728E+04  0.12509036442E+03 0.  0.
          5    1    3    3  502    0 -0.24647296750E+02  0.46575951208E+02  0.44207005056E+03  0.44521928358E+03  0.41800000000E+01 0. -1.
         -5    1    3    3    0  502 -0.15596255663E+02 -0.80858564915E+02  0.82133598480E+03  0.82546448926E+03  0.41800000000E+01 0. -1.
        -11    1    1    2    0    0  0.50081357988E+02 -0.13157530896E+01  0.17323897933E+03  0.18033751020E+03  0.00000000000E+00 0. -1.
         11    1    1    2    0    0 -0.98378055761E+01  0.35598366796E+02  0.15554218499E+03  0.15986681159E+03  0.00000000000E+00 0.  1.
</event>
<event>
 7    1  0.2686828E-009  0.1067453E+03  0.7561462E-02  0.1266718E+00
          1   -1    0    0  501    0  0.00000000000E+00  0.00000000000E+00  0.12543466751E+03  0.12543466751E+03  0.00000000000E+00 0. -1.
         -1   -1    0    0    0  501 -0.00000000000E+00 -0.00000000000E+00 -0.10649353902E+03  0.10649353902E+03  0.00000000000E+00 0.  1.
         25    2    1    2    0    0 -0.37206217650E+02  0.85263999543E+01  0.18014318595E+01  0.13079355313E+03  0.12508679489E+03 0.  0.
          5    1    3    3  502    0 -0.74881377404E+02 -0.26126947621E+02  0.15673553027E+01  0.79434042303E+02  0.41800000000E+01 0.  1.
         -5    1    3    3    0  502  0.37675159754E+02  0.34653347576E+02  0.23407655685E+00  0.51359510829E+02  0.41800000000E+01 0.  1.
        -11    1    1    2    0    0  0.58714944387E+02 -0.14323650270E+02  0.37358255124E+02  0.71051044168E+02  0.00000000000E+00 0. -1.
         11    1    1    2    0    0 -0.21508726736E+02  0.57972503161E+01 -0.20218558495E+02  0.30083609236E+02  0.00000000000E+00 0.  1.
</event>
<event>
 7    1  0.2686828E-009  0.1354413E+03  0.7561462E-02  0.1219598E+00
         -1   -1    0    0    0  501 -0.00000000000E+00  0.00000000000E+00  0.24747300880E+02  0.24747300880E+02  0.00000000000E+00 0.  1.
          1   -1    0    0  501    0  0.00000000000E+00 -0.00000000000E+00 -0.96399513373E+03  0.96399513373E+03  0.00000000000E+00 0. -1.
         25    2    1    2    0    0  0.66696934037E+02  0.72344696025E+02 -0.66670891958E+03  0.68544167364E+03  0.12508904218E+03 0.  0.
          5    1    3    3  502    0 -0.19188847421E+02  0.45869822415E+02 -0.10133296615E+03  0.11295173705E+03  0.41800000000E+01 0. -1.
         -5    1    3    3    0  502  0.85885781458E+02  0.26474873610E+02 -0.56537595343E+03  0.57248993659E+03  0.41800000000E+01 0. -1.
        -11    1    1    2    0    0 -0.42133276383E+02 -0.90926673802E+02 -0.22901038865E+03  0.24997726116E+03  0.00000000000E+00 0. -1.
         11    1    1    2    0    0 -0.24563657654E+02  0.18581977778E+02 -0.43528524615E+02  0.53323499797E+02  0.00000000000E+00 0.  1.
</event>
<event>
 7    1  0.2686828E-009  0.1008958E+03  0.7561462E-02  0.1278424E+00
         -1   -1    0    0    0  501 -0.00000000000E+00  0.00000000000E+00  0.50167791998E+02  0.50167791998E+02  0.00000000000E+00 0.  1.
          1   -1    0    0  501    0  0.00000000000E+00 -0.00000000000E+00 -0.46018950296E+03  0.46018950296E+03  0.00000000000E+00 0. -1.
         25    2    1    2    0    0  0.40514727510E+02  0.25721492734E+02 -0.38039821025E+03  0.40330244522E+03  0.12508807150E+03 0.  0.
          5    1    3    3  502    0  0.75605029318E+02  0.24595312095E+02 -0.34183662641E+03  0.35098547177E+03  0.41800000000E+01 0. -1.
         -5    1    3    3    0  502 -0.35090301808E+02  0.11261806398E+01 -0.38561583836E+02  0.52316973458E+02  0.41800000000E+01 0. -1.
        -11    1    1    2    0    0 -0.60922151657E+02 -0.11634765629E+02 -0.46103080965E+02  0.77281112881E+02  0.00000000000E+00 0. -1.
         11    1    1    2    0    0  0.20407424147E+02 -0.14086727106E+02  0.16479580251E+02  0.29773736852E+02  0.00000000000E+00 0.  1.
</event>
<event>
 7    1  0.2686828E-009  0.1804369E+03  0.7561462E-02  0.1167381E+00
         -4   -1    0    0    0  501 -0.00000000000E+00  0.00000000000E+00  0.22166616409E+02  0.22166616409E+02  0.00000000000E+00 0.  1.
          4   -1    0    0  501    0  0.00000000000E+00 -0.00000000000E+00 -0.17336882797E+04  0.17336882797E+04  0.00000000000E+00 0. -1.
         25    2    1    2    0    0 -0.15816058261E+03 -0.24446406377E+02 -0.74715184197E+03  0.77427114317E+03  0.12509009363E+03 0.  0.
          5    1    3    3  502    0 -0.74576217287E+02 -0.56089528239E+02 -0.54854900045E+03  0.55644507874E+03  0.41800000000E+01 0.  1.
         -5    1    3    3    0  502 -0.83584365323E+02  0.31643121862E+02 -0.19860284152E+03  0.21782606444E+03  0.41800000000E+01 0.  1.
        -11    1    1    2    0    0  0.90066109660E+01 -0.20353645995E+02 -0.62012087515E+02  0.65885422852E+02  0.00000000000E+00 0.  1.
         11    1    1    2    0    0  0.14915397164E+03  0.44800052373E+02 -0.90235773382E+03  0.91569833009E+03  0.00000000000E+00 0. -1.
</event>
<event>
 7    1  0.2686828E-009  0.9998656E+02  0.7561462E-02  0.1280324E+00
          1   -1    0    0  501    0  0.00000000000E+00  0.00000000000E+00  0.23905951242E+03  0.23905951242E+03  0.00000000000E+00 0. -1.
         -1   -1    0    0    0  501 -0.00000000000E+00 -0.00000000000E+00 -0.87464118502E+02  0.87464118502E+02  0.00000000000E+00 0.  1.
         25    2    1    2    0    0  0.21840471644E+02 -0.76507975031E+02  0.23428375565E+02  0.15008806346E+03  0.12508821514E+03 0.  0.
          5    1    3    3  502    0  0.47152350830E+01 -0.44619198027E+02 -0.50491670246E+02  0.67675604457E+02  0.41800000000E+01 0. -1.
         -5    1    3    3    0  502  0.17125236561E+02 -0.31888777004E+02  0.73920045811E+02  0.82412459002E+02  0.41800000000E+01 0. -1.
        -11    1    1    2    0    0  0.86269696297E+01  0.86101203741E+02  0.10904511125E+03  0.13920732085E+03  0.00000000000E+00 0. -1.
         11    1    1    2    0    0 -0.30467441273E+02 -0.95932287102E+01  0.19121907111E+02  0.37228246620E+02  0.00000000000E+00 0.  1.
</event>
<event>
 7    1  0.2686828E-009  0.1012503E+03  0.7561462E-02  0.1277689E+00
          2   -1    0    0  501    0  0.00000000000E+00  0.00000000000E+00  0.44935766920E+03  0.44935766920E+03  0.00000000000E+00 0. -1.
         -2   -1    0    0    0  501 -0.00000000000E+00 -0.00000000000E+00 -0.39594085017E+02  0.39594085017E+02  0.00000000000E+00 0.  1.
         25    2    1    2    0    0 -0.62882330341E+02  0.51616111693E+01  0.13416984256E+03  0.19397889397E+03  0.12508171311E+03 0.  0.
          5    1    3    3  502    0 -0.73910202616E+02 -0.18083325057E+02  0.22717410691E+02  0.79519040766E+02  0.41800000000E+01 0.  1.
         -5    1    3    3    0  502  0.11027872275E+02  0.23244936226E+02  0.11145243186E+03  0.11445985320E+03  0.41800000000E+01 0.  1.
        -11    1    1    2    0    0  0.81431744172E+02 -0.60755952972E+01  0.25227763046E+03  0.26516418432E+03  0.00000000000E+00 0.  1.
         11    1    1    2    0    0 -0.18549413831E+02  0.91398412795E+00  0.23316111174E+02  0.29808675931E+02  0.00000000000E+00 0. -1.
</event>
<event>
 7    1  0.2686828E-009  0.1127463E+03  0.7561462E-02  0.1255567E+00
         -1   -1    0    0    0  501 -0.00000000000E+00  0.00000000000E+00  0.53232142791E+03  0.53232142791E+03  0.00000000000E+00 0.  1.
          1   -1    0    0  501    0  0.00000000000E+00 -0.00000000000E+00 -0.31059297856E+02  0.31059297856E+02  0.00000000000E+00 0. -1.
         25    2    1    2    0    0  0.43988597213E+02  0.99955712456E+01  0.16164038914E+03  0.20931732876E+03  0.12510483840E+03 0.  0.
          5    1    3    3  502    0  0.61579697884E+02  0.51427373482E+02  0.13427638438E+03  0.15647508983E+03  0.41800000000E+01 0.  1.
         -5    1    3    3    0  502 -0.17591100671E+02 -0.41431802236E+02  0.27364004751E+02  0.52842238933E+02  0.41800000000E+01 0.  1.
        -11    1    1    2    0    0 -0.34407779713E+01 -0.45755629308E+02  0.14659070514E+03  0.15360420372E+03  0.00000000000E+00 0.  1.
         11    1    1    2    0    0 -0.40547819242E+02  0.35760058062E+02  0.19303103578E+03  0.20045919328E+03  0.00000000000E+00 0. -1.
</event>
<event>
 7    1  0.2686828E-009  0.3637916E+03  0.7561462E-02  0.1057093E+00
         -2   -1    0    0    0  501 -0.00000000000E+00  0.00000000000E+00  0.30731864719E+03  0.30731864719E+03  0.00000000000E+00 0.  1.
          2   -1    0    0  501    0  0.00000000000E+00 -0.00000000000E+00 -0.46399590791E+03  0.46399590791E+03  0.00000000000E+00 0. -1.
         25    2    1    2    0    0 -0.34684831140E+03  0.64856166343E+02 -0.15842604611E+03  0.40652035374E+03  0.12509961026E+03 0.  0.
          5    1    3    3  502    0 -0.65313508561E+01  0.25573651280E+02 -0.31146139602E+02  0.41039305500E+02  0.41800000000E+01 0.  1.
         -5    1    3    3    0  502 -0.34031696054E+03  0.39282515063E+02 -0.12727990650E+03  0.36548104824E+03  0.41800000000E+01 0.  1.
        -11    1    1    2    0    0  0.14468225352E+03  0.38558498310E+01 -0.33034537689E+02  0.14845572654E+03  0.00000000000E+00 0.  1.
         11    1    1    2    0    0  0.20216605788E+03 -0.68712016174E+02  0.34783323077E+02  0.21633847483E+03  0.00000000000E+00 0. -1.
</event>
<event>
 7    1  0.2686828E-009  0.2143998E+03  0.7561462E-02  0.1138128E+00
          2   -1    0    0  501    0  0.00000000000E+00  0.00000000000E+00  0.25787818871E+03  0.25787818871E+03  0.00000000000E+00 0. -1.
         -2   -1    0    0    0  501 -0.00000000000E+00 -0.00000000000E+00 -0.29113127863E+03  0.29113127863E+03  0.00000000000E+00 0.  1.
         25    2    1    2    0    0  0.19025163636E+03  0.39488525867E+02 -0.17677650242E+03  0.29095066282E+03  0.12508927843E+03 0.  0.
          5    1    3    3  502    0  0.19148887605E+03  0.68940481336E+01 -0.17237731900E+03  0.25777302042E+03  0.41800000000E+01 0.  1.
         -5    1    3    3    0  502 -0.12372396872E+01  0.32594477733E+02 -0.43991834121E+01  0.33177642403E+02  0.41800000000E+01 0.  1.
        -11    1    1    2    0    0 -0.13129399385E+03 -0.56438630744E+02  0.61375053342E+02  0.15553240510E+03  0.00000000000E+00 0.  1.
         11    1    1    2    0    0 -0.58957642505E+02  0.16950104877E+02  0.82148359154E+02  0.10252639941E+03  0.00000000000E+00 0. -1.
</event>
<event>
 7    1  0.2686828E-009  0.6716583E+02  0.7561462E-02  0.1370005E+00
         -3   -1    0    0    0  501 -0.00000000000E+00  0.00000000000E+00  0.17819279231E+03  0.17819279231E+03  0.00000000000E+00 0.  1.
          3   -1    0    0  501    0  0.00000000000E+00 -0.00000000000E+00 -0.66481085414E+02  0.66481085414E+02  0.00000000000E+00 0. -1.
         25    2    1    2    0    0 -0.15019573992E+02 -0.29422614940E+01  0.64139584349E+02  0.14140912480E+03  0.12509360412E+03 0.  0.
          5    1    3    3  502    0 -0.27799746426E+02  0.16106830793E+02 -0.30163040555E+02  0.44266661440E+02  0.41800000000E+01 0.  1.
         -5    1    3    3    0  502  0.12780172433E+02 -0.19049092287E+02  0.94302624904E+02  0.97142463363E+02  0.41800000000E+01 0.  1.
        -11    1    1    2    0    0  0.44794069342E+02  0.13880281482E+02  0.98691253235E+00  0.46905701770E+02  0.00000000000E+00 0. -1.
         11    1    1    2    0    0 -0.29774495349E+02 -0.10938019988E+02  0.46585210012E+02  0.56359051149E+02  0.00000000000E+00 0.  1.
</event>
<event>
 7    1  0.2686828E-009  0.1334730E+03  0.7561462E-02  0.1222392E+00
         -4   -1    0    0    0  501 -0.00000000000E+00  0.00000000000E+00  0.44018004609E+02  0.44018004609E+02  0.00000000000E+00 0.  1.
          4   -1    0    0  501    0  0.00000000000E+00 -0.00000000000E+00 -0.55466129209E+03  0.55466129209E+03  0.00000000000E+00 0. -1.
         25    2    1    2    0    0 -0.20998136345E+02 -0.87872125050E+02 -0.40100093956E+03  0.42966114646E+03  0.12507803628E+03 0.  0.
          5    1    3    3  502    0 -0.31808405751E+02 -0.11777509688E+03 -0.32522109686E+03  0.34737441236E+03  0.41800000000E+01 0. -1.
         -5    1    3    3    0  502  0.10810269406E+02  0.29902971832E+02 -0.75779842702E+02  0.82286734100E+02  0.41800000000E+01 0. -1.
        -11    1    1    2    0    0 -0.19906670243E+02  0.52060581501E+01  0.56832743016E+01  0.21346619601E+02  0.00000000000E+00 0.  1.
         11    1    1    2    0    0  0.40904806588E+02  0.82666066900E+02 -0.11532562222E+03  0.14767153063E+03  0.00000000000E+00 0. -1.
</event>
<event>
 7    1  0.2686828E-009  0.1466535E+03  0.7561462E-02  0.1204647E+00
         -1   -1    0    0    0  501 -0.00000000000E+00  0.00000000000E+00  0.92290499856E+02  0.92290499856E+02  0.00000000000E+00 0.  1.
          1   -1    0    0  501    0  0.00000000000E+00 -0.00000000000E+00 -0.25852598890E+03  0.25852598890E+03  0.00000000000E+00 0. -1.
         25    2    1    2    0    0 -0.94323836316E+02  0.37333250793E+02 -0.14015928389E+03  0.21350106160E+03  0.12508925106E+03 0.  0.
          5    1    3    3  502    0 -0.63615885932E+02 -0.40007808261E+02 -0.85219509039E+02  0.11369891286E+03  0.41800000000E+01 0.  1.
         -5    1    3    3    0  502 -0.30707950384E+02  0.77341059053E+02 -0.54939774849E+02  0.99802148738E+02  0.41800000000E+01 0.  1.
        -11    1    1    2    0    0  0.79609735741E+02 -0.65401786679E+02 -0.22126911196E+02  0.10537885900E+03  0.00000000000E+00 0.  1.
         11    1    1    2    0    0  0.14714100576E+02  0.28068535887E+02 -0.39492939574E+01  0.31936568152E+02  0.00000000000E+00 0. -1.
</event>
<event>
 7    1  0.2686828E-009  0.5616930E+02  0.7561462E-02  0.1414649E+00
          2   -1    0    0  501    0  0.00000000000E+00  0.00000000000E+00  0.55784318100E+03  0.55784318100E+03  0.00000000000E+00 0. -1.
         -2   -1    0    0    0  501 -0.00000000000E+00 -0.00000000000E+00 -0.25829197464E+02  0.25829197464E+02  0.00000000000E+00 0.  1.
         25    2    1    2    0    0  0.45644409106E+01  0.57764319673E+01  0.42117234594E+03  0.43941719782E+03  0.12508847856E+03 0.  0.
          5    1    3    3  502    0  0.10258843708E+02  0.28970855485E+02  0.41250336781E+03  0.41366780779E+03  0.41800000000E+01 0.  1.
         -5    1    3    3    0  502 -0.56944027972E+01 -0.23194423517E+02  0.86689781308E+01  0.25749390038E+02  0.41800000000E+01 0.  1.
        -11    1    1    2    0    0 -0.15883832435E+02 -0.27968199040E+02  0.11462994414E+03  0.11905687878E+03  0.00000000000E+00 0. -1.
         11    1    1    2    0    0  0.11319391525E+02  0.22191767072E+02 -0.37883065480E+01  0.25198301863E+02  0.00000000000E+00 0.  1.
</event>
<event>
 7    1  0.2686828E-009  0.1458065E+03  0.7561462E-02  0.1205723E+00
         -1   -1    0    0    0  501 -0.00000000000E+00  0.00000000000E+00  0.64011798654E+02  0.64011798654E+02  0.00000000000E+00 0.  1.
          1   -1    0    0  501    0  0.00000000000E+00 -0.00000000000E+00 -0.41248055716E+03  0.41248055716E+03  0.00000000000E+00 0. -1.
         25    2    1    2    0    0 -0.89808849264E+02 -0.38744680752E+02 -0.82093916610E+02  0.17875479762E+03  0.12508831614E+03 0.  0.
          5    1    3    3  502    0 -0.17693356598E+01 -0.66284984818E+02 -0.33504234570E+02  0.74409917989E+02  0.41800000000E+01 0.  1.
         -5    1    3    3    0  502 -0.88039513604E+02  0.27540304066E+02 -0.48589682040E+02  0.10434487963E+03  0.41800000000E+01 0.  1.
        -11    1    1    2    0    0  0.41996796393E+02  0.65676641197E+02 -0.16389257823E+03  0.18148809687E+03  0.00000000000E+00 0.  1.
         11    1    1    2    0    0  0.47812052871E+02 -0.26931960445E+02 -0.10248226366E+03  0.11624946132E+03  0.00000000000E+00 0. -1.
</event>
<event>
 7    1  0.2686828E-009  0.9594100E+02  0.7561462E-02  0.1289071E+00
         -4   -1    0    0    0  501 -0.00000000000E+00  0.00000000000E+00  0.17540851238E+03  0.17540851238E+03  0.00000000000E+00 0.  1.
          4   -1    0    0  501    0  0.00000000000E+00 -0.00000000000E+00 -0.80689649978E+02  0.80689649978E+02  0.00000000000E+00 0. -1.
         25    2    1    2    0    0  0.16984560214E+01 -0.90243686969E+01  0.11637950168E+03  0.17110372552E+03  0.12509185622E+03 0.  0.
          5    1    3    3  502    0  0.56017441876E+02  0.62837115147E+01  0.21192903582E+02  0.60365970438E+02  0.41800000000E+01 0.  1.
         -5    1    3    3    0  502 -0.54318985854E+02 -0.15308080212E+02  0.95186598094E+02  0.11073775508E+03  0.41800000000E+01 0.  1.
        -11    1    1    2    0    0  0.23175376933E+02  0.35529794426E+02  0.49966178631E+00  0.42423036783E+02  0.00000000000E+00 0.  1.
         11    1    1    2    0    0 -0.24873832955E+02 -0.26505425729E+02 -0.22160301065E+02  0.42571400050E+02  0.00000000000E+00 0. -1.
</event>
<event>
 7    1  0.2686828E-009  0.4733521E+02  0.7561462E-02  0.1460269E+00
          1   -1    0    0  501    0  0.00000000000E+00  0.00000000000E+00  0.10296099919E+03  0.10296099919E+03  0.00000000000E+00 0. -1.
         -1   -1    0    0    0  501 -0.00000000000E+00 -0.00000000000E+00 -0.12161113332E+03  0.12161113332E+03  0.00000000000E+00 0.  1.
         25    2    1    2    0    0  0.69954490880E+00 -0.24808065683E+02  0.53470895166E+01  0.12763535198E+03  0.12508501998E+03 0.  0.
          5    1    3    3  502    0  0.14640526149E+02 -0.35620897788E+02  0.59235840437E+02  0.70778178540E+02  0.41800000000E+01 0.  1.
         -5    1    3    3    0  502 -0.13940981240E+02  0.10812832105E+02 -0.53888750921E+02  0.56857173442E+02  0.41800000000E+01 0.  1.
        -11    1    1    2    0    0 -0.11690818743E+02  0.24100964024E+02 -0.56548808959E+02  0.62572354155E+02  0.00000000000E+00 0.  1.
         11    1    1    2    0    0  0.10991273834E+02  0.70710165806E+00  0.32551585319E+02  0.34364426374E+02  0.00000000000E+00 0. -1.
</event>
<event>
 7    1  0.2686828E-009  0.2280317E+03  0.7561462E-02  0.1128033E+00
         -1   -1    0    0    0  501 -0.00000000000E+00  0.00000000000E+00  0.76479585902E+02  0.76479585902E+02  0.00000000000E+00 0.  1.
          1   -1    0    0  501    0  0.00000000000E+00 -0.00000000000E+00 -0.78407295474E+03  0.78407295474E+03  0.00000000000E+00 0. -1.
         25    2    1    2    0    0 -0.21698140056E+03 -0.10035217242E+02 -0.41602419301E+03  0.48570104860E+03  0.12509094959E+03 0.  0.
          5    1    3    3  502    0 -0.94474724407E+02  0.19561067397E+02 -0.29697863144E+03  0.31228494815E+03  0.41800000000E+01 0.  1.
         -5    1    3    3    0  502 -0.12250667615E+03 -0.29596284639E+02 -0.11904556157E+03  0.17341610045E+03  0.41800000000E+01 0.  1.
        -11    1    1    2    0    0  0.16751155822E+03  0.44234569353E+02 -0.19275053250E+03  0.25917096103E+03  0.00000000000E+00 0. -1.
         11    1    1    2    0    0  0.49469842338E+02 -0.34199352111E+02 -0.98818643326E+02  0.11568053101E+03  0.00000000000E+00 0.  1.
</event>
<event>
 7    1  0.2686828E-009  0.9996440E+02  0.7561462E-02  0.1280371E+00
          2   -1    0    0  501    0  0.00000000000E+00  0.00000000000E+00  0.12277783169E+03  0.12277783169E+03  0.00000000000E+00 0.  1.
         -2   -1    0    0    0  501 -0.00000000000E+00 -0.00000000000E+00 -0.10685800441E+03  0.10685800441E+03  0.00000000000E+00 0. -1.
         25    2    1    2    0    0  0.26033118339E+02 -0.36081116205E+01 -0.16470211024E+02  0.12888049264E+03  0.12509265291E+03 0.  0.
          5    1    3    3  502    0  0.20560984095E+02 -0.53255505395E+02 -0.43537924161E+02  0.71916105026E+02  0.41800000000E+01 0. -1.
         -5    1    3    3    0  502  0.54721342444E+01  0.49647393774E+02  0.27067713137E+02  0.56964387614E+02  0.41800000000E+01 0. -1.
        -11    1    1    2    0    0  0.29998993281E+02  0.17644214902E+02  0.57074568431E+00  0.34807810445E+02  0.00000000000E+00 0. -1.
         11    1    1    2    0    0 -0.56032111620E+02 -0.14036103281E+02  0.31819292617E+02  0.65947533013E+02  0.00000000000E+00 0.  1.
</event>
<event>
 7    1  0.2686828E-009  0.1136338E+03  0.7561462E-02  0.1253985E+00
          2   -1    0    0  501    0  0.00000000000E+00  0.00000000000E+00  0.13428888857E+03  0.13428888857E+03  0.00000000000E+00 0. -1.
         -2   -1    0    0    0  501 -0.00000000000E+00 -0.00000000000E+00 -0.10512713224E+03  0.10512713224E+03  0.00000000000E+00 0.  1.
         25    2    1    2    0    0  0.64516616747E+01  0.44716258694E+02  0.65945908116E+01  0.13316849089E+03  0.12509672500E+03 0.  0.
          5    1    3    3  502    0  0.53152956029E+01  0.88523741622E+02  0.94790496476E+00  0.88786688878E+02  0.41800000000E+01 0.  1.
         -5    1    3    3    0  502  0.11363660719E+01 -0.43807482928E+02  0.56466858469E+01  0.44381802007E+02  0.41800000000E+01 0.  1.
        -11    1    1    2    0    0  0.20141231854E+02 -0.60346358495E+02  0.35438893347E+02  0.72823535797E+02  0.00000000000E+00 0. -1.
         11    1    1    2    0    0 -0.26592893529E+02  0.15630099801E+02 -0.12871727830E+02  0.33423994126E+02  0.00000000000E+00 0.  1.
</event>
<event>
 7    1  0.2686828E-009  0.1419380E+03  0.7561462E-02  0.1210745E+00
          2   -1    0    0  501    0  0.00000000000E+00  0.00000000000E+00  0.49915403020E+02  0.49915403020E+02  0.00000000000E+00 0. -1.
         -2   -1    0    0    0  501 -0.00000000000E+00 -0.00000000000E+00 -0.46327312071E+03  0.46327312071E+03  0.00000000000E+00 0.  1.
         25    2    1    2    0    0 -0.10536546309E+03 -0.53978397537E+00 -0.19611317854E+03  0.25535644471E+03  0.12507742754E+03 0.  0.
          5    1    3    3  502    0 -0.11330884346E+03  0.27522648635E+02 -0.19326669689E+03  0.22575623739E+03  0.41800000000E+01 0.  1.
         -5    1    3    3    0  502  0.79433803680E+01 -0.28062432610E+02 -0.28464816511E+01  0.29600207321E+02  0.41800000000E+01 0.  1.
        -11    1    1    2    0    0  0.32916478403E+02 -0.42276173325E+02 -0.68918461541E+02  0.87295611131E+02  0.00000000000E+00 0. -1.
         11    1    1    2    0    0  0.72448984685E+02  0.42815957300E+02 -0.14832607760E+03  0.17053646788E+03  0.00000000000E+00 0.  1.
</event>
<event>
 7    1  0.2686828E-009  0.1341083E+03  0.7561462E-02  0.1221484E+00
         -1   -1    0    0    0  501 -0.00000000000E+00  0.00000000000E+00  0.70370764654E+02  0.70370764654E+02  0.00000000000E+00 0.  1.
          1   -1    0    0  501    0  0.00000000000E+00 -0.00000000000E+00 -0.32005496803E+03  0.32005496803E+03  0.00000000000E+00 0. -1.
         25    2    1    2    0    0 -0.12926496058E+02 -0.90221630355E+02 -0.85598742315E+02  0.17686728307E+03  0.12509138360E+03 0.  0.
          5    1    3    3  502    0  0.28975910055E+02  0.91940398615E+01 -0.57703813388E+02  0.65355460460E+02  0.41800000000E+01 0.  1.
         -5    1    3    3    0  502 -0.41902406113E+02 -0.99415670216E+02 -0.27894928927E+02  0.11151182261E+03  0.41800000000E+01 0.  1.
        -11    1    1    2    0    0 -0.37104332688E+02  0.16831879870E+02 -0.86533198170E+02  0.95645376625E+02  0.00000000000E+00 0. -1.
         11    1    1    2    0    0  0.50030828746E+02  0.73389750485E+02 -0.77552262891E+02  0.11791307299E+03  0.00000000000E+00 0.  1.
</event>
<event>
 7    1  0.2686828E-009  0.1996547E+03  0.7561462E-02  0.1150031E+00
         -2   -1    0    0    0  501 -0.00000000000E+00  0.00000000000E+00  0.60888669465E+02  0.60888669465E+02  0.00000000000E+00 0.  1.
          2   -1    0    0  501    0  0.00000000000E+00 -0.00000000000E+00 -0.97197192930E+03  0.97197192930E+03  0.00000000000E+00 0. -1.
         25    2    1    2    0    0 -0.12725463186E+03 -0.12700545980E+03 -0.75149097138E+03  0.78275789492E+03  0.12508842408E+03 0.  0.
          5    1    3    3  502    0 -0.14779463183E+03 -0.13102371738E+03 -0.68574932792E+03  0.71363862064E+03  0.41800000000E+01 0.  1.
         -5    1    3    3    0  502  0.20539999967E+02  0.40182575865E+01 -0.65741643459E+02  0.69119274283E+02  0.41800000000E+01 0.  1.
        -11    1    1    2    0    0  0.10355906515E+03  0.94567441349E+02 -0.15600212384E+03  0.20977164628E+03  0.00000000000E+00 0. -1.
         11    1    1    2    0    0  0.23695566711E+02  0.32438018448E+02 -0.35901646064E+01  0.40331057567E+02  0.00000000000E+00 0.  1.
</event>
<event>
 7    1  0.2686828E-009  0.1062980E+03  0.7561462E-02  0.1267583E+00
         -1   -1    0    0    0  501 -0.00000000000E+00  0.00000000000E+00  0.48582589630E+02  0.48582589630E+02  0.00000000000E+00 0.  1.
          1   -1    0    0  501    0  0.00000000000E+00 -0.00000000000E+00 -0.28091697527E+03  0.28091697527E+03  0.00000000000E+00 0. -1.
         25    2    1    2    0    0 -0.26515864796E+02  0.95931233593E+01 -0.79495171017E+02  0.15087048743E+03  0.12508917883E+03 0.  0.
          5    1    3    3  502    0  0.47731692238E+02 -0.12470361123E+02 -0.40956744317E+02  0.64255362854E+02  0.41800000000E+01 0. -1.
         -5    1    3    3    0  502 -0.74247557034E+02  0.22063484483E+02 -0.38538426700E+02  0.86615124577E+02  0.41800000000E+01 0. -1.
        -11    1    1    2    0    0 -0.54326857944E+01  0.32343351820E+02 -0.94345502179E+02  0.99883333261E+02  0.00000000000E+00 0.  1.
         11    1    1    2    0    0  0.31948550590E+02 -0.41936475179E+02 -0.58493712440E+02  0.78745744204E+02  0.00000000000E+00 0. -1.
</event>
<event>
 7    1  0.2686828E-009  0.1131525E+03  0.7561462E-02  0.1254841E+00
          2   -1    0    0  501    0  0.00000000000E+00  0.00000000000E+00  0.71809492034E+03  0.71809492034E+03  0.00000000000E+00 0. -1.
         -2   -1    0    0    0  501 -0.00000000000E+00 -0.00000000000E+00 -0.21343133092E+02  0.21343133092E+02  0.00000000000E+00 0.  1.
         25    2    1    2    0    0  0.43584423263E+02  0.20816317433E+02  0.45249427006E+03  0.47194459311E+03  0.12509082103E+03 0.  0.
          5    1    3    3  502    0  0.53037651231E+02  0.67013433567E+02  0.26012762058E+03  0.27383871917E+03  0.41800000000E+01 0.  1.
         -5    1    3    3    0  502 -0.94532279683E+01 -0.46197116135E+02  0.19236664948E+03  0.19810587394E+03  0.41800000000E+01 0.  1.
        -11    1    1    2    0    0 -0.16781843653E+02  0.30893868346E+02  0.16744382540E+03  0.17109499128E+03  0.00000000000E+00 0. -1.
         11    1    1    2    0    0 -0.26802579610E+02 -0.51710185779E+02  0.76813691790E+02  0.96398469041E+02  0.00000000000E+00 0.  1.
</event>
<event>
 7    1  0.2686828E-009  0.8208128E+02  0.7561462E-02  0.1323247E+00
          1   -1    0    0  501    0  0.00000000000E+00  0.00000000000E+00  0.11215274830E+03  0.11215274830E+03  0.00000000000E+00 0. -1.
         -1   -1    0    0    0  501 -0.00000000000E+00 -0.00000000000E+00 -0.11119706579E+03  0.11119706579E+03  0.00000000000E+00 0.  1.
         25    2    1    2    0    0  0.21805966887E+02  0.16596122726E+02  0.50256094202E+01  0.12815601782E+03  0.12509107351E+03 0.  0.
          5    1    3    3  502    0  0.72021517837E+02  0.62740686187E+01  0.18980192221E+02  0.74861091799E+02  0.41800000000E+01 0. -1.
         -5    1    3    3    0  502 -0.50215550950E+02  0.10322054108E+02 -0.13954582801E+02  0.53294926019E+02  0.41800000000E+01 0. -1.
        -11    1    1    2    0    0  0.63110436752E+01 -0.93424805244E+01  0.40477376882E+02  0.42018201459E+02  0.00000000000E+00 0. -1.
         11    1    1    2    0    0 -0.28117010562E+02 -0.72536422019E+01 -0.44547303791E+02  0.53175594808E+02  0.00000000000E+00 0.  1.
</event>
<event>
 7    1  0.2686828E-009  0.1905479E+03  0.7561462E-02  0.1157968E+00
          2   -1    0    0  501    0  0.00000000000E+00  0.00000000000E+00  0.54022477856E+02  0.54022477856E+02  0.00000000000E+00 0. -1.
         -2   -1    0    0    0  501 -0.00000000000E+00 -0.00000000000E+00 -0.76196464400E+03  0.76196464400E+03  0.00000000000E+00 0.  1.
         25    2    1    2    0    0 -0.89966623545E+02 -0.14387118126E+03 -0.41434699222E+03  0.46489200936E+03  0.12509292651E+03 0.  0.
          5    1    3    3  502    0 -0.12066958522E+03 -0.99068168456E+02 -0.29928944834E+03  0.33759042801E+03  0.41800000000E+01 0.  1.
         -5    1    3    3    0  502  0.30702961673E+02 -0.44803012799E+02 -0.11505754388E+03  0.12730158135E+03  0.41800000000E+01 0.  1.
        -11    1    1    2    0    0  0.54622751296E+02  0.10147280803E+03 -0.26490596651E+03  0.28888673701E+03  0.00000000000E+00 0.  1.
         11    1    1    2    0    0  0.35343872249E+02  0.42398373221E+02 -0.28689207416E+02  0.62208375477E+02  0.00000000000E+00 0. -1.
</event>
<event>
 7    1  0.2686828E-009  0.1861923E+03  0.7561462E-02  0.1161941E+00
         -2   -1    0    0    0  501 -0.00000000000E+00  0.00000000000E+00  0.43657608760E+02  0.43657608760E+02  0.00000000000E+00 0. -1.
          2   -1    0    0  501    0  0.00000000000E+00 -0.00000000000E+00 -0.94173335671E+03  0.94173335671E+03  0.00000000000E+00 0.  1.
         25    2    1    2    0    0  0.91378669672E+02 -0.13017631020E+03 -0.31583824765E+03  0.37510050605E+03  0.12510258973E+03 0.  0.
          5    1    3    3  502    0 -0.29291118962E+02 -0.19641360498E+02 -0.33961726235E+02  0.49138823156E+02  0.41800000000E+01 0. -1.
         -5    1    3    3    0  502  0.12066978863E+03 -0.11053494970E+03 -0.28187652141E+03  0.32596168290E+03  0.41800000000E+01 0. -1.
        -11    1    1    2    0    0 -0.84279366126E+01  0.70464696557E+02 -0.14728284226E+03  0.16348865159E+03  0.00000000000E+00 0. -1.
         11    1    1    2    0    0 -0.82950733059E+02  0.59711613639E+02 -0.43495465805E+03  0.44680180783E+03  0.00000000000E+00 0.  1.
</event>
<event>
 7    1  0.2686828E-009  0.2309169E+03  0.7561462E-02  0.1125996E+00
         -4   -1    0    0    0  501 -0.00000000000E+00  0.00000000000E+00  0.10862401250E+04  0.10862401250E+04  0.00000000000E+00 0.  1.
          4   -1    0    0  501    0  0.00000000000E+00 -0.00000000000E+00 -0.57047984745E+02  0.57047984745E+02  0.00000000000E+00 0. -1.
         25    2    1    2    0    0  0.17907617127E+02  0.22024441269E+03  0.46320836444E+03  0.52823962338E+03  0.12508727655E+03 0.  0.
          5    1    3    3  502    0 -0.31837358935E+02  0.11218181871E+03  0.13143573624E+03  0.17575893444E+03  0.41800000000E+01 0. -1.
         -5    1    3    3    0  502  0.49744976062E+02  0.10806259398E+03  0.33177262819E+03  0.35248068895E+03  0.41800000000E+01 0. -1.
        -11    1    1    2    0    0  0.86164108563E+01 -0.16064376531E+03  0.48542322171E+03  0.51138670891E+03  0.00000000000E+00 0.  1.
         11    1    1    2    0    0 -0.26524027983E+02 -0.59600647379E+02  0.80560554131E+02  0.10366177748E+03  0.00000000000E+00 0. -1.
</event>
<event>
 7    1  0.2686828E-009  0.1848600E+03  0.7561462E-02  0.1163181E+00
          1   -1    0    0  501    0  0.00000000000E+00  0.00000000000E+00  0.28668712836E+03  0.28668712836E+03  0.00000000000E+00 0. -1.
         -1   -1    0    0    0  501 -0.00000000000E+00 -0.00000000000E+00 -0.18140238709E+03  0.18140238709E+03  0.00000000000E+00 0.  1.
         25    2    1    2    0    0  0.13666410074E+03  0.77496166070E+02  0.18153465021E+03  0.27071219299E+03  0.12509008763E+03 0.  0.
          5    1    3    3  502    0  0.14878187027E+03  0.30833595609E+02  0.12989407075E+03  0.19994173541E+03  0.41800000000E+01 0. -1.
         -5    1    3    3    0  502 -0.12117769539E+02  0.46662570461E+02  0.51640579453E+02  0.70770457586E+02  0.41800000000E+01 0. -1.
        -11    1    1    2    0    0 -0.27088994234E+02 -0.49190160747E+02  0.74066896853E+01  0.56642250794E+02  0.00000000000E+00 0. -1.
         11    1    1    2    0    0 -0.10957510650E+03 -0.28306005323E+02 -0.83656598629E+02  0.14073507166E+03  0.00000000000E+00 0.  1.
</event>
<event>
 7    1  0.3060938E-009  0.2576923E+03  0.7561462E-02  0.1108538E+00
          1   -1    0    0  501    0  0.00000000000E+00  0.00000000000E+00  0.86206411157E+03  0.86206411157E+03  0.00000000000E+00 0.  1.
         -1   -1    0    0    0  501 -0.00000000000E+00 -0.00000000000E+00 -0.89953573045E+02  0.89953573045E+02  0.00000000000E+00 0. -1.
         25    2    1    2    0    0 -0.25140380752E+03 -0.33494240668E+01  0.31069185690E+03  0.41879691225E+03  0.12508529368E+03 0.  0.
          5    1    3    3  502    0 -0.37858324866E+02  0.22995597515E+01  0.14063927879E+03  0.14572377937E+03  0.41800000000E+01 0. -1.
         -5    1    3    3    0  502 -0.21354548265E+03 -0.56489838183E+01  0.17005257811E+03  0.27307313288E+03  0.41800000000E+01 0. -1.
        -11    1    1    2    0    0  0.52300132616E+02 -0.32050473596E+02  0.14819199358E+03  0.16038517292E+03  0.00000000000E+00 0.  1.
         11    1    1    2    0    0  0.19910367490E+03  0.35399897662E+02  0.31322668805E+03  0.37283559945E+03  0.00000000000E+00 0. -1.
</event>
<event>
 7    1  0.2686828E-009  0.1670712E+03  0.7561462E-02  0.1180937E+00
         -1   -1    0    0    0  501 -0.00000000000E+00  0.00000000000E+00  0.53296487774E+02  0.53296487774E+02  0.00000000000E+00 0.  1.
          1   -1    0    0  501    0  0.00000000000E+00 -0.00000000000E+00 -0.52870982591E+03  0.52870982591E+03  0.00000000000E+00 0. -1.
         25    2    1    2    0    0  0.11074517261E+03  0.63492186714E+02 -0.24511690484E+03  0.30335233354E+03  0.12507833625E+03 0.  0.
          5    1    3    3  502    0  0.13596955004E+03  0.35513077993E+02 -0.18668479597E+03  0.23370404937E+03  0.41800000000E+01 0. -1.
         -5    1    3    3    0  502 -0.25224377426E+02  0.27979108721E+02 -0.58432108867E+02  0.69648284171E+02  0.41800000000E+01 0. -1.
        -11    1    1    2    0    0 -0.23200272121E+01 -0.45715792698E+02 -0.84386465466E+02  0.96002040510E+02  0.00000000000E+00 0.  1.
         11    1    1    2    0    0 -0.10842514540E+03 -0.17776394017E+02 -0.14590996783E+03  0.18265193963E+03  0.00000000000E+00 0. -1.
</event>
<event>
 7    1  0.2686828E-009  0.1291792E+03  0.7561462E-02  0.1228679E+00
          2   -1    0    0  501    0  0.00000000000E+00  0.00000000000E+00  0.17568910466E+04  0.17568910466E+04  0.00000000000E+00 0. -1.
         -2   -1    0    0    0  501 -0.00000000000E+00 -0.00000000000E+00 -0.11901566034E+02  0.11901566034E+02  0.00000000000E+00 0.  1.
         25    2    1    2    0    0  0.16829042375E+02 -0.70411237986E+02  0.13411619274E+04  0.13489264852E+04  0.12508552262E+03 0.  0.
          5    1    3    3  502    0 -0.52597796617E+02 -0.16035024660E+02  0.43740650200E+03  0.44086910826E+03  0.41800000000E+01 0. -1.
         -5    1    3    3    0  502  0.69426838992E+02 -0.54376213326E+02  0.90375542537E+03  0.90805737695E+03  0.41800000000E+01 0. -1.
        -11    1    1    2    0    0 -0.42570487878E+02  0.28941090785E+01  0.14700353413E+03  0.15307077236E+03  0.00000000000E+00 0.  1.
         11    1    1    2    0    0  0.25741445503E+02  0.67517128907E+02  0.25682401903E+03  0.26679535502E+03  0.00000000000E+00 0. -1.
</event>
<event>
 7    1  0.2686828E-009  0.7891701E+02  0.7561462E-02  0.1332153E+00
          2   -1    0    0  501    0  0.00000000000E+00  0.00000000000E+00  0.33333545784E+03  0.33333545784E+03  0.00000000000E+00 0.  1.
         -2   -1    0    0    0  501 -0.00000000000E+00 -0.00000000000E+00 -0.86779234718E+02  0.86779234718E+02  0.00000000000E+00 0. -1.
         25    2    1    2    0    0  0.14773797580E+02  0.68568975876E+01  0.29115614175E+03  0.31730869585E+03  0.12509047704E+03 0.  0.
          5    1    3    3  502    0 -0.52880809008E+02  0.86943780125E+01  0.17206596488E+03  0.18026686008E+03  0.41800000000E+01 0. -1.
         -5    1    3    3    0  502  0.67654606588E+02 -0.18374804250E+01  0.11909017687E+03  0.13704183578E+03  0.41800000000E+01 0. -1.
        -11    1    1    2    0    0 -0.23550429817E+02  0.22089012898E+01 -0.70301443315E+02  0.74174085243E+02  0.00000000000E+00 0. -1.
         11    1    1    2    0    0  0.87766322370E+01 -0.90657988774E+01  0.25701524685E+02  0.28631911459E+02  0.00000000000E+00 0.  1.
</event>
<event>
 7    1  0.2686828E-009  0.1062255E+03  0.7561462E-02  0.1267724E+00
         -2   -1    0    0    0  501 -0.00000000000E+00  0.00000000000E+00  0.19450849113E+02  0.19450849113E+02  0.00000000000E+00 0.  1.
          2   -1    0    0  501    0  0.00000000000E+00 -0.00000000000E+00 -0.99462641194E+03  0.99462641194E+03  0.00000000000E+00 0. -1.
         25    2    1    2    0    0  0.78174126142E+02  0.25279663006E+02 -0.64191779770E+03  0.65913218336E+03  0.12508605350E+03 0.  0.
          5    1    3    3  502    0  0.18989353251E+02  0.43368980781E+02 -0.52165086519E+03  0.52381157069E+03  0.41800000000E+01 0.  1.
         -5    1    3    3    0  502  0.59184772891E+02 -0.18089317775E+02 -0.12026693250E+03  0.13532061267E+03  0.41800000000E+01 0.  1.
        -11    1    1    2    0    0 -0.31139798934E+02 -0.42603688303E+02 -0.74013376773E+02  0.90899621979E+02  0.00000000000E+00 0.  1.
         11    1    1    2    0    0 -0.47034327208E+02  0.17324025297E+02 -0.25924438836E+03  0.26404545572E+03  0.00000000000E+00 0. -1.
</event>
<event>
 7    1  0.2686828E-009  0.1270672E+03  0.7561462E-02  0.1231873E+00
          2   -1    0    0  501    0  0.00000000000E+00  0.00000000000E+00  0.16106551985E+03  0.16106551985E+03  0.00000000000E+00 0. -1.
         -2   -1    0    0    0  501 -0.00000000000E+00 -0.00000000000E+00 -0.11065682948E+03  0.11065682948E+03  0.00000000000E+00 0.  1.
         25    2    1    2    0    0 -0.51230894369E+02  0.57481059805E+02  0.36321192878E+02  0.15131305960E+03  0.12509091166E+03 0.  0.
          5    1    3    3  502    0  0.30923551960E+02 -0.10387134958E+02 -0.10948334869E+02  0.34662617830E+02  0.41800000000E+01 0.  1.
         -5    1    3    3    0  502 -0.82154446329E+02  0.67868194763E+02  0.47269527747E+02  0.11665044177E+03  0.41800000000E+01 0.  1.
        -11    1    1    2    0    0  0.49342634702E+02 -0.78922662843E+02 -0.26926634058E+01  0.93116769412E+02  0.00000000000E+00 0.  1.
         11    1    1    2    0    0  0.18882596676E+01  0.21441603038E+02  0.16780160897E+02  0.27292520315E+02  0.00000000000E+00 0. -1.
</event>
<event>
 7    1  0.2686828E-009  0.1576872E+03  0.7561462E-02  0.1191333E+00
          2   -1    0    0  501    0  0.00000000000E+00  0.00000000000E+00  0.43555896347E+03  0.43555896347E+03  0.00000000000E+00 0. -1.
         -2   -1    0    0    0  501 -0.00000000000E+00 -0.00000000000E+00 -0.66275406073E+02  0.66275406073E+02  0.00000000000E+00 0.  1.
         25    2    1    2    0    0 -0.66963172576E+02 -0.10896307883E+03  0.23522985705E+03  0.29552979351E+03  0.12509098358E+03 0.  0.
          5    1    3    3  502    0 -0.81261724246E+02 -0.11778120681E+03  0.14539358368E+03  0.20404079759E+03  0.41800000000E+01 0.  1.
         -5    1    3    3    0  502  0.14298551670E+02  0.88181279814E+01  0.89836273372E+02  0.91488995920E+02  0.41800000000E+01 0.  1.
        -11    1    1    2    0    0 -0.43379499662E+01  0.76399999040E+02  0.50200768149E+02  0.91519914696E+02  0.00000000000E+00 0. -1.
         11    1    1    2    0    0  0.71301122542E+02  0.32563079787E+02  0.83852932193E+02  0.11478466134E+03  0.00000000000E+00 0.  1.
</event>
<event>
 7    1  0.2686828E-009  0.2337000E+03  0.7561462E-02  0.1124062E+00
         -2   -1    0    0    0  501 -0.00000000000E+00  0.00000000000E+00  0.80193825788E+02  0.80193825788E+02  0.00000000000E+00 0.  1.
          2   -1    0    0  501    0  0.00000000000E+00 -0.00000000000E+00 -0.77930182279E+03  0.77930182279E+03  0.00000000000E+00 0. -1.
         25    2    1    2    0    0  0.16712741995E+03  0.14992350442E+03 -0.37828293476E+03  0.45733507906E+03  0.12509502041E+03 0.  0.
          5    1    3    3  502    0  0.21559437763E+02  0.21576409252E+01  0.39599286907E+01  0.22419148205E+02  0.41800000000E+01 0.  1.
         -5    1    3    3    0  502  0.14556798219E+03  0.14776586349E+03 -0.38224286345E+03  0.43491593085E+03  0.41800000000E+01 0.  1.
        -11    1    1    2    0    0 -0.36514829058E+02 -0.83929871944E+02 -0.86757736048E+02  0.12611288955E+03  0.00000000000E+00 0.  1.
         11    1    1    2    0    0 -0.13061259089E+03 -0.65993632472E+02 -0.23406732619E+03  0.27604767997E+03  0.00000000000E+00 0. -1.
</event>
<event>
 7    1  0.2686828E-009  0.1156865E+03  0.7561462E-02  0.1250387E+00
         -1   -1    0    0    0  501 -0.00000000000E+00  0.00000000000E+00  0.54657070737E+02  0.54657070737E+02  0.00000000000E+00 0.  1.
          1   -1    0    0  501    0  0.00000000000E+00 -0.00000000000E+00 -0.33890006594E+03  0.33890006594E+03  0.00000000000E+00 0. -1.
         25    2    1    2    0    0 -0.12128942481E+02  0.76052059908E+02 -0.19586169384E+03  0.24482798718E+03  0.12509161896E+03 0.  0.
          5    1    3    3  502    0  0.39373221229E+02  0.69801538757E+02 -0.62648202673E+02  0.10180753931E+03  0.41800000000E+01 0.  1.
         -5    1    3    3    0  502 -0.51502163710E+02  0.62505211512E+01 -0.13321349116E+03  0.14302044787E+03  0.41800000000E+01 0.  1.
        -11    1    1    2    0    0 -0.17448620389E+02 -0.65321056852E+02 -0.94973860984E+02  0.11658185576E+03  0.00000000000E+00 0. -1.
         11    1    1    2    0    0  0.29577562870E+02 -0.10731003056E+02  0.65925596214E+01  0.32147293732E+02  0.00000000000E+00 0.  1.
</event>
<event>
 7    1  0.2686828E-009  0.1704671E+03  0.7561462E-02  0.1177362E+00
          1   -1    0    0  501    0  0.00000000000E+00  0.00000000000E+00  0.89068723781E+02  0.89068723781E+02  0.00000000000E+00 0. -1.
         -1   -1    0    0    0  501 -0.00000000000E+00 -0.00000000000E+00 -0.36147360754E+03  0.36147360754E+03  0.00000000000E+00 0.  1.
         25    2    1    2    0    0 -0.12281823445E+03  0.71268084801E+02 -0.12645615703E+03  0.22759272167E+03  0.12507529204E+03 0.  0.
          5    1    3    3  502    0 -0.58227817097E+02 -0.19016585664E+02 -0.29369340938E+01  0.61467122888E+02  0.41800000000E+01 0.  1.
         -5    1    3    3    0  502 -0.64590417356E+02  0.90284670465E+02 -0.12351922293E+03  0.16612559878E+03  0.41800000000E+01 0.  1.
        -11    1    1    2    0    0  0.10570811197E+03 -0.11561225546E+02 -0.88584704352E+02  0.13840201124E+03  0.00000000000E+00 0. -1.
         11    1    1    2    0    0  0.17110122487E+02 -0.59706859255E+02 -0.57364022384E+02  0.84547598414E+02  0.00000000000E+00 0.  1.
</event>
<event>
 7    1  0.2686828E-009  0.1013798E+03  0.7561462E-02  0.1277421E+00
         -1   -1    0    0    0  501 -0.00000000000E+00  0.00000000000E+00  0.13501348926E+02  0.13501348926E+02  0.00000000000E+00 0.  1.
          1   -1    0    0  501    0  0.00000000000E+00 -0.00000000000E+00 -0.97954351573E+03  0.97954351573E+03  0.00000000000E+00 0. -1.
         25    2    1    2    0    0  0.96838162977E+01 -0.10267121165E+02 -0.68274434821E+03  0.69425208098E+03  0.12508763671E+03 0.  0.
          5    1    3    3  502    0  0.21398234018E+02  0.45624397585E+02 -0.50470632314E+03  0.50723309739E+03  0.41800000000E+01 0. -1.
         -5    1    3    3    0  502 -0.11714417720E+02 -0.55891518750E+02 -0.17803802507E+03  0.18701898359E+03  0.41800000000E+01 0. -1.
        -11    1    1    2    0    0  0.20233749310E+02  0.44852311026E+02 -0.15095723089E+03  0.15877411620E+03  0.00000000000E+00 0.  1.
         11    1    1    2    0    0 -0.29917565608E+02 -0.34585189861E+02 -0.13234058770E+03  0.14001866748E+03  0.00000000000E+00 0. -1.
</event>
<event>
 7    1  0.2686828E-009  0.7313602E+02  0.7561462E-02  0.1349742E+00
          2   -1    0    0  501    0  0.00000000000E+00  0.00000000000E+00  0.23176127347E+03  0.23176127347E+03  0.00000000000E+00 0. -1.
         -2   -1    0    0    0  501 -0.00000000000E+00 -0.00000000000E+00 -0.21579923114E+03  0.21579923114E+03  0.00000000000E+00 0.  1.
         25    2    1    2    0    0 -0.68147121833E+01 -0.46411983298E+02 -0.18073178304E+03  0.22474967322E+03  0.12509166924E+03 0.  0.
          5    1    3    3  502    0 -0.12313427020E+02 -0.53040838879E+02 -0.19778878381E+03  0.20518973287E+03  0.41800000000E+01 0.  1.
         -5    1    3    3    0  502  0.54987148369E+01  0.66288555807E+01  0.17057000768E+02  0.19559940346E+02  0.41800000000E+01 0.  1.
        -11    1    1    2    0    0  0.35204614049E+02  0.39414379464E+02  0.18308460874E+03  0.19055926143E+03  0.00000000000E+00 0. -1.
         11    1    1    2    0    0 -0.28389901866E+02  0.69976038339E+01  0.13609216638E+02  0.32251569960E+02  0.00000000000E+00 0.  1.
</event>
<event>
 7    1  0.2686828E-009  0.3178285E+03  0.7561462E-02  0.1076653E+00
         -2   -1    0    0    0  501 -0.00000000000E+00  0.00000000000E+00  0.62860426338E+02  0.62860426338E+02  0.00000000000E+00 0. -1.
          2   -1    0    0  501    0  0.00000000000E+00 -0.00000000000E+00 -0.23246484696E+04  0.23246484696E+04  0.00000000000E+00 0.  1.
         25    2    1    2    0    0  0.30818399583E+03  0.10793578587E+02 -0.17629781901E+04  0.17941116438E+04  0.12510241879E+03 0.  0.
          5    1    3    3  502    0  0.23195529134E+02 -0.24499022295E+02 -0.81864070848E+02  0.88642163563E+02  0.41800000000E+01 0.  1.
         -5    1    3    3    0  502  0.28498846670E+03  0.35292600882E+02 -0.16811141192E+04  0.17054694803E+04  0.41800000000E+01 0.  1.
        -11    1    1    2    0    0 -0.14283717437E+03  0.25721635098E+02 -0.29223537928E+03  0.32629063394E+03  0.00000000000E+00 0.  1.
         11    1    1    2    0    0 -0.16534682146E+03 -0.36515213684E+02 -0.20657447385E+03  0.26710661812E+03  0.00000000000E+00 0. -1.
</event>
<event>
 7    1  0.2686828E-009  0.1366561E+03  0.7561462E-02  0.1217901E+00
          4   -1    0    0  501    0  0.00000000000E+00  0.00000000000E+00  0.12477501517E+03  0.12477501517E+03  0.00000000000E+00 0. -1.
         -4   -1    0    0    0  501 -0.00000000000E+00 -0.00000000000E+00 -0.15555697290E+03  0.15555697290E+03  0.00000000000E+00 0.  1.
         25    2    1    2    0    0  0.22424086567E+02 -0.83862076271E+02 -0.11087582674E+02  0.15266304206E+03  0.12508949766E+03 0.  0.
          5    1    3    3  502    0  0.64176413003E+02 -0.86772178900E+02 -0.19540325750E+02  0.10976028311E+03  0.41800000000E+01 0. -1.
         -5    1    3    3    0  502 -0.41752326436E+02  0.29101026287E+01  0.84527430760E+01  0.42902758951E+02  0.41800000000E+01 0. -1.
        -11    1    1    2    0    0  0.28556352930E+02  0.61036494969E+02  0.28195101556E+01  0.67445301158E+02  0.00000000000E+00 0. -1.
         11    1    1    2    0    0 -0.50980439496E+02  0.22825581302E+02 -0.22513885209E+02  0.60223644860E+02  0.00000000000E+00 0.  1.
</event>
<event>
 7    1  0.2686828E-009  0.1243338E+03  0.7561462E-02  0.1236114E+00
          2   -1    0    0  501    0  0.00000000000E+00  0.00000000000E+00  0.13778113500E+04  0.13778113500E+04  0.00000000000E+00 0. -1.
         -2   -1    0    0    0  501 -0.00000000000E+00 -0.00000000000E+00 -0.12945289231E+02  0.12945289231E+02  0.00000000000E+00 0.  1.
         25    2    1    2    0    0 -0.18490436116E+02  0.70801473512E+02  0.88641403709E+03  0.89818000717E+03  0.12507092092E+03 0.  0.
          5    1    3    3  502    0  0.12092551804E+02 -0.27585696669E+02  0.38920105888E+03  0.39038716308E+03  0.41800000000E+01 0. -1.
         -5    1    3    3    0  502 -0.30582987920E+02  0.98387170181E+02  0.49721297821E+03  0.50779284409E+03  0.41800000000E+01 0. -1.
        -11    1    1    2    0    0 -0.77214141560E+01 -0.84988610247E+02  0.39035346852E+03  0.39957291512E+03  0.00000000000E+00 0. -1.
         11    1    1    2    0    0  0.26211850272E+02  0.14187136734E+02  0.88098555131E+02  0.93003716913E+02  0.00000000000E+00 0.  1.
</event>
<event>
 7    1  0.2686828E-009  0.1945299E+03  0.7561462E-02  0.1154438E+00
          1   -1    0    0  501    0  0.00000000000E+00  0.00000000000E+00  0.80321549855E+02  0.80321549855E+02  0.00000000000E+00 0. -1.
         -1   -1    0    0    0  501 -0.00000000000E+00 -0.00000000000E+00 -0.55725669058E+03  0.55725669058E+03  0.00000000000E+00 0.  1.
         25    2    1    2    0    0  0.10262475457E+03 -0.12924619287E+03 -0.13514085091E+03  0.24727878740E+03  0.12508929009E+03 0.  0.
          5    1    3    3  502    0  0.11232095902E+03 -0.51442274099E+02 -0.10817304313E+03  0.16425950523E+03  0.41800000000E+01 0.  1.
         -5    1    3    3    0  502 -0.96962044477E+01 -0.77803918767E+02 -0.26967807782E+02  0.83019282175E+02  0.41800000000E+01 0.  1.
        -11    1    1    2    0    0 -0.93702806655E+02  0.48157865147E+02 -0.16782442756E+03  0.19815255344E+03  0.00000000000E+00 0. -1.
         11    1    1    2    0    0 -0.89219479148E+01  0.81088327719E+02 -0.17396986226E+03  0.19214689959E+03  0.00000000000E+00 0.  1.
</event>
<event>
 7    1  0.2686828E-009  0.1160707E+03  0.7561462E-02  0.1249724E+00
          2   -1    0    0  501    0  0.00000000000E+00  0.00000000000E+00  0.26225996661E+03  0.26225996661E+03  0.00000000000E+00 0. -1.
         -2   -1    0    0    0  501 -0.00000000000E+00 -0.00000000000E+00 -0.80933855731E+02  0.80933855731E+02  0.00000000000E+00 0.  1.
         25    2    1    2    0    0 -0.14109664891E+02 -0.53714555945E+02  0.19027172573E+03  0.23437858657E+03  0.12508259698E+03 0.  0.
          5    1    3    3  502    0  0.13099943280E+02  0.33679373281E+02  0.21280485654E+02  0.42145464384E+02  0.41800000000E+01 0. -1.
         -5    1    3    3    0  502 -0.27209608172E+02 -0.87393929225E+02  0.16899124008E+03  0.19223312219E+03  0.41800000000E+01 0. -1.
        -11    1    1    2    0    0 -0.24118546232E+02 -0.12885021450E+02 -0.16031739728E+02  0.31697708574E+02  0.00000000000E+00 0. -1.
         11    1    1    2    0    0  0.38228211123E+02  0.66599577395E+02  0.70861248726E+01  0.77117527194E+02  0.00000000000E+00 0.  1.
</event>
<event>
 7    1  0.2686828E-009  0.1108327E+03  0.7561462E-02  0.1259036E+00
         -2   -1    0    0    0  501 -0.00000000000E+00  0.00000000000E+00  0.96726754444E+02  0.96726754444E+02  0.00000000000E+00 0.  1.
          2   -1    0    0  501    0  0.00000000000E+00 -0.00000000000E+00 -0.19091278079E+03  0.19091278079E+03  0.00000000000E+00 0. -1.
         25    2    1    2    0    0 -0.10675861428E+02 -0.80231097717E+02 -0.43688616206E+02  0.15527125718E+03  0.12509782197E+03 0.  0.
          5    1    3    3  502    0 -0.31165414187E+02 -0.88329003781E+02 -0.72672109979E+02  0.11862547753E+03  0.41800000000E+01 0.  1.
         -5    1    3    3    0  502  0.20489552759E+02  0.80979060640E+01  0.28983493773E+02  0.36645779650E+02  0.41800000000E+01 0.  1.
        -11    1    1    2    0    0 -0.28865856349E+02  0.31494381085E+02 -0.54771900923E+02  0.69462902569E+02  0.00000000000E+00 0. -1.
         11    1    1    2    0    0  0.39541717777E+02  0.48736716632E+02  0.42744907866E+01  0.62905375481E+02  0.00000000000E+00 0.  1.
</event>
<event>
 7    1  0.2686828E-009  0.8984583E+02  0.7561462E-02  0.1303225E+00
         -1   -1    0    0    0  501 -0.00000000000E+00  0.00000000000E+00  0.12156916443E+03  0.12156916443E+03  0.00000000000E+00 0.  1.
          1   -1    0    0  501    0  0.00000000000E+00 -0.00000000000E+00 -0.11188104612E+03  0.11188104612E+03  0.00000000000E+00 0. -1.
         25    2    1    2    0    0  0.15976310370E+02  0.25955312666E+02 -0.31313369733E+02  0.13249919833E+03  0.12508632893E+03 0.  0.
          5    1    3    3  502    0  0.67119398293E+02 -0.70237425532E+01 -0.13452954284E+02  0.68940561106E+02  0.41800000000E+01 0.  1.
         -5    1    3    3    0  502 -0.51143087923E+02  0.32979055219E+02 -0.17860415449E+02  0.63558637222E+02  0.41800000000E+01 0.  1.
        -11    1    1    2    0    0  0.13234209790E+02 -0.21735194293E+01  0.58068775534E+02  0.59597409235E+02  0.00000000000E+00 0.  1.
         11    1    1    2    0    0 -0.29210520160E+02 -0.23781793237E+02 -0.17067287496E+02  0.41353602987E+02  0.00000000000E+00 0. -1.
</event>
<event>
 7    1  0.2686828E-009  0.2521148E+03  0.7561462E-02  0.1111976E+00
         -1   -1    0    0    0  501 -0.00000000000E+00  0.00000000000E+00  0.18496002366E+03  0.18496002366E+03  0.00000000000E+00 0.  1.
          1   -1    0    0  501    0  0.00000000000E+00 -0.00000000000E+00 -0.36712887637E+03  0.36712887637E+03  0.00000000000E+00 0. -1.
         25    2    1    2    0    0 -0.21972617136E+03  0.82659110756E+02 -0.12321873560E+03  0.29316027009E+03  0.12509183900E+03 0.  0.
          5    1    3    3  502    0 -0.18600117321E+03  0.10672133384E+02 -0.88895117047E+02  0.20647068824E+03  0.41800000000E+01 0.  1.
         -5    1    3    3    0  502 -0.33724998151E+02  0.71986977372E+02 -0.34323618554E+02  0.86689581854E+02  0.41800000000E+01 0.  1.
        -11    1    1    2    0    0  0.59470844620E+02 -0.36122382304E+01  0.20993319004E+02  0.63170792837E+02  0.00000000000E+00 0.  1.
         11    1    1    2    0    0  0.16025532674E+03 -0.79046872526E+02 -0.79943436117E+02  0.19575783709E+03  0.00000000000E+00 0. -1.
</event>
<event>
 7    1  0.2686828E-009  0.1279240E+03  0.7561462E-02  0.1230569E+00
         -1   -1    0    0    0  501 -0.00000000000E+00  0.00000000000E+00  0.19387815036E+02  0.19387815036E+02  0.00000000000E+00 0.  1.
          1   -1    0    0  501    0  0.00000000000E+00 -0.00000000000E+00 -0.96414169116E+03  0.96414169116E+03  0.00000000000E+00 0. -1.
         25    2    1    2    0    0  0.65133517541E+02  0.45540001508E+02 -0.42968178517E+03  0.45452173558E+03  0.12508918724E+03 0.  0.
          5    1    3    3  502    0  0.23805676991E+02 -0.37840772420E+02 -0.22781355197E+03  0.23219629880E+03  0.41800000000E+01 0. -1.
         -5    1    3    3    0  502  0.41327840551E+02  0.83380773927E+02 -0.20186823319E+03  0.22232543678E+03  0.41800000000E+01 0. -1.
        -11    1    1    2    0    0  0.16246683399E+02 -0.31174215064E+02 -0.10616425595E+03  0.11183307046E+03  0.00000000000E+00 0.  1.
         11    1    1    2    0    0 -0.81380200940E+02 -0.14365786444E+02 -0.40890783501E+03  0.41717470016E+03  0.00000000000E+00 0. -1.
</event>
<event>
 7    1  0.2686828E-009  0.2052514E+03  0.7561462E-02  0.1145383E+00
         -2   -1    0    0    0  501 -0.00000000000E+00  0.00000000000E+00  0.34941227568E+02  0.34941227568E+02  0.00000000000E+00 0.  1.
          2   -1    0    0  501    0  0.00000000000E+00 -0.00000000000E+00 -0.14187597376E+04  0.14187597376E+04  0.00000000000E+00 0. -1.
         25    2    1    2    0    0  0.13348377983E+03  0.13395795411E+03 -0.57530341492E+03  0.61837205499E+03  0.12508927304E+03 0.  0.
          5    1    3    3  502    0  0.19336043207E+02  0.93564703241E+02 -0.16668822483E+03  0.19217354906E+03  0.41800000000E+01 0. -1.
         -5    1    3    3    0  502  0.11414773662E+03  0.40393250874E+02 -0.40861519008E+03  0.42619850593E+03  0.41800000000E+01 0. -1.
        -11    1    1    2    0    0 -0.11323951323E+03 -0.87729876187E+02 -0.71355552590E+03  0.72779200811E+03  0.00000000000E+00 0. -1.
         11    1    1    2    0    0 -0.20244266602E+02 -0.46228077927E+02 -0.94959569182E+02  0.10753690203E+03  0.00000000000E+00 0.  1.
</event>
<event>
 7    1  0.2686828E-009  0.9464426E+02  0.7561462E-02  0.1291979E+00
          1   -1    0    0  501    0  0.00000000000E+00  0.00000000000E+00  0.11499522861E+03  0.11499522861E+03  0.00000000000E+00 0. -1.
         -1   -1    0    0    0  501 -0.00000000000E+00 -0.00000000000E+00 -0.16057644649E+03  0.16057644649E+03  0.00000000000E+00 0.  1.
         25    2    1    2    0    0 -0.97610018858E+01  0.86330162299E+02  0.58811952896E+00  0.15229800574E+03  0.12508462170E+03 0.  0.
          5    1    3    3  502    0 -0.94000986751E+01  0.54540414836E+02 -0.61240444983E+02  0.82649157329E+02  0.41800000000E+01 0. -1.
         -5    1    3    3    0  502 -0.36090321078E+00  0.31789747464E+02  0.61828564512E+02  0.69648848407E+02  0.41800000000E+01 0. -1.
        -11    1    1    2    0    0 -0.18659319712E+02 -0.60515083866E+02 -0.55000484274E+02  0.83876688405E+02  0.00000000000E+00 0.  1.
         11    1    1    2    0    0  0.28420321597E+02 -0.25815078433E+02  0.88311468653E+01  0.39396980965E+02  0.00000000000E+00 0. -1.
</event>
<event>
 7    1  0.2686828E-009  0.3053646E+03  0.7561462E-02  0.1082589E+00
         -2   -1    0    0    0  501 -0.00000000000E+00  0.00000000000E+00  0.12260498712E+03  0.12260498712E+03  0.00000000000E+00 0.  1.
          2   -1    0    0  501    0  0.00000000000E+00 -0.00000000000E+00 -0.11110727836E+04  0.11110727836E+04  0.00000000000E+00 0. -1.
         25    2    1    2    0    0 -0.23722976032E+03 -0.16593664304E+03 -0.83708859375E+03  0.89452699237E+03  0.12509315575E+03 0.  0.
          5    1    3    3  502    0 -0.87375878574E+02 -0.13680021611E+03 -0.41250822106E+03  0.44331630709E+03  0.41800000000E+01 0.  1.
         -5    1    3    3    0  502 -0.14985388174E+03 -0.29136426932E+02 -0.42458037268E+03  0.45121068529E+03  0.41800000000E+01 0.  1.
        -11    1    1    2    0    0  0.13208655857E+02  0.32022511255E+02  0.48381782317E+01  0.34975960105E+02  0.00000000000E+00 0.  1.
         11    1    1    2    0    0  0.22402110446E+03  0.13391413178E+03 -0.15621738094E+03  0.30417481822E+03  0.00000000000E+00 0. -1.
</event>
<event>
 7    1  0.3091689E-009  0.1421817E+03  0.7561462E-02  0.1210423E+00
          2   -1    0    0  501    0  0.00000000000E+00  0.00000000000E+00  0.14424815999E+04  0.14424815999E+04  0.00000000000E+00 0. -1.
         -2   -1    0    0    0  501 -0.00000000000E+00 -0.00000000000E+00 -0.14237068953E+02  0.14237068953E+02  0.00000000000E+00 0.  1.
         25    2    1    2    0    0 -0.47957507031E+02  0.79085499531E+02  0.82510219785E+03  0.83963985917E+03  0.12508803897E+03 0.  0.
          5    1    3    3  502    0  0.42715683367E+02  0.25067882112E+02  0.28610738014E+03  0.29039272321E+03  0.41800000000E+01 0.  1.
         -5    1    3    3    0  502 -0.90673190398E+02  0.54017617419E+02  0.53899481770E+03  0.54924713596E+03  0.41800000000E+01 0.  1.
        -11    1    1    2    0    0 -0.23573232377E+02 -0.42711178319E+02  0.18624335955E+03  0.19252670209E+03  0.00000000000E+00 0.  1.
         11    1    1    2    0    0  0.71530739408E+02 -0.36374321212E+02  0.41689897351E+03  0.42455210756E+03  0.00000000000E+00 0. -1.
</event>
<event>
 7    1  0.2686828E-009  0.1539189E+03  0.7561462E-02  0.1195739E+00
         -2   -1    0    0    0  501 -0.00000000000E+00  0.00000000000E+00  0.60031703900E+03  0.60031703900E+03  0.00000000000E+00 0. -1.
          2   -1    0    0  501    0  0.00000000000E+00 -0.00000000000E+00 -0.57615674834E+02  0.57615674834E+02  0.00000000000E+00 0.  1.
         25    2    1    2    0    0  0.11953795650E+03  0.45342833529E+01  0.45095878026E+03  0.48303549726E+03  0.12509831074E+03 0.  0.
          5    1    3    3  502    0  0.10379818429E+02 -0.39762004316E+02  0.21880003472E+03  0.22266496180E+03  0.41800000000E+01 0. -1.
         -5    1    3    3    0  502  0.10915813807E+03  0.44296287669E+02  0.23215874554E+03  0.26037053546E+03  0.41800000000E+01 0. -1.
        -11    1    1    2    0    0 -0.14299064980E+01  0.26498230351E+02  0.12591321012E+02  0.29372473665E+02  0.00000000000E+00 0.  1.
         11    1    1    2    0    0 -0.11810805000E+03 -0.31032513704E+02  0.79151262897E+02  0.14552474291E+03  0.00000000000E+00 0. -1.
</event>
<event>
 7    1  0.2686828E-009  0.1455320E+03  0.7561462E-02  0.1206073E+00
         -2   -1    0    0    0  501 -0.00000000000E+00  0.00000000000E+00  0.61102435877E+02  0.61102435877E+02  0.00000000000E+00 0.  1.
          2   -1    0    0  501    0  0.00000000000E+00 -0.00000000000E+00 -0.74472405206E+03  0.74472405206E+03  0.00000000000E+00 0. -1.
         25    2    1    2    0    0 -0.73089773522E+02 -0.71950178765E+02 -0.64229165602E+03  0.66234911397E+03  0.12509530034E+03 0.  0.
          5    1    3    3  502    0  0.33816928402E+02 -0.29594140643E+02 -0.22509019992E+03  0.22957018166E+03  0.41800000000E+01 0.  1.
         -5    1    3    3    0  502 -0.10690670192E+03 -0.42356038121E+02 -0.41720145610E+03  0.43277893231E+03  0.41800000000E+01 0.  1.
        -11    1    1    2    0    0  0.17369247557E+01  0.58166803871E+02  0.31425512293E+01  0.58277522325E+02  0.00000000000E+00 0.  1.
         11    1    1    2    0    0  0.71352848766E+02  0.13783374894E+02 -0.44472511400E+02  0.85199851647E+02  0.00000000000E+00 0. -1.
</event>
<event>
 7    1  0.2686828E-009  0.1055417E+03  0.7561462E-02  0.1269056E+00
          1   -1    0    0  501    0  0.00000000000E+00  0.00000000000E+00  0.17244224326E+03  0.17244224326E+03  0.00000000000E+00 0. -1.
         -1   -1    0    0    0  501 -0.00000000000E+00 -0.00000000000E+00 -0.73335871478E+02  0.73335871478E+02  0.00000000000E+00 0.  1.
         25    2    1    2    0    0  0.16037012937E+02  0.51011951571E+01  0.79900668062E+02  0.14938014762E+03  0.12508838383E+03 0.  0.
          5    1    3    3  502    0 -0.39645128858E+02  0.37223342969E+02  0.61884553858E+02  0.82489295731E+02  0.41800000000E+01 0. -1.
         -5    1    3    3    0  502  0.55682141795E+02 -0.32122147812E+02  0.18016114203E+02  0.66890851885E+02  0.41800000000E+01 0. -1.
        -11    1    1    2    0    0  0.36141040430E+02  0.10547500810E+02 -0.25617937429E+01  0.37735757100E+02  0.00000000000E+00 0.  1.
         11    1    1    2    0    0 -0.52178053367E+02 -0.15648695967E+02  0.21767497462E+02  0.58662210020E+02  0.00000000000E+00 0. -1.
</event>
<event>
 7    1  0.2686828E-009  0.3164220E+03  0.7561462E-02  0.1077308E+00
          2   -1    0    0  501    0  0.00000000000E+00  0.00000000000E+00  0.23485580264E+04  0.23485580264E+04  0.00000000000E+00 0. -1.
         -2   -1    0    0    0  501 -0.00000000000E+00 -0.00000000000E+00 -0.61629008614E+02  0.61629008614E+02  0.00000000000E+00 0.  1.
         25    2    1    2    0    0  0.30934511832E+03  0.23202002549E+02  0.17641914075E+04  0.17956202271E+04  0.12509173641E+03 0.  0.
          5    1    3    3  502    0  0.21742662678E+03  0.42924974302E+02  0.14734225438E+04  0.14900028041E+04  0.41800000000E+01 0.  1.
         -5    1    3    3    0  502  0.91918491540E+02 -0.19722971753E+02  0.29076886374E+03  0.30561742297E+03  0.41800000000E+01 0.  1.
        -11    1    1    2    0    0 -0.18252077377E+03 -0.45981876238E+02  0.25011426472E+03  0.31302605517E+03  0.00000000000E+00 0. -1.
         11    1    1    2    0    0 -0.12682434456E+03  0.22779873688E+02  0.27262334553E+03  0.30154075271E+03  0.00000000000E+00 0.  1.
</event>
<event>
 7    1  0.2686828E-009  0.1334073E+03  0.7561462E-02  0.1222486E+00
          2   -1    0    0  501    0  0.00000000000E+00  0.00000000000E+00  0.44586008691E+03  0.44586008691E+03  0.00000000000E+00 0. -1.
         -2   -1    0    0    0  501 -0.00000000000E+00 -0.00000000000E+00 -0.52467991829E+02  0.52467991829E+02  0.00000000000E+00 0.  1.
         25    2    1    2    0    0  0.60251642024E+02 -0.87793141171E+02  0.19875017646E+03  0.25785187713E+03  0.12509221356E+03 0.  0.
          5    1    3    3  502    0  0.76783615716E+02 -0.31462887973E+02  0.17623394379E+03  0.19483714304E+03  0.41800000000E+01 0.  1.
         -5    1    3    3    0  502 -0.16531973691E+02 -0.56330253198E+02  0.22516232667E+02  0.63014734095E+02  0.41800000000E+01 0.  1.
        -11    1    1    2    0    0 -0.70250802329E+02  0.51169329497E+02  0.17981916446E+03  0.19972082369E+03  0.00000000000E+00 0.  1.
         11    1    1    2    0    0  0.99991603050E+01  0.36623811675E+02  0.14822754165E+02  0.40755377920E+02  0.00000000000E+00 0. -1.
</event>
<event>
 7    1  0.2686828E-009  0.2425144E+03  0.7561462E-02  0.1118129E+00
         -2   -1    0    0    0  501 -0.00000000000E+00  0.00000000000E+00  0.28245655610E+03  0.28245655610E+03  0.00000000000E+00 0. -1.
          2   -1    0    0  501    0  0.00000000000E+00 -0.00000000000E+00 -0.26142328049E+03  0.26142328049E+03  0.00000000000E+00 0.  1.
         25    2    1    2    0    0  0.85109964929E+02  0.18032486616E+03 -0.88792927481E+02  0.25157958078E+03  0.12508932013E+03 0.  0.
          5    1    3    3  502    0 -0.14606243613E+02  0.98516515174E+02 -0.95356663796E+01  0.10013614456E+03  0.41800000000E+01 0.  1.
         -5    1    3    3    0  502  0.99716208541E+02  0.81808350988E+02 -0.79257261101E+02  0.15144343622E+03  0.41800000000E+01 0.  1.
        -11    1    1    2    0    0 -0.12687394297E+03 -0.17197202917E+03  0.51061293899E+02  0.21972399040E+03  0.00000000000E+00 0. -1.
         11    1    1    2    0    0  0.41763978042E+02 -0.83528369907E+01  0.58764909190E+02  0.72576265403E+02  0.00000000000E+00 0.  1.
</event>
<event>
 7    1  0.2686828E-009  0.1520446E+03  0.7561462E-02  0.1197983E+00
          2   -1    0    0  501    0  0.00000000000E+00  0.00000000000E+00  0.23217343863E+03  0.23217343863E+03  0.00000000000E+00 0. -1.
         -2   -1    0    0    0  501 -0.00000000000E+00 -0.00000000000E+00 -0.14054445154E+03  0.14054445154E+03  0.00000000000E+00 0.  1.
         25    2    1    2    0    0  0.90364398561E+02 -0.64483426050E+02 -0.45850528803E+02  0.17342528925E+03  0.12510085211E+03 0.  0.
          5    1    3    3  502    0  0.13300867970E+02 -0.84963612826E+02 -0.12965665540E+02  0.87070715376E+02  0.41800000000E+01 0.  1.
         -5    1    3    3    0  502  0.77063530591E+02  0.20480186776E+02 -0.32884863264E+02  0.86354573877E+02  0.41800000000E+01 0.  1.
        -11    1    1    2    0    0 -0.60411451028E+02 -0.68265669499E+01  0.32621828997E+02  0.68995138660E+02  0.00000000000E+00 0.  1.
         11    1    1    2    0    0 -0.29952947533E+02  0.71309993000E+02  0.10485768690E+03  0.13029746225E+03  0.00000000000E+00 0. -1.
</event>
<event>
 7    1  0.2686828E-009  0.9965445E+02  0.7561462E-02  0.1281024E+00
         -4   -1    0    0    0  501 -0.00000000000E+00  0.00000000000E+00  0.69590635826E+02  0.69590635826E+02  0.00000000000E+00 0.  1.
          4   -1    0    0  501    0  0.00000000000E+00 -0.00000000000E+00 -0.18872281900E+03  0.18872281900E+03  0.00000000000E+00 0. -1.
         25    2    1    2    0    0 -0.37142707227E+02  0.24138202546E+02 -0.69967621699E+02  0.15001561688E+03  0.12508790389E+03 0.  0.
          5    1    3    3  502    0 -0.53523532493E+01 -0.34950527802E+02  0.17519957743E+02  0.39681335641E+02  0.41800000000E+01 0.  1.
         -5    1    3    3    0  502 -0.31790353978E+02  0.59088730348E+02 -0.87487579442E+02  0.11033428124E+03  0.41800000000E+01 0.  1.
        -11    1    1    2    0    0 -0.40557399972E+01 -0.48463598045E+02 -0.23736820316E+02  0.54116596355E+02  0.00000000000E+00 0.  1.
         11    1    1    2    0    0  0.41198447225E+02  0.24325395499E+02 -0.25427741161E+02  0.54181241592E+02  0.00000000000E+00 0. -1.
</event>
<event>
 7    1  0.2686828E-009  0.1516167E+03  0.7561462E-02  0.1198500E+00
          2   -1    0    0  501    0  0.00000000000E+00  0.00000000000E+00  0.68079486904E+03  0.68079486904E+03  0.00000000000E+00 0. -1.
         -2   -1    0    0    0  501 -0.00000000000E+00 -0.00000000000E+00 -0.44673793107E+02  0.44673793107E+02  0.00000000000E+00 0.  1.
         25    2    1    2    0    0  0.12535614365E+03 -0.25148104101E+02  0.23515243808E+03  0.29544968062E+03  0.12508898733E+03 0.  0.
          5    1    3    3  502    0 -0.66319021082E+01  0.11539652994E+02 -0.81814200201E+01  0.16172623483E+02  0.41800000000E+01 0. -1.
         -5    1    3    3    0  502  0.13198804576E+03 -0.36687757095E+02  0.24333385810E+03  0.27927705713E+03  0.41800000000E+01 0. -1.
        -11    1    1    2    0    0 -0.83056929797E+01  0.33849549751E+02  0.59691180971E+02  0.69121730591E+02  0.00000000000E+00 0.  1.
         11    1    1    2    0    0 -0.11705045067E+03 -0.87014456502E+01  0.34127745689E+03  0.36089725094E+03  0.00000000000E+00 0. -1.
</event>
<event>
 7    1  0.2686828E-009  0.1345294E+03  0.7561462E-02  0.1220886E+00
          2   -1    0    0  501    0  0.00000000000E+00  0.00000000000E+00  0.11939136878E+04  0.11939136878E+04  0.00000000000E+00 0. -1.
         -2   -1    0    0    0  501 -0.00000000000E+00 -0.00000000000E+00 -0.15863935192E+02  0.15863935192E+02  0.00000000000E+00 0.  1.
         25    2    1    2    0    0 -0.42901887646E+02  0.67359199962E+02  0.53029893648E+03  0.55067196487E+03  0.12507924321E+03 0.  0.
          5    1    3    3  502    0  0.38355527236E+02  0.51655399680E+02  0.19992781804E+03  0.21006673133E+03  0.41800000000E+01 0. -1.
         -5    1    3    3    0  502 -0.81257414881E+02  0.15703800282E+02  0.33037111844E+03  0.34060523354E+03  0.41800000000E+01 0. -1.
        -11    1    1    2    0    0  0.23029243699E+02 -0.89237928896E+02  0.47886834941E+03  0.48765628273E+03  0.00000000000E+00 0. -1.
         11    1    1    2    0    0  0.19872643947E+02  0.21878728934E+02  0.16888246673E+03  0.17144937540E+03  0.00000000000E+00 0.  1.
</event>
<event>
 7    1  0.2686828E-009  0.1011390E+03  0.7561462E-02  0.1277919E+00
          1   -1    0    0  501    0  0.00000000000E+00  0.00000000000E+00  0.59755224789E+03  0.59755224789E+03  0.00000000000E+00 0. -1.
         -1   -1    0    0    0  501 -0.00000000000E+00 -0.00000000000E+00 -0.29950624004E+02  0.29950624004E+02  0.00000000000E+00 0.  1.
         25    2    1    2    0    0  0.20135095972E+02 -0.60243204852E+02  0.34448217766E+03  0.37195447550E+03  0.12508994883E+03 0.  0.
          5    1    3    3  502    0 -0.29120876620E+02 -0.65712962762E+02  0.10468281604E+03  0.12705189217E+03  0.41800000000E+01 0. -1.
         -5    1    3    3    0  502  0.49255972592E+02  0.54697579100E+01  0.23979936162E+03  0.24490258333E+03  0.41800000000E+01 0. -1.
        -11    1    1    2    0    0  0.16664125918E+02  0.18722870520E+02 -0.58017508623E+00  0.25071409539E+02  0.00000000000E+00 0.  1.
         11    1    1    2    0    0 -0.36799221890E+02  0.41520334332E+02  0.22369962130E+03  0.23047698685E+03  0.00000000000E+00 0. -1.
</event>
<event>
 7    1  0.2686828E-009  0.1017638E+03  0.7561462E-02  0.1276630E+00
         -1   -1    0    0    0  501 -0.00000000000E+00  0.00000000000E+00  0.16672564017E+02  0.16672564017E+02  0.00000000000E+00 0.  1.
          1   -1    0    0  501    0  0.00000000000E+00 -0.00000000000E+00 -0.13422107410E+04  0.13422107410E+04  0.00000000000E+00 0. -1.
         25    2    1    2    0    0 -0.21028321772E+02  0.18495313042E+02 -0.11630501218E+04  0.11700927643E+04  0.12508886490E+03 0.  0.
          5    1    3    3  502    0  0.43309883202E+02  0.41057272652E+02 -0.55996427703E+03  0.56315087639E+03  0.41800000000E+01 0.  1.
         -5    1    3    3    0  502 -0.64338204974E+02 -0.22561959610E+02 -0.60308584481E+03  0.60694188787E+03  0.41800000000E+01 0.  1.
        -11    1    1    2    0    0 -0.24961483692E+02  0.20092720223E+01 -0.79777224242E+01  0.26282254417E+02  0.00000000000E+00 0.  1.
         11    1    1    2    0    0  0.45989805463E+02 -0.20504585064E+02 -0.15451033273E+03  0.16250828636E+03  0.00000000000E+00 0. -1.
</event>
<event>
 7    1  0.2686828E-009  0.1148254E+03  0.7561462E-02  0.1251886E+00
          1   -1    0    0  501    0  0.00000000000E+00  0.00000000000E+00  0.15234224880E+03  0.15234224880E+03  0.00000000000E+00 0. -1.
         -1   -1    0    0    0  501 -0.00000000000E+00 -0.00000000000E+00 -0.14944487423E+03  0.14944487423E+03  0.00000000000E+00 0.  1.
         25    2    1    2    0    0 -0.25946366328E+02 -0.40141679748E+02 -0.90672379444E+02  0.16171992720E+03  0.12508911256E+03 0.  0.
          5    1    3    3  502    0 -0.72659965907E+02 -0.76992279826E+01 -0.31927004194E+02  0.79847071042E+02  0.41800000000E+01 0.  1.
         -5    1    3    3    0  502  0.46713599580E+02 -0.32442451766E+02 -0.58745375250E+02  0.81872856158E+02  0.41800000000E+01 0.  1.
        -11    1    1    2    0    0 -0.75635649786E+01 -0.25033816961E+02  0.45321211273E+02  0.52325058032E+02  0.00000000000E+00 0. -1.
         11    1    1    2    0    0  0.33509931306E+02  0.65175496710E+02  0.48248542741E+02  0.87742137791E+02  0.00000000000E+00 0.  1.
</event>
<event>
 7    1  0.2686828E-009  0.1410018E+03  0.7561462E-02  0.1211987E+00
         -2   -1    0    0    0  501 -0.00000000000E+00  0.00000000000E+00  0.40143366929E+02  0.40143366929E+02  0.00000000000E+00 0. -1.
          2   -1    0    0  501    0  0.00000000000E+00 -0.00000000000E+00 -0.75666392208E+03  0.75666392208E+03  0.00000000000E+00 0.  1.
         25    2    1    2    0    0 -0.55725769357E+02 -0.10516213920E+03 -0.52405253416E+03  0.55176307587E+03  0.12508795485E+03 0.  0.
          5    1    3    3  502    0 -0.66829852854E+02 -0.25555974245E+02 -0.12001469386E+03  0.13978675257E+03  0.41800000000E+01 0.  1.
         -5    1    3    3    0  502  0.11104083497E+02 -0.79606164959E+02 -0.40403784030E+03  0.41197632330E+03  0.41800000000E+01 0.  1.
        -11    1    1    2    0    0  0.63095309951E+02  0.71374396622E+02 -0.71172730356E+02  0.11891543288E+03  0.00000000000E+00 0. -1.
         11    1    1    2    0    0 -0.73695405944E+01  0.33787742582E+02 -0.12129529064E+03  0.12612878025E+03  0.00000000000E+00 0.  1.
</event>
<event>
 7    1  0.2686828E-009  0.1034335E+03  0.7561462E-02  0.1273237E+00
          1   -1    0    0  501    0  0.00000000000E+00  0.00000000000E+00  0.26987885090E+03  0.26987885090E+03  0.00000000000E+00 0. -1.
         -1   -1    0    0    0  501 -0.00000000000E+00 -0.00000000000E+00 -0.46479136263E+02  0.46479136263E+02  0.00000000000E+00 0.  1.
         25    2    1    2    0    0 -0.40253003035E+01 -0.32834793230E+01  0.16979953483E+03  0.21096689346E+03  0.12509262099E+03 0.  0.
          5    1    3    3  502    0  0.42320011639E+02 -0.39278134980E+02  0.46144740937E+02  0.74030836742E+02  0.41800000000E+01 0.  1.
         -5    1    3    3    0  502 -0.46345311942E+02  0.35994655657E+02  0.12365479390E+03  0.13693605672E+03  0.41800000000E+01 0.  1.
        -11    1    1    2    0    0 -0.12866497774E+02 -0.40883415519E+02  0.19479081141E+02  0.47079029637E+02  0.00000000000E+00 0. -1.
         11    1    1    2    0    0  0.16891798077E+02  0.44166894842E+02  0.34121098664E+02  0.58312064071E+02  0.00000000000E+00 0.  1.
</event>
<event>
 7    1  0.2686828E-009  0.1865937E+03  0.7561462E-02  0.1161570E+00
          1   -1    0    0  501    0  0.00000000000E+00  0.00000000000E+00  0.13571306104E+03  0.13571306104E+03  0.00000000000E+00 0. -1.
         -1   -1    0    0    0  501 -0.00000000000E+00 -0.00000000000E+00 -0.32696225056E+03  0.32696225056E+03  0.00000000000E+00 0.  1.
         25    2    1    2    0    0  0.39559723766E+02 -0.16615090092E+03 -0.38091714434E+02  0.21510444177E+03  0.12509136077E+03 0.  0.
          5    1    3    3  502    0 -0.17591823535E+02 -0.13641420946E+03  0.46360599971E+01  0.13768541771E+03  0.41800000000E+01 0.  1.
         -5    1    3    3    0  502  0.57151547301E+02 -0.29736691460E+02 -0.42727774431E+02  0.77419024055E+02  0.41800000000E+01 0.  1.
        -11    1    1    2    0    0 -0.23243099903E+02  0.11514240353E+03 -0.15439789843E+03  0.19400187067E+03  0.00000000000E+00 0.  1.
         11    1    1    2    0    0 -0.16316623863E+02  0.51008497391E+02  0.12404233448E+01  0.53568999155E+02  0.00000000000E+00 0. -1.
</event>
<event>
 7    1  0.2686828E-009  0.2516889E+03  0.7561462E-02  0.1112242E+00
          2   -1    0    0  501    0  0.00000000000E+00  0.00000000000E+00  0.15892059730E+04  0.15892059730E+04  0.00000000000E+00 0. -1.
         -2   -1    0    0    0  501 -0.00000000000E+00 -0.00000000000E+00 -0.42958089766E+02  0.42958089766E+02  0.00000000000E+00 0.  1.
         25    2    1    2    0    0  0.10749574291E+03 -0.20951502728E+03  0.86183364906E+03  0.90213912939E+03  0.12508352696E+03 0.  0.
          5    1    3    3  502    0  0.41093483895E+02 -0.17778360959E+03  0.48595066622E+03  0.51909653116E+03  0.41800000000E+01 0.  1.
         -5    1    3    3    0  502  0.66402259011E+02 -0.31731417689E+02  0.37588298284E+03  0.38304259823E+03  0.41800000000E+01 0.  1.
        -11    1    1    2    0    0 -0.11592880342E+03  0.16388547042E+03  0.47767463405E+03  0.51814186367E+03  0.00000000000E+00 0.  1.
         11    1    1    2    0    0  0.84330605158E+01  0.45629556859E+02  0.20673960008E+03  0.21188306966E+03  0.00000000000E+00 0. -1.
</event>
<event>
 7    1  0.2686828E-009  0.1351790E+03  0.7561462E-02  0.1219967E+00
         -2   -1    0    0    0  501 -0.00000000000E+00  0.00000000000E+00  0.29199105995E+03  0.29199105995E+03  0.00000000000E+00 0.  1.
          2   -1    0    0  501    0  0.00000000000E+00 -0.00000000000E+00 -0.74797914355E+02  0.74797914355E+02  0.00000000000E+00 0. -1.
         25    2    1    2    0    0  0.43676494183E+02  0.24600901350E+02  0.14914594820E+03  0.20100901681E+03  0.12508905021E+03 0.  0.
          5    1    3    3  502    0 -0.34717612299E+02 -0.18087684586E+02  0.20542009372E+02  0.44406345115E+02  0.41800000000E+01 0. -1.
         -5    1    3    3    0  502  0.78394106482E+02  0.42688585936E+02  0.12860393883E+03  0.15660267169E+03  0.41800000000E+01 0. -1.
        -11    1    1    2    0    0 -0.69291219526E+02 -0.64203112999E+02  0.16467705565E+02  0.95887945795E+02  0.00000000000E+00 0. -1.
         11    1    1    2    0    0  0.25614725343E+02  0.39602211650E+02  0.51579491836E+02  0.69892011704E+02  0.00000000000E+00 0.  1.
</event>
<event>
 7    1  0.2686828E-009  0.1020545E+03  0.7561462E-02  0.1276034E+00
         -1   -1    0    0    0  501 -0.00000000000E+00  0.00000000000E+00  0.85309543551E+02  0.85309543551E+02  0.00000000000E+00 0.  1.
          1   -1    0    0  501    0  0.00000000000E+00 -0.00000000000E+00 -0.17921487773E+03  0.17921487773E+03  0.00000000000E+00 0. -1.
         25    2    1    2    0    0 -0.55252976761E+02 -0.14510608256E+00 -0.58235494008E+02  0.14863081510E+03  0.12508730526E+03 0.  0.
          5    1    3    3  502    0 -0.74646627992E+01 -0.48874677490E+02 -0.62873972428E+02  0.80094095284E+02  0.41800000000E+01 0. -1.
         -5    1    3    3    0  502 -0.47788313961E+02  0.48729571407E+02  0.46384784207E+01  0.68536719814E+02  0.41800000000E+01 0. -1.
        -11    1    1    2    0    0  0.62047488481E+02 -0.19728726603E+02  0.97672354337E+01  0.65837013664E+02  0.00000000000E+00 0.  1.
         11    1    1    2    0    0 -0.67945117206E+01  0.19873832686E+02 -0.45437075609E+02  0.50056592523E+02  0.00000000000E+00 0. -1.
</event>
<event>
 7    1  0.2686828E-009  0.1107005E+03  0.7561462E-02  0.1259278E+00
         -1   -1    0    0    0  501 -0.00000000000E+00  0.00000000000E+00  0.28135884584E+02  0.28135884584E+02  0.00000000000E+00 0.  1.
          1   -1    0    0  501    0  0.00000000000E+00 -0.00000000000E+00 -0.53761435799E+03  0.53761435799E+03  0.00000000000E+00 0. -1.
         25    2    1    2    0    0  0.16332754739E+02  0.35049908000E+02 -0.19011152734E+03  0.23083425360E+03  0.12508718911E+03 0.  0.
          5    1    3    3  502    0 -0.20883522380E+02  0.72556516085E+02 -0.13243414746E+03  0.15250195194E+03  0.41800000000E+01 0.  1.
         -5    1    3    3    0  502  0.37216277119E+02 -0.37506608085E+02 -0.57677379883E+02  0.78332301657E+02  0.41800000000E+01 0.  1.
        -11    1    1    2    0    0  0.32521444419E+02 -0.28962832979E+02 -0.21698661054E+03  0.22131353143E+03  0.00000000000E+00 0. -1.
         11    1    1    2    0    0 -0.48854199158E+02 -0.60870750207E+01 -0.10238033553E+03  0.11360245755E+03  0.00000000000E+00 0.  1.
</event>
<event>
 7    1  0.2686828E-009  0.9021804E+02  0.7561462E-02  0.1302325E+00
          2   -1    0    0  501    0  0.00000000000E+00  0.00000000000E+00  0.57723400425E+03  0.57723400425E+03  0.00000000000E+00 0. -1.
         -2   -1    0    0    0  501 -0.00000000000E+00 -0.00000000000E+00 -0.21442209940E+02  0.21442209940E+02  0.00000000000E+00 0.  1.
         25    2    1    2    0    0 -0.25756610125E+02  0.61197806930E+01  0.25069987858E+03  0.28141717100E+03  0.12507733742E+03 0.  0.
          5    1    3    3  502    0 -0.14427348573E+02  0.49456188829E+02  0.22226749082E+03  0.22819810007E+03  0.41800000000E+01 0.  1.
         -5    1    3    3    0  502 -0.11329261552E+02 -0.43336408136E+02  0.28432387761E+02  0.53219070936E+02  0.41800000000E+01 0.  1.
        -11    1    1    2    0    0 -0.81624682746E+00  0.34887752639E+02  0.86543194683E+02  0.93314233046E+02  0.00000000000E+00 0.  1.
         11    1    1    2    0    0  0.26572856952E+02 -0.41007533332E+02  0.21854872105E+03  0.22394481014E+03  0.00000000000E+00 0. -1.
</event>
<event>
 7    1  0.2686828E-009  0.1194281E+03  0.7561462E-02  0.1244044E+00
          1   -1    0    0  501    0  0.00000000000E+00  0.00000000000E+00  0.14705666095E+04  0.14705666095E+04  0.00000000000E+00 0. -1.
         -1   -1    0    0    0  501 -0.00000000000E+00 -0.00000000000E+00 -0.11681748080E+02  0.11681748080E+02  0.00000000000E+00 0.  1.
         25    2    1    2    0    0 -0.34699125408E+02  0.49775702406E+02  0.10574765443E+04  0.10665764150E+04  0.12508779873E+03 0.  0.
          5    1    3    3  502    0  0.33046827796E+02  0.61141158470E+02  0.58051203997E+03  0.58467258790E+03  0.41800000000E+01 0.  1.
         -5    1    3    3    0  502 -0.67745953203E+02 -0.11365456064E+02  0.47696450437E+03  0.48190382713E+03  0.41800000000E+01 0.  1.
        -11    1    1    2    0    0 -0.15086331159E+02 -0.48301715431E+02  0.12574334393E+03  0.13554350462E+03  0.00000000000E+00 0.  1.
         11    1    1    2    0    0  0.49785456567E+02 -0.14739869754E+01  0.27566497319E+03  0.28012843798E+03  0.00000000000E+00 0. -1.
</event>
<event>
 7    1  0.2686828E-009  0.1330250E+03  0.7561462E-02  0.1223035E+00
          1   -1    0    0  501    0  0.00000000000E+00  0.00000000000E+00  0.15008197754E+03  0.15008197754E+03  0.00000000000E+00 0. -1.
         -1   -1    0    0    0  501 -0.00000000000E+00 -0.00000000000E+00 -0.16645495674E+03  0.16645495674E+03  0.00000000000E+00 0.  1.
         25    2    1    2    0    0  0.47200953330E+02  0.79966249337E+02  0.58040635149E+02  0.16624982981E+03  0.12509100509E+03 0.  0.
          5    1    3    3  502    0  0.69212543254E+02  0.63651929406E+00  0.45327719439E+02  0.82842355411E+02  0.41800000000E+01 0.  1.
         -5    1    3    3    0  502 -0.22011589924E+02  0.79329730042E+02  0.12712915711E+02  0.83407474398E+02  0.41800000000E+01 0.  1.
        -11    1    1    2    0    0 -0.61583021382E+02 -0.44424579210E+02 -0.81394802338E+02  0.11131543293E+03  0.00000000000E+00 0.  1.
         11    1    1    2    0    0  0.14382068052E+02 -0.35541670127E+02  0.69811879939E+01  0.38971671540E+02  0.00000000000E+00 0. -1.
</event>
<event>
 7    1  0.2686828E-009  0.9394339E+02  0.7561462E-02  0.1293574E+00
         -1   -1    0    0    0  501 -0.00000000000E+00  0.00000000000E+00  0.16754987409E+03  0.16754987409E+03  0.00000000000E+00 0.  1.
          1   -1    0    0  501    0  0.00000000000E+00 -0.00000000000E+00 -0.94425604077E+02  0.94425604077E+02  0.00000000000E+00 0. -1.
         25    2    1    2    0    0  0.70393675301E+01  0.26061676707E+02 -0.12917370537E+02  0.12862312671E+03  0.12509311162E+03 0.  0.
          5    1    3    3  502    0  0.14481787852E+02  0.73356191244E+02 -0.25208416343E+02  0.79017653899E+02  0.41800000000E+01 0. -1.
         -5    1    3    3    0  502 -0.74424203222E+01 -0.47294514537E+02  0.12291045805E+02  0.49605472808E+02  0.41800000000E+01 0. -1.
        -11    1    1    2    0    0 -0.32693221789E+02 -0.82798869374E+01 -0.76634770266E+01  0.34585143614E+02  0.00000000000E+00 0. -1.
         11    1    1    2    0    0  0.25653854259E+02 -0.17781789769E+02  0.93705117578E+02  0.98767207848E+02  0.00000000000E+00 0.  1.
</event>
<event>
 7    1  0.2686828E-009  0.7145843E+02  0.7561462E-02  0.1355203E+00
         -1   -1    0    0    0  501 -0.00000000000E+00  0.00000000000E+00  0.30522883927E+03  0.30522883927E+03  0.00000000000E+00 0.  1.
          1   -1    0    0  501    0  0.00000000000E+00 -0.00000000000E+00 -0.45602666102E+02  0.45602666102E+02  0.00000000000E+00 0. -1.
         25    2    1    2    0    0  0.66000629094E+01 -0.44427694229E+02  0.16786490427E+03  0.21411049656E+03  0.12508915944E+03 0.  0.
          5    1    3    3  502    0 -0.98368424161E+01 -0.11422957700E+02  0.17552500553E+03  0.17622073487E+03  0.41800000000E+01 0. -1.
         -5    1    3    3    0  502  0.16436905325E+02 -0.33004736529E+02 -0.76601012601E+01  0.37889761695E+02  0.41800000000E+01 0. -1.
        -11    1    1    2    0    0  0.32084195466E+02  0.39927099941E+02  0.81814701133E+02  0.96525717971E+02  0.00000000000E+00 0. -1.
         11    1    1    2    0    0 -0.38684258375E+02  0.45005942872E+01  0.99465677626E+01  0.40195290834E+02  0.00000000000E+00 0.  1.
</event>
<event>
 7    1  0.2686828E-009  0.1121127E+03  0.7561462E-02  0.1256707E+00
         -2   -1    0    0    0  501 -0.00000000000E+00  0.00000000000E+00  0.63317039054E+02  0.63317039054E+02  0.00000000000E+00 0.  1.
          2   -1    0    0  501    0  0.00000000000E+00 -0.00000000000E+00 -0.22683041913E+03  0.22683041913E+03  0.00000000000E+00 0. -1.
         25    2    1    2    0    0  0.45053399243E+01 -0.46462077659E+02 -0.61609889087E+02  0.14704622062E+03  0.12509112606E+03 0.  0.
          5    1    3    3  502    0 -0.72473712957E+01 -0.88175711608E+02 -0.51105712243E+02  0.10225823552E+03  0.41800000000E+01 0. -1.
         -5    1    3    3    0  502  0.11752711220E+02  0.41713633949E+02 -0.10504176844E+02  0.44787985101E+02  0.41800000000E+01 0. -1.
        -11    1    1    2    0    0 -0.42021301975E+02  0.24838584743E+02 -0.82034293983E+02  0.95458737164E+02  0.00000000000E+00 0.  1.
         11    1    1    2    0    0  0.37515962050E+02  0.21623492916E+02 -0.19869197010E+02  0.47642500399E+02  0.00000000000E+00 0. -1.
</event>
<event>
 7    1  0.2686828E-009  0.1373201E+03  0.7561462E-02  0.1216981E+00
         -2   -1    0    0    0  501 -0.00000000000E+00  0.00000000000E+00  0.57099905868E+02  0.57099905868E+02  0.00000000000E+00 0.  1.
          2   -1    0    0  501    0  0.00000000000E+00 -0.00000000000E+00 -0.38381747659E+03  0.38381747659E+03  0.00000000000E+00 0. -1.
         25    2    1    2    0    0  0.50309868288E+02 -0.82120510433E+02 -0.13488945393E+03  0.20764740323E+03  0.12508964067E+03 0.  0.
          5    1    3    3  502    0 -0.24397963376E+02 -0.59124183027E+02 -0.17308151775E+02  0.66392576042E+02  0.41800000000E+01 0. -1.
         -5    1    3    3    0  502  0.74707831665E+02 -0.22996327406E+02 -0.11758130215E+03  0.14125482718E+03  0.41800000000E+01 0. -1.
        -11    1    1    2    0    0 -0.53714114823E+02  0.37764891832E+01 -0.87794238422E+02  0.10299172929E+03  0.00000000000E+00 0.  1.
         11    1    1    2    0    0  0.34042465342E+01  0.78344021250E+02 -0.10403387837E+03  0.13027824995E+03  0.00000000000E+00 0. -1.
</event>
<event>
 7    1  0.2686828E-009  0.1275520E+03  0.7561462E-02  0.1231134E+00
          1   -1    0    0  501    0  0.00000000000E+00  0.00000000000E+00  0.13710759316E+04  0.13710759316E+04  0.00000000000E+00 0. -1.
         -1   -1    0    0    0  501 -0.00000000000E+00 -0.00000000000E+00 -0.15493263918E+02  0.15493263918E+02  0.00000000000E+00 0.  1.
         25    2    1    2    0    0  0.67103329155E+02 -0.36360454696E+02  0.10484981023E+04  0.10586881737E+04  0.12508972432E+03 0.  0.
          5    1    3    3  502    0 -0.27507679636E+02  0.18910797328E+02  0.16367447921E+03  0.16709607488E+03  0.41800000000E+01 0.  1.
         -5    1    3    3    0  502  0.94611008791E+02 -0.55271252024E+02  0.88482362311E+03  0.89159209883E+03  0.41800000000E+01 0.  1.
        -11    1    1    2    0    0 -0.58455223462E+02 -0.14494149428E+02  0.12704189730E+03  0.14059422886E+03  0.00000000000E+00 0.  1.
         11    1    1    2    0    0 -0.86481056938E+01  0.50854604125E+02  0.18004266807E+03  0.18728679297E+03  0.00000000000E+00 0. -1.
</event>
<event>
 7    1  0.2686828E-009  0.8543739E+02  0.7561462E-02  0.1314293E+00
         -2   -1    0    0    0  501 -0.00000000000E+00  0.00000000000E+00  0.13292181034E+03  0.13292181034E+03  0.00000000000E+00 0. -1.
          2   -1    0    0  501    0  0.00000000000E+00 -0.00000000000E+00 -0.11133827715E+03  0.11133827715E+03  0.00000000000E+00 0.  1.
         25    2    1    2    0    0 -0.34805809047E+02 -0.24878340176E+02  0.81111689859E+01  0.13245167516E+03  0.12508908440E+03 0.  0.
          5    1    3    3  502    0 -0.12674786155E+01 -0.53337927182E+02 -0.40236844043E+02  0.66955335834E+02  0.41800000000E+01 0.  1.
         -5    1    3    3    0  502 -0.33538330432E+02  0.28459587007E+02  0.48348013029E+02  0.65496339322E+02  0.41800000000E+01 0.  1.
        -11    1    1    2    0    0  0.48497470868E+02  0.46119738563E+01 -0.33312044459E+02  0.59016669590E+02  0.00000000000E+00 0.  1.
         11    1    1    2    0    0 -0.13691661821E+02  0.20266366319E+02  0.46784408663E+02  0.52791742737E+02  0.00000000000E+00 0. -1.
</event>
<event>
 7    1  0.2686828E-009  0.1082291E+03  0.7561462E-02  0.1263885E+00
          1   -1    0    0  501    0  0.00000000000E+00  0.00000000000E+00  0.10110036846E+03  0.10110036846E+03  0.00000000000E+00 0. -1.
         -1   -1    0    0    0  501 -0.00000000000E+00 -0.00000000000E+00 -0.16526530105E+03  0.16526530105E+03  0.00000000000E+00 0.  1.
         25    2    1    2    0    0 -0.56702312973E+02 -0.13684825405E+02  0.61552473642E+01  0.13815689450E+03  0.12508802375E+03 0.  0.
          5    1    3    3  502    0 -0.80913919336E+02  0.24362564845E+02 -0.18478990320E+02  0.86599898334E+02  0.41800000000E+01 0. -1.
         -5    1    3    3    0  502  0.24211606363E+02 -0.38047390250E+02  0.24634237684E+02  0.51556996167E+02  0.41800000000E+01 0. -1.
        -11    1    1    2    0    0  0.36005176208E+02 -0.24206906361E+02 -0.73032733328E+02  0.84947790829E+02  0.00000000000E+00 0.  1.
         11    1    1    2    0    0  0.20697136765E+02  0.37891731766E+02  0.27125533674E+01  0.43260984181E+02  0.00000000000E+00 0. -1.
</event>
<event>
 7    1  0.2686828E-009  0.1018743E+03  0.7561462E-02  0.1276403E+00
         -2   -1    0    0    0  501 -0.00000000000E+00  0.00000000000E+00  0.19082909511E+02  0.19082909511E+02  0.00000000000E+00 0.  1.
          2   -1    0    0  501    0  0.00000000000E+00 -0.00000000000E+00 -0.66854870793E+03  0.66854870793E+03  0.00000000000E+00 0. -1.
         25    2    1    2    0    0  0.55818630084E+01 -0.19405561951E+02 -0.30669279222E+03  0.33183686666E+03  0.12508998459E+03 0.  0.
          5    1    3    3  502    0 -0.83253478759E+01 -0.66091452648E+02 -0.24021728928E+03  0.24931748836E+03  0.41800000000E+01 0. -1.
         -5    1    3    3    0  502  0.13907210884E+02  0.46685890697E+02 -0.66475502940E+02  0.82519378305E+02  0.41800000000E+01 0. -1.
        -11    1    1    2    0    0 -0.33139575663E+02 -0.20978072591E+02 -0.87588413299E+02  0.95968959300E+02  0.00000000000E+00 0.  1.
         11    1    1    2    0    0  0.27557712655E+02  0.40383634542E+02 -0.25518459289E+03  0.25982579148E+03  0.00000000000E+00 0. -1.
</event>
<event>
 7    1  0.2686828E-009  0.1096129E+03  0.7561462E-02  0.1261288E+00
         -2   -1    0    0    0  501 -0.00000000000E+00  0.00000000000E+00  0.38360784010E+02  0.38360784010E+02  0.00000000000E+00 0.  1.
          2   -1    0    0  501    0  0.00000000000E+00 -0.00000000000E+00 -0.36256555714E+03  0.36256555714E+03  0.00000000000E+00 0. -1.
         25    2    1    2    0    0 -0.20948550687E+02  0.19082204714E+02 -0.12147691192E+03  0.17665792509E+03  0.12509360518E+03 0.  0.
          5    1    3    3  502    0  0.30188867134E+02 -0.37721713546E+02 -0.28589990168E+02  0.56295251216E+02  0.41800000000E+01 0.  1.
         -5    1    3    3    0  502 -0.51137417822E+02  0.56803918259E+02 -0.92886921748E+02  0.12036267388E+03  0.41800000000E+01 0.  1.
        -11    1    1    2    0    0  0.12779547664E+02  0.36155193017E+02 -0.62425518796E+02  0.73262952558E+02  0.00000000000E+00 0.  1.
         11    1    1    2    0    0  0.81690030240E+01 -0.55237397730E+02 -0.14030234242E+03  0.15100546350E+03  0.00000000000E+00 0. -1.
</event>
<event>
 7    1  0.2686828E-009  0.1186669E+03  0.7561462E-02  0.1245313E+00
         -1   -1    0    0    0  501 -0.00000000000E+00  0.00000000000E+00  0.34394955986E+02  0.34394955986E+02  0.00000000000E+00 0.  1.
          1   -1    0    0  501    0  0.00000000000E+00 -0.00000000000E+00 -0.55402876586E+03  0.55402876586E+03  0.00000000000E+00 0. -1.
         25    2    1    2    0    0  0.58256258680E+02  0.40652778044E+02 -0.18310826239E+03  0.23285788885E+03  0.12509084942E+03 0.  0.
          5    1    3    3  502    0 -0.28065459843E+02  0.20460227072E+02 -0.70364079368E+01  0.35682970233E+02  0.41800000000E+01 0. -1.
         -5    1    3    3    0  502  0.86321718523E+02  0.20192550972E+02 -0.17607185445E+03  0.19717491862E+03  0.41800000000E+01 0. -1.
        -11    1    1    2    0    0 -0.23948979294E+02 -0.66477809079E+02 -0.23327646686E+03  0.24374323108E+03  0.00000000000E+00 0. -1.
         11    1    1    2    0    0 -0.34307279387E+02  0.25825031035E+02 -0.10324908064E+03  0.11182260191E+03  0.00000000000E+00 0.  1.
</event>
<event>
 7    1  0.2686828E-009  0.1159759E+03  0.7561462E-02  0.1249887E+00
         -2   -1    0    0    0  501 -0.00000000000E+00  0.00000000000E+00  0.35410135586E+02  0.35410135586E+02  0.00000000000E+00 0. -1.
          2   -1    0    0  501    0  0.00000000000E+00 -0.00000000000E+00 -0.44417424258E+03  0.44417424258E+03  0.00000000000E+00 0.  1.
         25    2    1    2    0    0  0.80584924896E+01 -0.59047645506E+02 -0.22008443513E+03  0.26006930591E+03  0.12508925434E+03 0.  0.
          5    1    3    3  502    0  0.62581199210E+02 -0.38755853945E+02 -0.82568449875E+02  0.11069527553E+03  0.41800000000E+01 0.  1.
         -5    1    3    3    0  502 -0.54522706720E+02 -0.20291791561E+02 -0.13751598526E+03  0.14937403039E+03  0.41800000000E+01 0.  1.
        -11    1    1    2    0    0 -0.41705152247E+02  0.14678385264E+02 -0.13544435814E+03  0.14247788906E+03  0.00000000000E+00 0.  1.
         11    1    1    2    0    0  0.33646659757E+02  0.44369260242E+02 -0.53235313720E+02  0.77037183191E+02  0.00000000000E+00 0. -1.
</event>
<event>
 7    1  0.2686828E-009  0.9681002E+02  0.7561462E-02  0.1287151E+00
          1   -1    0    0  501    0  0.00000000000E+00  0.00000000000E+00  0.48303078976E+02  0.48303078976E+02  0.00000000000E+00 0. -1.
         -1   -1    0    0    0  501 -0.00000000000E+00 -0.00000000000E+00 -0.25975733719E+03  0.25975733719E+03  0.00000000000E+00 0.  1.
         25    2    1    2    0    0 -0.18696185130E+02  0.50794312854E+01 -0.14563432926E+03  0.19295637053E+03  0.12508978818E+03 0.  0.
          5    1    3    3  502    0  0.28054329404E+01  0.62885662900E+02 -0.89190914303E+02  0.10924728210E+03  0.41800000000E+01 0.  1.
         -5    1    3    3    0  502 -0.21501618070E+02 -0.57806231614E+02 -0.56443414960E+02  0.83709088428E+02  0.41800000000E+01 0.  1.
        -11    1    1    2    0    0 -0.22260795019E+02 -0.14658842456E+02 -0.67947170261E+02  0.72987962045E+02  0.00000000000E+00 0.  1.
         11    1    1    2    0    0  0.40956980149E+02  0.95794111702E+01  0.21272413119E+01  0.42116083589E+02  0.00000000000E+00 0. -1.
</event>
<event>
 7    1  0.2686828E-009  0.6338743E+02  0.7561462E-02  0.1384142E+00
          2   -1    0    0  501    0  0.00000000000E+00  0.00000000000E+00  0.96386743715E+02  0.96386743715E+02  0.00000000000E+00 0. -1.
         -2   -1    0    0    0  501 -0.00000000000E+00 -0.00000000000E+00 -0.10993023132E+03  0.10993023132E+03  0.00000000000E+00 0.  1.
         25    2    1    2    0    0  0.40678869410E+01 -0.79735449156E+01  0.66246525156E+01  0.12558523963E+03  0.12509053229E+03 0.  0.
          5    1    3    3  502    0  0.24260093829E+02 -0.13746634378E+02  0.60969717732E+02  0.67173662916E+02  0.41800000000E+01 0. -1.
         -5    1    3    3    0  502 -0.20192206888E+02  0.57730894625E+01 -0.54345065216E+02  0.58411576715E+02  0.41800000000E+01 0. -1.
        -11    1    1    2    0    0 -0.85976561980E+01 -0.33938136917E+02 -0.27461609208E+01  0.35117776542E+02  0.00000000000E+00 0. -1.
         11    1    1    2    0    0  0.45297692569E+01  0.41911681832E+02 -0.17421979196E+02  0.45613958857E+02  0.00000000000E+00 0.  1.
</event>
<event>
 7    1  0.2686828E-009  0.5816467E+02  0.7561462E-02  0.1405699E+00
          3   -1    0    0  501    0  0.00000000000E+00  0.00000000000E+00  0.73454777518E+03  0.73454777518E+03  0.00000000000E+00 0. -1.
         -3   -1    0    0    0  501 -0.00000000000E+00 -0.00000000000E+00 -0.19761540603E+02  0.19761540603E+02  0.00000000000E+00 0.  1.
         25    2    1    2    0    0  0.90040768921E+01  0.29911458175E+02  0.53634618564E+03  0.55162528606E+03  0.12508979428E+03 0.  0.
          5    1    3    3  502    0  0.92628218618E+01 -0.93252054817E+00  0.51201606649E+03  0.51211775424E+03  0.41800000000E+01 0. -1.
         -5    1    3    3    0  502 -0.25874496970E+00  0.30843978723E+02  0.24330119156E+02  0.39507531821E+02  0.41800000000E+01 0. -1.
        -11    1    1    2    0    0  0.11810163150E+01  0.22032565948E+02  0.12689958911E+03  0.12880347230E+03  0.00000000000E+00 0. -1.
         11    1    1    2    0    0 -0.10185093207E+02 -0.51944024123E+02  0.51540459824E+02  0.73880557419E+02  0.00000000000E+00 0.  1.
</event>
<event>
 7    1  0.2686828E-009  0.8257968E+02  0.7561462E-02  0.1321886E+00
         -2   -1    0    0    0  501 -0.00000000000E+00  0.00000000000E+00  0.55218455184E+02  0.55218455184E+02  0.00000000000E+00 0.  1.
          2   -1    0    0  501    0  0.00000000000E+00 -0.00000000000E+00 -0.22090348687E+03  0.22090348687E+03  0.00000000000E+00 0. -1.
         25    2    1    2    0    0 -0.19169711758E+02  0.85976592337E+01 -0.10919452558E+03  0.16736891334E+03  0.12509001216E+03 0.  0.
          5    1    3    3  502    0  0.22381336608E+02  0.19978972687E+02 -0.11916233564E+03  0.12295209723E+03  0.41800000000E+01 0. -1.
         -5    1    3    3    0  502 -0.41551048367E+02 -0.11381313454E+02  0.99678100566E+01  0.44416816113E+02  0.41800000000E+01 0. -1.
        -11    1    1    2    0    0  0.53387148115E+02  0.72462599256E+01 -0.24007690537E+02  0.58983600023E+02  0.00000000000E+00 0.  1.
         11    1    1    2    0    0 -0.34217436356E+02 -0.15843919159E+02 -0.32482815573E+02  0.49769428696E+02  0.00000000000E+00 0. -1.
</event>
<event>
 7    1  0.2686828E-009  0.1269778E+03  0.7561462E-02  0.1232010E+00
          3   -1    0    0  501    0  0.00000000000E+00  0.00000000000E+00  0.56913798793E+03  0.56913798793E+03  0.00000000000E+00 0. -1.
         -3   -1    0    0    0  501 -0.00000000000E+00 -0.00000000000E+00 -0.46671194208E+02  0.46671194208E+02  0.00000000000E+00 0.  1.
         25    2    1    2    0    0 -0.28341129006E+02 -0.10862508331E+03  0.36987431173E+03  0.40627214071E+03  0.12508963796E+03 0.  0.
          5    1    3    3  502    0 -0.35079443950E+02 -0.54490588315E+02  0.50552663001E+02  0.82297240168E+02  0.41800000000E+01 0.  1.
         -5    1    3    3    0  502  0.67383149445E+01 -0.54134494993E+02  0.31932164873E+03  0.32397490054E+03  0.41800000000E+01 0.  1.
        -11    1    1    2    0    0 -0.13556656626E+02  0.85258845097E+02  0.59616368000E+02  0.10491408361E+03  0.00000000000E+00 0.  1.
         11    1    1    2    0    0  0.41897785632E+02  0.23366238210E+02  0.92976113991E+02  0.10462295781E+03  0.00000000000E+00 0. -1.
</event>
<event>
 7    1  0.2686828E-009  0.8065696E+02  0.7561462E-02  0.1327197E+00
         -2   -1    0    0    0  501 -0.00000000000E+00  0.00000000000E+00  0.39151429787E+02  0.39151429787E+02  0.00000000000E+00 0.  1.
          2   -1    0    0  501    0  0.00000000000E+00 -0.00000000000E+00 -0.32519646753E+03  0.32519646753E+03  0.00000000000E+00 0. -1.
         25    2    1    2    0    0 -0.31491609210E+02  0.94579070507E+01 -0.16440792126E+03  0.20919559372E+03  0.12510658816E+03 0.  0.
          5    1    3    3  502    0  0.11860364518E+02 -0.18482642459E+02 -0.15499821715E+03  0.15660203076E+03  0.41800000000E+01 0. -1.
         -5    1    3    3    0  502 -0.43351973728E+02  0.27940549510E+02 -0.94097041088E+01  0.52593562956E+02  0.41800000000E+01 0. -1.
        -11    1    1    2    0    0  0.99512429835E+01  0.35764674401E+02 -0.86022923163E+02  0.93691421600E+02  0.00000000000E+00 0. -1.
         11    1    1    2    0    0  0.21540366226E+02 -0.45222581451E+02 -0.35614193320E+02  0.61460881999E+02  0.00000000000E+00 0.  1.
</event>
<event>
 7    1  0.3679373E-009  0.1260650E+03  0.7561462E-02  0.1233414E+00
         -2   -1    0    0    0  501 -0.00000000000E+00  0.00000000000E+00  0.28236791258E+02  0.28236791258E+02  0.00000000000E+00 0.  1.
          2   -1    0    0  501    0  0.00000000000E+00 -0.00000000000E+00 -0.90771485555E+03  0.90771485555E+03  0.00000000000E+00 0. -1.
         25    2    1    2    0    0  0.10662338786E+03  0.48895201147E+02 -0.48659922106E+03  0.51593167389E+03  0.12508957851E+03 0.  0.
          5    1    3    3  502    0  0.10510922015E+03  0.36473788476E+02 -0.19898389619E+03  0.22801392228E+03  0.41800000000E+01 0. -1.
         -5    1    3    3    0  502  0.15141677116E+01  0.12421412671E+02 -0.28761532487E+03  0.28791775161E+03  0.41800000000E+01 0. -1.
        -11    1    1    2    0    0 -0.68707965788E+02 -0.56469941665E+02 -0.35470937724E+03  0.36568891312E+03  0.00000000000E+00 0. -1.
         11    1    1    2    0    0 -0.37915422076E+02  0.75747405187E+01 -0.38169465991E+02  0.54331059802E+02  0.00000000000E+00 0.  1.
</event>
<event>
 7    1  0.2686828E-009  0.4174852E+03  0.7561462E-02  0.1037888E+00
          1   -1    0    0  501    0  0.00000000000E+00  0.00000000000E+00  0.11382412960E+04  0.11382412960E+04  0.00000000000E+00 0. -1.
         -1   -1    0    0    0  501 -0.00000000000E+00 -0.00000000000E+00 -0.22982322071E+03  0.22982322071E+03  0.00000000000E+00 0.  1.
         25    2    1    2    0    0 -0.31714796915E+03  0.26954808210E+03  0.82710619425E+03  0.93433929519E+03  0.12508500736E+03 0.  0.
          5    1    3    3  502    0 -0.29242858896E+02  0.27636716309E+02  0.19222576380E+03  0.19643612080E+03  0.41800000000E+01 0. -1.
         -5    1    3    3    0  502 -0.28790511025E+03  0.24191136579E+03  0.63488043045E+03  0.73790317439E+03  0.41800000000E+01 0. -1.
        -11    1    1    2    0    0  0.14017843148E+03 -0.91414722767E+02  0.72754321167E+02  0.18248242501E+03  0.00000000000E+00 0.  1.
         11    1    1    2    0    0  0.17696953768E+03 -0.17813335933E+03  0.85575598791E+01  0.25124279652E+03  0.00000000000E+00 0. -1.
</event>
<event>
 7    1  0.2686828E-009  0.2025699E+03  0.7561462E-02  0.1147589E+00
          2   -1    0    0  501    0  0.00000000000E+00  0.00000000000E+00  0.23632907336E+03  0.23632907336E+03  0.00000000000E+00 0. -1.
         -2   -1    0    0    0  501 -0.00000000000E+00 -0.00000000000E+00 -0.24718562837E+03  0.24718562837E+03  0.00000000000E+00 0.  1.
         25    2    1    2    0    0  0.19496414583E+03  0.74922471962E+01 -0.11230890494E+03  0.25754247606E+03  0.12509070678E+03 0.  0.
          5    1    3    3  502    0  0.88925502881E+02  0.31721046034E+02 -0.11475759035E+03  0.14866319910E+03  0.41800000000E+01 0.  1.
         -5    1    3    3    0  502  0.10603864295E+03 -0.24228798838E+02  0.24486854129E+01  0.10887927696E+03  0.41800000000E+01 0.  1.
        -11    1    1    2    0    0 -0.17225565501E+03  0.10841063243E+02  0.89650073972E+02  0.19449080980E+03  0.00000000000E+00 0. -1.
         11    1    1    2    0    0 -0.22708490822E+02 -0.18333310440E+02  0.11802275956E+02  0.31481415864E+02  0.00000000000E+00 0.  1.
</event>
<event>
 7    1  0.2686828E-009  0.1328803E+03  0.7561462E-02  0.1223243E+00
          1   -1    0    0  501    0  0.00000000000E+00  0.00000000000E+00  0.33059455031E+03  0.33059455031E+03  0.00000000000E+00 0. -1.
         -1   -1    0    0    0  501 -0.00000000000E+00 -0.00000000000E+00 -0.70153921848E+02  0.70153921848E+02  0.00000000000E+00 0.  1.
         25    2    1    2    0    0 -0.99343199474E+02 -0.16404875056E+02  0.18536571432E+03  0.24524602248E+03  0.12508785829E+03 0.  0.
          5    1    3    3  502    0 -0.44045357055E+00  0.30318194096E+02  0.74934031736E+00  0.30617328484E+02  0.41800000000E+01 0. -1.
         -5    1    3    3    0  502 -0.98902745904E+02 -0.46723069152E+02  0.18461637400E+03  0.21462869400E+03  0.41800000000E+01 0. -1.
        -11    1    1    2    0    0  0.10294176585E+03 -0.58855415378E+01  0.33893999532E+02  0.10853778125E+03  0.00000000000E+00 0.  1.
         11    1    1    2    0    0 -0.35985663726E+01  0.22290416594E+02  0.41180914607E+02  0.46964668419E+02  0.00000000000E+00 0. -1.
</event>
<event>
 7    1  0.4165533E-009  0.1229124E+03  0.7561462E-02  0.1238368E+00
         -1   -1    0    0    0  501 -0.00000000000E+00  0.00000000000E+00  0.59390544502E+02  0.59390544502E+02  0.00000000000E+00 0.  1.
          1   -1    0    0  501    0  0.00000000000E+00 -0.00000000000E+00 -0.32944223659E+03  0.32944223659E+03  0.00000000000E+00 0. -1.
         25    2    1    2    0    0 -0.58523866251E+02  0.63530600881E+02 -0.12146235408E+03  0.19458310221E+03  0.12509316543E+03 0.  0.
          5    1    3    3  502    0  0.37085170594E+02  0.37115047687E+02 -0.45553402612E+02  0.69609062143E+02  0.41800000000E+01 0. -1.
         -5    1    3    3    0  502 -0.95609036845E+02  0.26415553194E+02 -0.75908951471E+02  0.12497404007E+03  0.41800000000E+01 0. -1.
        -11    1    1    2    0    0  0.27404797569E+02 -0.55307570453E+02 -0.25097490156E+02  0.66632081547E+02  0.00000000000E+00 0.  1.
         11    1    1    2    0    0  0.31119068682E+02 -0.82230304289E+01 -0.12349184785E+03  0.12761759734E+03  0.00000000000E+00 0. -1.
</event>
<event>
 7    1  0.2686828E-009  0.1048116E+03  0.7561462E-02  0.1270491E+00
          2   -1    0    0  501    0  0.00000000000E+00  0.00000000000E+00  0.73776143980E+02  0.73776143980E+02  0.00000000000E+00 0. -1.
         -2   -1    0    0    0  501 -0.00000000000E+00 -0.00000000000E+00 -0.18838318670E+03  0.18838318670E+03  0.00000000000E+00 0.  1.
         25    2    1    2    0    0 -0.13453844829E+02  0.22828033475E+02 -0.10528052583E+03  0.16563066043E+03  0.12508957392E+03 0.  0.
          5    1    3    3  502    0  0.26673789432E+02 -0.39807600405E+02 -0.65220831491E+02  0.81039282778E+02  0.41800000000E+01 0. -1.
         -5    1    3    3    0  502 -0.40127634261E+02  0.62635633880E+02 -0.40059694338E+02  0.84591377654E+02  0.41800000000E+01 0. -1.
        -11    1    1    2    0    0  0.47208375847E+02 -0.17850281815E+01  0.15405046809E+02  0.49690366701E+02  0.00000000000E+00 0. -1.
         11    1    1    2    0    0 -0.33754531018E+02 -0.21043005294E+02 -0.24731563697E+02  0.46838303544E+02  0.00000000000E+00 0.  1.
</event>
<event>
 7    1  0.2686828E-009  0.1567760E+03  0.7561462E-02  0.1192385E+00
         -2   -1    0    0    0  501 -0.00000000000E+00  0.00000000000E+00  0.58543207330E+02  0.58543207330E+02  0.00000000000E+00 0.  1.
          2   -1    0    0  501    0  0.00000000000E+00 -0.00000000000E+00 -0.71140338968E+03  0.71140338968E+03  0.00000000000E+00 0. -1.
         25    2    1    2    0    0  0.60148468695E+01  0.14854993248E+03 -0.17306960691E+03  0.26019828607E+03  0.12508716327E+03 0.  0.
          5    1    3    3  502    0  0.13086661383E+02  0.47134731661E+01  0.16573316036E+02  0.22036894969E+02  0.41800000000E+01 0.  1.
         -5    1    3    3    0  502 -0.70718145139E+01  0.14383645931E+03 -0.18964292295E+03  0.23816139110E+03  0.41800000000E+01 0.  1.
        -11    1    1    2    0    0 -0.24568021750E+02 -0.68121099650E+02 -0.11629134952E+03  0.13699543745E+03  0.00000000000E+00 0.  1.
         11    1    1    2    0    0  0.18553174880E+02 -0.80428832827E+02 -0.36349922592E+03  0.37275287349E+03  0.00000000000E+00 0. -1.
</event>
<event>
 7    1  0.2686828E-009  0.1404255E+03  0.7561462E-02  0.1212758E+00
          1   -1    0    0  501    0  0.00000000000E+00  0.00000000000E+00  0.33307730349E+03  0.33307730349E+03  0.00000000000E+00 0. -1.
         -1   -1    0    0    0  501 -0.00000000000E+00 -0.00000000000E+00 -0.77076121165E+02  0.77076121165E+02  0.00000000000E+00 0.  1.
         25    2    1    2    0    0 -0.75518587786E+02  0.71449420298E+02  0.55511170673E+02  0.17186274636E+03  0.12508891539E+03 0.  0.
          5    1    3    3  502    0 -0.11033953833E+03  0.58611761141E+02  0.38340201344E+02  0.13075777492E+03  0.41800000000E+01 0. -1.
         -5    1    3    3    0  502  0.34820950543E+02  0.12837659157E+02  0.17170969329E+02  0.41104971439E+02  0.41800000000E+01 0. -1.
        -11    1    1    2    0    0  0.14656845483E+02 -0.52863054941E+02  0.14052396554E+03  0.15085194923E+03  0.00000000000E+00 0.  1.
         11    1    1    2    0    0  0.60861742303E+02 -0.18586365357E+02  0.59966046117E+02  0.87438729064E+02  0.00000000000E+00 0. -1.
</event>
<event>
 7    1  0.2686828E-009  0.1203431E+03  0.7561462E-02  0.1242532E+00
         -1   -1    0    0    0  501 -0.00000000000E+00  0.00000000000E+00  0.22155859240E+03  0.22155859240E+03  0.00000000000E+00 0.  1.
          1   -1    0    0  501    0  0.00000000000E+00 -0.00000000000E+00 -0.11030493013E+03  0.11030493013E+03  0.00000000000E+00 0. -1.
         25    2    1    2    0    0 -0.89380249569E+02 -0.57512773909E+02  0.20536497628E+02  0.16542509364E+03  0.12508863136E+03 0.  0.
          5    1    3    3  502    0 -0.98206341772E+01  0.61766659347E+01  0.56073797919E+02  0.57413755066E+02  0.41800000000E+01 0.  1.
         -5    1    3    3    0  502 -0.79559615392E+02 -0.63689439844E+02 -0.35537300291E+02  0.10801133858E+03  0.41800000000E+01 0.  1.
        -11    1    1    2    0    0  0.65881480127E+02  0.18167078442E+01  0.11679065412E+02  0.66933328171E+02  0.00000000000E+00 0.  1.
         11    1    1    2    0    0  0.23498769442E+02  0.55696066065E+02  0.79038099222E+02  0.99505100719E+02  0.00000000000E+00 0. -1.
</event>
<event>
 7    1  0.2686828E-009  0.1546174E+03  0.7561462E-02  0.1194911E+00
          1   -1    0    0  501    0  0.00000000000E+00  0.00000000000E+00  0.75009643270E+03  0.75009643270E+03  0.00000000000E+00 0. -1.
         -1   -1    0    0    0  501 -0.00000000000E+00 -0.00000000000E+00 -0.40373086981E+02  0.40373086981E+02  0.00000000000E+00 0.  1.
         25    2    1    2    0    0  0.51740095216E+02 -0.11798901354E+03  0.28013431403E+03  0.33274459093E+03  0.12508111020E+03 0.  0.
          5    1    3    3  502    0  0.44939823748E+02 -0.14058923927E+03  0.19681195937E+03  0.24604337363E+03  0.41800000000E+01 0. -1.
         -5    1    3    3    0  502  0.68002714678E+01  0.22600225733E+02  0.83322354662E+02  0.86701217302E+02  0.41800000000E+01 0. -1.
        -11    1    1    2    0    0  0.91645428730E+01  0.23158894106E+02  0.17340949894E+02  0.30348505161E+02  0.00000000000E+00 0.  1.
         11    1    1    2    0    0 -0.60904638089E+02  0.94830119435E+02  0.41224808180E+03  0.42737642359E+03  0.00000000000E+00 0. -1.
</event>
<event>
 7    1  0.2686828E-009  0.8796665E+02  0.7561462E-02  0.1307852E+00
         -2   -1    0    0    0  501 -0.00000000000E+00  0.00000000000E+00  0.42313011424E+02  0.42313011424E+02  0.00000000000E+00 0.  1.
          2   -1    0    0  501    0  0.00000000000E+00 -0.00000000000E+00 -0.28518014917E+03  0.28518014917E+03  0.00000000000E+00 0. -1.
         25    2    1    2    0    0 -0.95197159635E+01 -0.95365805070E+00 -0.11060997796E+03  0.16725105453E+03  0.12508722382E+03 0.  0.
          5    1    3    3  502    0 -0.48832666184E+02  0.24534415375E+02 -0.10681936080E+03  0.12006004775E+03  0.41800000000E+01 0.  1.
         -5    1    3    3    0  502  0.39312950221E+02 -0.25488073425E+02 -0.37906171518E+01  0.47191006774E+02  0.41800000000E+01 0.  1.
        -11    1    1    2    0    0  0.13910892105E+02  0.36088866177E+02 -0.22125910802E+02  0.44558670424E+02  0.00000000000E+00 0.  1.
         11    1    1    2    0    0 -0.43911761414E+01 -0.35135208127E+02 -0.11013124899E+03  0.11568343564E+03  0.00000000000E+00 0. -1.
</event>
<event>
 7    1  0.2686828E-009  0.1135064E+03  0.7561462E-02  0.1254211E+00
         -4   -1    0    0    0  501 -0.00000000000E+00  0.00000000000E+00  0.12463019150E+03  0.12463019150E+03  0.00000000000E+00 0.  1.
          4   -1    0    0  501    0  0.00000000000E+00 -0.00000000000E+00 -0.27752719208E+03  0.27752719208E+03  0.00000000000E+00 0. -1.
         25    2    1    2    0    0  0.39302690791E+02 -0.57117504947E+02  0.63183447962E+02  0.15635456544E+03  0.12508993230E+03 0.  0.
          5    1    3    3  502    0  0.70815657828E+02 -0.58624600788E+02  0.76461928198E+01  0.92345210356E+02  0.41800000000E+01 0.  1.
         -5    1    3    3    0  502 -0.31512967037E+02  0.15070958406E+01  0.55537255142E+02  0.64009355082E+02  0.41800000000E+01 0.  1.
        -11    1    1    2    0    0 -0.62551151884E+02  0.43874892057E+02 -0.95565818301E+02  0.12235390628E+03  0.00000000000E+00 0. -1.
         11    1    1    2    0    0  0.23248461094E+02  0.13242612890E+02 -0.12051463024E+03  0.12344891187E+03  0.00000000000E+00 0.  1.
</event>
<event>
 7    1  0.3012217E-009  0.1228843E+03  0.7561462E-02  0.1238413E+00
          2   -1    0    0  501    0  0.00000000000E+00  0.00000000000E+00  0.73898610571E+03  0.73898610571E+03  0.00000000000E+00 0. -1.
         -2   -1    0    0    0  501 -0.00000000000E+00 -0.00000000000E+00 -0.25968047048E+02  0.25968047048E+02  0.00000000000E+00 0.  1.
         25    2    1    2    0    0 -0.22048459248E+02 -0.83161458501E+02  0.40283616413E+03  0.43049535497E+03  0.12508921932E+03 0.  0.
          5    1    3    3  502    0  0.39201952127E+02  0.81864741103E+01  0.13647447175E+03  0.14229042571E+03  0.41800000000E+01 0.  1.
         -5    1    3    3    0  502 -0.61250411375E+02 -0.91347932612E+02  0.26636169237E+03  0.28820492926E+03  0.41800000000E+01 0.  1.
        -11    1    1    2    0    0  0.33682954759E+02  0.49898058400E+02  0.28463855668E+03  0.29093550080E+03  0.00000000000E+00 0. -1.
         11    1    1    2    0    0 -0.11634495511E+02  0.33263400101E+02  0.25543337852E+02  0.43523296988E+02  0.00000000000E+00 0.  1.
</event>
<event>
 7    1  0.2686828E-009  0.1089263E+03  0.7561462E-02  0.1262571E+00
         -1   -1    0    0    0  501 -0.00000000000E+00  0.00000000000E+00  0.58273227024E+02  0.58273227024E+02  0.00000000000E+00 0.  1.
          1   -1    0    0  501    0  0.00000000000E+00 -0.00000000000E+00 -0.49528566139E+03  0.49528566139E+03  0.00000000000E+00 0. -1.
         25    2    1    2    0    0 -0.96017811849E+02  0.28460140900E+02 -0.36860845545E+03  0.40192816896E+03  0.12507861431E+03 0.  0.
          5    1    3    3  502    0 -0.63575254391E+02  0.59159539502E+01 -0.50945596089E+02  0.81790816373E+02  0.41800000000E+01 0. -1.
         -5    1    3    3    0  502 -0.32442557458E+02  0.22544186949E+02 -0.31766285937E+03  0.32013735259E+03  0.41800000000E+01 0. -1.
        -11    1    1    2    0    0  0.47880221718E+01  0.13056531698E+02 -0.47165535697E+02  0.49173020386E+02  0.00000000000E+00 0. -1.
         11    1    1    2    0    0  0.91229789677E+02 -0.41516672598E+02 -0.21238443213E+02  0.10245769907E+03  0.00000000000E+00 0.  1.
</event>
<event>
 7    1  0.2686828E-009  0.1031194E+03  0.7561462E-02  0.1273870E+00
         -1   -1    0    0    0  501 -0.00000000000E+00  0.00000000000E+00  0.82410293414E+02  0.82410293414E+02  0.00000000000E+00 0.  1.
          1   -1    0    0  501    0  0.00000000000E+00 -0.00000000000E+00 -0.26100387769E+03  0.26100387769E+03  0.00000000000E+00 0. -1.
         25    2    1    2    0    0 -0.26263554229E+02 -0.12079866114E+02  0.13305141140E+02  0.12907609944E+03  0.12509162730E+03 0.  0.
          5    1    3    3  502    0 -0.34990630815E+02  0.45381946521E+02 -0.21330363051E+02  0.61288841585E+02  0.41800000000E+01 0.  1.
         -5    1    3    3    0  502  0.87270765869E+01 -0.57461812636E+02  0.34635504190E+02  0.67787257856E+02  0.41800000000E+01 0.  1.
        -11    1    1    2    0    0  0.56007312511E+02  0.20429884966E+02 -0.15584469674E+03  0.16685852917E+03  0.00000000000E+00 0. -1.
         11    1    1    2    0    0 -0.29743758283E+02 -0.83500188516E+01 -0.36054028675E+02  0.47479542492E+02  0.00000000000E+00 0.  1.
</event>
<event>
 7    1  0.2686828E-009  0.9471829E+02  0.7561462E-02  0.1291812E+00
          2   -1    0    0  501    0  0.00000000000E+00  0.00000000000E+00  0.54409233146E+03  0.54409233146E+03  0.00000000000E+00 0. -1.
         -2   -1    0    0    0  501 -0.00000000000E+00 -0.00000000000E+00 -0.25251514625E+02  0.25251514625E+02  0.00000000000E+00 0.  1.
         25    2    1    2    0    0  0.22606703105E+02 -0.37875312316E+02  0.25465674261E+03  0.28712870159E+03  0.12508889803E+03 0.  0.
          5    1    3    3  502    0  0.46940040605E+01 -0.65321073785E+02  0.57583972632E+02  0.87305570605E+02  0.41800000000E+01 0. -1.
         -5    1    3    3    0  502  0.17912699045E+02  0.27445761469E+02  0.19707276997E+03  0.19982313098E+03  0.41800000000E+01 0. -1.
        -11    1    1    2    0    0  0.39300645397E+00 -0.24391950899E+02  0.29271946408E+02  0.38104705343E+02  0.00000000000E+00 0.  1.
         11    1    1    2    0    0 -0.22999709559E+02  0.62267263215E+02  0.23491212782E+03  0.24411043916E+03  0.00000000000E+00 0. -1.
</event>
<event>
 7    1  0.2686828E-009  0.1151462E+03  0.7561462E-02  0.1251326E+00
          2   -1    0    0  501    0  0.00000000000E+00  0.00000000000E+00  0.11913574298E+03  0.11913574298E+03  0.00000000000E+00 0. -1.
         -2   -1    0    0    0  501 -0.00000000000E+00 -0.00000000000E+00 -0.19431655530E+03  0.19431655530E+03  0.00000000000E+00 0.  1.
         25    2    1    2    0    0  0.32386765462E+02  0.44213345350E+02  0.52995635937E+02  0.14650260601E+03  0.12510297221E+03 0.  0.
          5    1    3    3  502    0  0.34006344476E+02 -0.34094458677E+02 -0.55119380677E+01  0.48648920218E+02  0.41800000000E+01 0.  1.
         -5    1    3    3    0  502 -0.16195790143E+01  0.78307804027E+02  0.58507574005E+02  0.97853685795E+02  0.41800000000E+01 0.  1.
        -11    1    1    2    0    0 -0.18716865923E+02 -0.71011824764E+02 -0.69995909257E+02  0.10145160245E+03  0.00000000000E+00 0. -1.
         11    1    1    2    0    0 -0.13669899539E+02  0.26798479415E+02 -0.58180538996E+02  0.65498089821E+02  0.00000000000E+00 0.  1.
</event>
<event>
 7    1  0.2686828E-009  0.9691165E+02  0.7561462E-02  0.1286928E+00
          1   -1    0    0  501    0  0.00000000000E+00  0.00000000000E+00  0.96787143830E+02  0.96787143830E+02  0.00000000000E+00 0. -1.
         -1   -1    0    0    0  501 -0.00000000000E+00 -0.00000000000E+00 -0.14298636870E+03  0.14298636870E+03  0.00000000000E+00 0.  1.
         25    2    1    2    0    0 -0.77891634666E+00 -0.42989264445E+02 -0.36835008464E+02  0.13731644267E+03  0.12510117510E+03 0.  0.
          5    1    3    3  502    0 -0.73810204408E+01 -0.68941802559E+02 -0.67177192089E+02  0.96631770862E+02  0.41800000000E+01 0.  1.
         -5    1    3    3    0  502  0.66021040941E+01  0.25952538115E+02  0.30342183625E+02  0.40684671809E+02  0.41800000000E+01 0.  1.
        -11    1    1    2    0    0 -0.30048794985E+02 -0.13470914494E+02 -0.18038050890E+02  0.37546862682E+02  0.00000000000E+00 0.  1.
         11    1    1    2    0    0  0.30827711331E+02  0.56460178939E+02  0.86738344801E+01  0.64910207181E+02  0.00000000000E+00 0. -1.
</event>
<event>
 7    1  0.2686828E-009  0.1060671E+03  0.7561462E-02  0.1268031E+00
         -2   -1    0    0    0  501 -0.00000000000E+00  0.00000000000E+00  0.76734388031E+02  0.76734388031E+02  0.00000000000E+00 0.  1.
          2   -1    0    0  501    0  0.00000000000E+00 -0.00000000000E+00 -0.17568258249E+03  0.17568258249E+03  0.00000000000E+00 0. -1.
         25    2    1    2    0    0  0.12823660642E+02  0.19464959798E+02 -0.90282697624E+02  0.15603047036E+03  0.12510480110E+03 0.  0.
          5    1    3    3  502    0 -0.20468004970E+02 -0.45186678281E+02 -0.57780322001E+02  0.76268034798E+02  0.41800000000E+01 0.  1.
         -5    1    3    3    0  502  0.33291665611E+02  0.64651638080E+02 -0.32502375623E+02  0.79762435562E+02  0.41800000000E+01 0.  1.
        -11    1    1    2    0    0  0.35935037639E+02  0.25263876116E+01  0.13522975829E+02  0.38478311290E+02  0.00000000000E+00 0.  1.
         11    1    1    2    0    0 -0.48758698281E+02 -0.21991347410E+02 -0.22188472661E+02  0.57908188868E+02  0.00000000000E+00 0. -1.
</event>
<event>
 7    1  0.2686828E-009  0.1195060E+03  0.7561462E-02  0.1243914E+00
         -2   -1    0    0    0  501 -0.00000000000E+00  0.00000000000E+00  0.11996676562E+02  0.11996676562E+02  0.00000000000E+00 0.  1.
          2   -1    0    0  501    0  0.00000000000E+00 -0.00000000000E+00 -0.14854952519E+04  0.14854952519E+04  0.00000000000E+00 0. -1.
         25    2    1    2    0    0  0.51047454493E+02  0.24602218489E+02 -0.11150787283E+04  0.11235025899E+04  0.12508551996E+03 0.  0.
          5    1    3    3  502    0  0.64170310204E+02 -0.34407456404E+02 -0.73685500308E+03  0.74045558255E+03  0.41800000000E+01 0. -1.
         -5    1    3    3    0  502 -0.13122855711E+02  0.59009674893E+02 -0.37822372525E+03  0.38304700732E+03  0.41800000000E+01 0. -1.
        -11    1    1    2    0    0 -0.49876743383E+02 -0.55468564120E+02 -0.27822786636E+03  0.28805415594E+03  0.00000000000E+00 0. -1.
         11    1    1    2    0    0 -0.11707111100E+01  0.30866345631E+02 -0.80191980651E+02  0.85935182654E+02  0.00000000000E+00 0.  1.
</event>
<event>
 7    1  0.2686828E-009  0.5398676E+02  0.7561462E-02  0.1424952E+00
          2   -1    0    0  501    0  0.00000000000E+00  0.00000000000E+00  0.55614011894E+03  0.55614011894E+03  0.00000000000E+00 0. -1.
         -2   -1    0    0    0  501 -0.00000000000E+00 -0.00000000000E+00 -0.22742898933E+02  0.22742898933E+02  0.00000000000E+00 0.  1.
         25    2    1    2    0    0  0.68056090709E+01 -0.80486944189E+01  0.37508498608E+03  0.39553141570E+03  0.12508099867E+03 0.  0.
          5    1    3    3  502    0  0.35699820752E+01 -0.10417091012E+02 -0.68013518619E+01  0.13601152316E+02  0.41800000000E+01 0.  1.
         -5    1    3    3    0  502  0.32356269957E+01  0.23683965929E+01  0.38188633794E+03  0.38193026338E+03  0.41800000000E+01 0.  1.
        -11    1    1    2    0    0  0.31258995931E+02 -0.24973852700E+02  0.89731385912E+02  0.98247339725E+02  0.00000000000E+00 0.  1.
         11    1    1    2    0    0 -0.38064605002E+02  0.33022547119E+02  0.68580848021E+02  0.85104262451E+02  0.00000000000E+00 0. -1.
</event>
<event>
 7    1  0.2843404E-009  0.2732558E+03  0.7561462E-02  0.1099431E+00
          2   -1    0    0  501    0  0.00000000000E+00  0.00000000000E+00  0.90850307179E+03  0.90850307179E+03  0.00000000000E+00 0. -1.
         -2   -1    0    0    0  501 -0.00000000000E+00 -0.00000000000E+00 -0.86003399498E+02  0.86003399498E+02  0.00000000000E+00 0.  1.
         25    2    1    2    0    0 -0.13684226190E+03  0.21444241776E+03  0.35271081413E+03  0.45250931747E+03  0.12509360020E+03 0.  0.
          5    1    3    3  502    0 -0.16032451240E+03  0.18545458837E+03  0.29395021808E+03  0.38278134324E+03  0.41800000000E+01 0.  1.
         -5    1    3    3    0  502  0.23482250499E+02  0.28987829395E+02  0.58760596051E+02  0.69727974227E+02  0.41800000000E+01 0.  1.
        -11    1    1    2    0    0  0.56781677002E+02 -0.15199277030E+03  0.34397742735E+03  0.38032411388E+03  0.00000000000E+00 0.  1.
         11    1    1    2    0    0  0.80060584901E+02 -0.62449647466E+02  0.12581143081E+03  0.16167303994E+03  0.00000000000E+00 0. -1.
</event>
<event>
 7    1  0.2686828E-009  0.1160745E+03  0.7561462E-02  0.1249717E+00
          1   -1    0    0  501    0  0.00000000000E+00  0.00000000000E+00  0.33620639427E+03  0.33620639427E+03  0.00000000000E+00 0. -1.
         -1   -1    0    0    0  501 -0.00000000000E+00 -0.00000000000E+00 -0.10188193215E+03  0.10188193215E+03  0.00000000000E+00 0.  1.
         25    2    1    2    0    0 -0.63992537372E+02  0.50734183600E+02 -0.24785357018E+02  0.15141350100E+03  0.12507090844E+03 0.  0.
          5    1    3    3  502    0 -0.57703329544E+02 -0.31973733400E+02 -0.15043698911E+02  0.67792176134E+02  0.41800000000E+01 0. -1.
         -5    1    3    3    0  502 -0.62892078274E+01  0.82707917000E+02 -0.97416581073E+01  0.83621324865E+02  0.41800000000E+01 0. -1.
        -11    1    1    2    0    0  0.29210332638E+02 -0.32590651604E+02  0.27328232590E+02  0.51596767353E+02  0.00000000000E+00 0.  1.
         11    1    1    2    0    0  0.34782204734E+02 -0.18143531996E+02  0.23178158655E+03  0.23507805807E+03  0.00000000000E+00 0. -1.
</event>
<event>
 7    1  0.2686828E-009  0.1697443E+03  0.7561462E-02  0.1178115E+00
          2   -1    0    0  501    0  0.00000000000E+00  0.00000000000E+00  0.58175288817E+02  0.58175288817E+02  0.00000000000E+00 0.  1.
         -2   -1    0    0    0  501 -0.00000000000E+00 -0.00000000000E+00 -0.55369329719E+03  0.55369329719E+03  0.00000000000E+00 0. -1.
         25    2    1    2    0    0 -0.12044752115E+03  0.68691496760E+02 -0.20465042913E+03  0.27704716386E+03  0.12508879159E+03 0.  0.
          5    1    3    3  502    0 -0.70756922029E+02  0.10203245042E+03 -0.15836117080E+03  0.20127815523E+03  0.41800000000E+01 0.  1.
         -5    1    3    3    0  502 -0.49690599121E+02 -0.33340953663E+02 -0.46289258328E+02  0.75769008630E+02  0.41800000000E+01 0.  1.
        -11    1    1    2    0    0  0.12676788520E+03 -0.51285456029E+02 -0.20127433064E+03  0.24333444247E+03  0.00000000000E+00 0.  1.
         11    1    1    2    0    0 -0.63203640468E+01 -0.17406040731E+02 -0.89593248606E+02  0.91486979682E+02  0.00000000000E+00 0. -1.
</event>
<event>
 7    1  0.2686828E-009  0.1075708E+03  0.7561462E-02  0.1265136E+00
         -2   -1    0    0    0  501 -0.00000000000E+00  0.00000000000E+00  0.43860282763E+02  0.43860282763E+02  0.00000000000E+00 0.  1.
          2   -1    0    0  501    0  0.00000000000E+00 -0.00000000000E+00 -0.38424194452E+03  0.38424194452E+03  0.00000000000E+00 0. -1.
         25    2    1    2    0    0  0.30286633259E+01  0.35585443944E+02 -0.87616846499E+02  0.15684010989E+03  0.12508641676E+03 0.  0.
          5    1    3    3  502    0  0.43236849518E+02 -0.28227173903E+02 -0.51729024548E+02  0.73209035532E+02  0.41800000000E+01 0. -1.
         -5    1    3    3    0  502 -0.40208186193E+02  0.63812617847E+02 -0.35887821951E+02  0.83631074355E+02  0.41800000000E+01 0. -1.
        -11    1    1    2    0    0  0.71592826663E+01 -0.60478490259E+02 -0.22290261841E+03  0.23107245705E+03  0.00000000000E+00 0. -1.
         11    1    1    2    0    0 -0.10187945992E+02  0.24893046315E+02 -0.29862196854E+02  0.40189660354E+02  0.00000000000E+00 0.  1.
</event>
<event>
 7    1  0.2686828E-009  0.9379313E+02  0.7561462E-02  0.1293918E+00
          3   -1    0    0  501    0  0.00000000000E+00  0.00000000000E+00  0.15148575058E+03  0.15148575058E+03  0.00000000000E+00 0. -1.
         -3   -1    0    0    0  501 -0.00000000000E+00 -0.00000000000E+00 -0.11168773849E+03  0.11168773849E+03  0.00000000000E+00 0.  1.
         25    2    1    2    0    0  0.20917483323E+01 -0.40093057431E+02  0.81443229682E+02  0.15457109824E+03  0.12508955226E+03 0.  0.
          5    1    3    3  502    0 -0.38085927284E+02 -0.70795764467E+02  0.53377562960E+02  0.96587860268E+02  0.41800000000E+01 0. -1.
         -5    1    3    3    0  502  0.40177675617E+02  0.30702707037E+02  0.28065666723E+02  0.57983237974E+02  0.41800000000E+01 0. -1.
        -11    1    1    2    0    0 -0.18578434190E+02  0.79164689488E+01  0.25388211861E+02  0.32440561016E+02  0.00000000000E+00 0. -1.
         11    1    1    2    0    0  0.16486685858E+02  0.32176588482E+02 -0.67033429451E+02  0.76161829815E+02  0.00000000000E+00 0.  1.
</event>
<event>
 7    1  0.2686828E-009  0.1507940E+03  0.7561462E-02  0.1199501E+00
         -1   -1    0    0    0  501 -0.00000000000E+00  0.00000000000E+00  0.21404320652E+02  0.21404320652E+02  0.00000000000E+00 0.  1.
          1   -1    0    0  501    0  0.00000000000E+00 -0.00000000000E+00 -0.11298537097E+04  0.11298537097E+04  0.00000000000E+00 0. -1.
         25    2    1    2    0    0  0.58320709159E+02 -0.23243969526E+02 -0.40675785885E+03  0.43016815733E+03  0.12510435887E+03 0.  0.
          5    1    3    3  502    0  0.14794159723E+01 -0.65108948670E+02 -0.24665996907E+03  0.25514697060E+03  0.41800000000E+01 0. -1.
         -5    1    3    3    0  502  0.56841293187E+02  0.41864979144E+02 -0.16009788978E+03  0.17502118673E+03  0.41800000000E+01 0. -1.
        -11    1    1    2    0    0 -0.49397049603E+02 -0.62353345011E+02 -0.36565318560E+03  0.37420617350E+03  0.00000000000E+00 0. -1.
         11    1    1    2    0    0 -0.89236595564E+01  0.85597314537E+02 -0.33603834457E+03  0.34688369950E+03  0.00000000000E+00 0.  1.
</event>
<event>
 7    1  0.2686828E-009  0.1327022E+03  0.7561462E-02  0.1223500E+00
          2   -1    0    0  501    0  0.00000000000E+00  0.00000000000E+00  0.99166500960E+03  0.99166500960E+03  0.00000000000E+00 0.  1.
         -2   -1    0    0    0  501 -0.00000000000E+00 -0.00000000000E+00 -0.22347149315E+02  0.22347149315E+02  0.00000000000E+00 0. -1.
         25    2    1    2    0    0 -0.15577376075E+02  0.96888680478E+02  0.44882691190E+03  0.47615714255E+03  0.12509978621E+03 0.  0.
          5    1    3    3  502    0 -0.79834299590E+01 -0.15774304216E+02  0.59863983657E+01  0.19127812023E+02  0.41800000000E+01 0.  1.
         -5    1    3    3    0  502 -0.75939461160E+01  0.11266298469E+03  0.44284051353E+03  0.45702933053E+03  0.41800000000E+01 0.  1.
        -11    1    1    2    0    0  0.53262381270E+02 -0.69942732334E+02  0.30365755842E+03  0.31612779038E+03  0.00000000000E+00 0.  1.
         11    1    1    2    0    0 -0.37685005195E+02 -0.26945948144E+02  0.21683338997E+03  0.22172722598E+03  0.00000000000E+00 0. -1.
</event>
<event>
 7    1  0.3381022E-009  0.1333112E+03  0.7561462E-02  0.1222624E+00
          1   -1    0    0  501    0  0.00000000000E+00  0.00000000000E+00  0.12686510123E+03  0.12686510123E+03  0.00000000000E+00 0. -1.
         -1   -1    0    0    0  501 -0.00000000000E+00 -0.00000000000E+00 -0.17777791519E+03  0.17777791519E+03  0.00000000000E+00 0.  1.
         25    2    1    2    0    0 -0.28154138726E+02 -0.99678455378E+02 -0.24021166324E+02  0.16417775308E+03  0.12509543629E+03 0.  0.
          5    1    3    3  502    0 -0.71989028365E+02 -0.76528753338E+02 -0.39115850741E+02  0.11218998383E+03  0.41800000000E+01 0.  1.
         -5    1    3    3    0  502  0.43834889638E+02 -0.23149702040E+02  0.15094684417E+02  0.51987769252E+02  0.41800000000E+01 0.  1.
        -11    1    1    2    0    0 -0.84450161902E+01  0.45917624533E+02 -0.52779663807E+02  0.70465874385E+02  0.00000000000E+00 0.  1.
         11    1    1    2    0    0  0.36599154916E+02  0.53760830845E+02  0.25888016170E+02  0.69999388961E+02  0.00000000000E+00 0. -1.
</event>
<event>
 7    1  0.2686828E-009  0.1084298E+03  0.7561462E-02  0.1263506E+00
          2   -1    0    0  501    0  0.00000000000E+00  0.00000000000E+00  0.33254026577E+03  0.33254026577E+03  0.00000000000E+00 0.  1.
         -2   -1    0    0    0  501 -0.00000000000E+00 -0.00000000000E+00 -0.74507777713E+02  0.74507777713E+02  0.00000000000E+00 0. -1.
         25    2    1    2    0    0  0.42194276663E+02  0.30822197812E+02  0.76190215851E+01  0.13578394317E+03  0.12509542307E+03 0.  0.
          5    1    3    3  502    0 -0.31632118335E+02 -0.20182638612E+02 -0.18764165987E+02  0.42160362153E+02  0.41800000000E+01 0.  1.
         -5    1    3    3    0  502  0.73826394998E+02  0.51004836423E+02  0.26383187572E+02  0.93623581022E+02  0.41800000000E+01 0.  1.
        -11    1    1    2    0    0 -0.22023355900E+02 -0.54137731434E+02  0.22120210784E+03  0.22879312639E+03  0.00000000000E+00 0.  1.
         11    1    1    2    0    0 -0.20170920763E+02  0.23315533623E+02  0.29211358627E+02  0.42470973916E+02  0.00000000000E+00 0. -1.
</event>
<event>
 7    1  0.2686828E-009  0.1130952E+03  0.7561462E-02  0.1254943E+00
         -4   -1    0    0    0  501 -0.00000000000E+00  0.00000000000E+00  0.29894153334E+03  0.29894153334E+03  0.00000000000E+00 0.  1.
          4   -1    0    0  501    0  0.00000000000E+00 -0.00000000000E+00 -0.47278535752E+02  0.47278535752E+02  0.00000000000E+00 0. -1.
         25    2    1    2    0    0 -0.51557077449E-01  0.47655497628E+02  0.13301187351E+03  0.18870806434E+03  0.12509007131E+03 0.  0.
          5    1    3    3  502    0 -0.10219016434E+02 -0.40211891994E+02  0.64237616577E+02  0.76585692777E+02  0.41800000000E+01 0.  1.
         -5    1    3    3    0  502  0.10167459357E+02  0.87867389622E+02  0.68774256935E+02  0.11212237157E+03  0.41800000000E+01 0.  1.
        -11    1    1    2    0    0  0.33366535401E+02  0.48881576369E+01  0.72784752626E+02  0.80217454364E+02  0.00000000000E+00 0.  1.
         11    1    1    2    0    0 -0.33314978323E+02 -0.52543655265E+02  0.45866371451E+02  0.77294550386E+02  0.00000000000E+00 0. -1.
</event>
<event>
 7    1  0.2686828E-009  0.9560265E+02  0.7561462E-02  0.1289825E+00
         -2   -1    0    0    0  501 -0.00000000000E+00  0.00000000000E+00  0.17501860643E+03  0.17501860643E+03  0.00000000000E+00 0.  1.
          2   -1    0    0  501    0  0.00000000000E+00 -0.00000000000E+00 -0.85688827939E+02  0.85688827939E+02  0.00000000000E+00 0. -1.
         25    2    1    2    0    0 -0.14714905057E+02 -0.32429607795E+02  0.31022541156E+01  0.13009486992E+03  0.12508734272E+03 0.  0.
          5    1    3    3  502    0  0.56668978623E+00  0.29221524884E+02  0.45049357914E+02  0.53862191771E+02  0.41800000000E+01 0. -1.
         -5    1    3    3    0  502 -0.15281594843E+02 -0.61651132679E+02 -0.41947103798E+02  0.76232678154E+02  0.41800000000E+01 0. -1.
        -11    1    1    2    0    0  0.12115381277E+02  0.64612700265E+02  0.55360528118E+02  0.85944002539E+02  0.00000000000E+00 0.  1.
         11    1    1    2    0    0  0.25995237794E+01 -0.32183092470E+02  0.30866996260E+02  0.44668561908E+02  0.00000000000E+00 0. -1.
</event>
<event>
 7    1  0.2954627E-009  0.1435285E+03  0.7561462E-02  0.1208658E+00
          2   -1    0    0  501    0  0.00000000000E+00  0.00000000000E+00  0.78295231081E+03  0.78295231081E+03  0.00000000000E+00 0. -1.
         -2   -1    0    0    0  501 -0.00000000000E+00 -0.00000000000E+00 -0.34248552194E+02  0.34248552194E+02  0.00000000000E+00 0.  1.
         25    2    1    2    0    0  0.11323841117E+03  0.21117218501E+02  0.29732821540E+03  0.34252112283E+03  0.12509107572E+03 0.  0.
          5    1    3    3  502    0  0.83269757354E+02 -0.40372060549E+02  0.11455948903E+03  0.14732652405E+03  0.41800000000E+01 0.  1.
         -5    1    3    3    0  502  0.29968653819E+02  0.61489279051E+02  0.18276872638E+03  0.19519459878E+03  0.41800000000E+01 0.  1.
        -11    1    1    2    0    0 -0.31640876628E+02 -0.30261770029E+02  0.57144835333E+02  0.71989249227E+02  0.00000000000E+00 0.  1.
         11    1    1    2    0    0 -0.81597534544E+02  0.91445515271E+01  0.39423070788E+03  0.40269049095E+03  0.00000000000E+00 0. -1.
</event>
<event>
 7    1  0.2686828E-009  0.8517780E+02  0.7561462E-02  0.1314968E+00
          1   -1    0    0  501    0  0.00000000000E+00  0.00000000000E+00  0.50731040166E+03  0.50731040166E+03  0.00000000000E+00 0. -1.
         -1   -1    0    0    0  501 -0.00000000000E+00 -0.00000000000E+00 -0.60146451434E+02  0.60146451434E+02  0.00000000000E+00 0.  1.
         25    2    1    2    0    0  0.25802176049E+02  0.76837868006E+02  0.41438547698E+03  0.44037902165E+03  0.12509416025E+03 0.  0.
          5    1    3    3  502    0  0.16038803787E+02  0.50044468623E+02  0.40730235692E+03  0.41069985929E+03  0.41800000000E+01 0. -1.
         -5    1    3    3    0  502  0.97633722626E+01  0.26793399383E+02  0.70831200526E+01  0.29679162355E+02  0.41800000000E+01 0. -1.
        -11    1    1    2    0    0 -0.31395311372E+02 -0.36725872860E+02  0.60924705899E+02  0.77757797695E+02  0.00000000000E+00 0.  1.
         11    1    1    2    0    0  0.55931353227E+01 -0.40111995146E+02 -0.28146232647E+02  0.49320033754E+02  0.00000000000E+00 0. -1.
</event>
<event>
 7    1  0.2686828E-009  0.1434136E+03  0.7561462E-02  0.1208808E+00
          2   -1    0    0  501    0  0.00000000000E+00  0.00000000000E+00  0.34530093749E+03  0.34530093749E+03  0.00000000000E+00 0.  1.
         -2   -1    0    0    0  501 -0.00000000000E+00 -0.00000000000E+00 -0.11968107854E+03  0.11968107854E+03  0.00000000000E+00 0. -1.
         25    2    1    2    0    0 -0.10450228378E+03 -0.24608590531E+02  0.27137919521E+03  0.31752173422E+03  0.12508826512E+03 0.  0.
          5    1    3    3  502    0 -0.74169899686E+02 -0.64241811097E+02  0.10502164994E+03  0.14378874667E+03  0.41800000000E+01 0. -1.
         -5    1    3    3    0  502 -0.30332384090E+02  0.39633220566E+02  0.16635754527E+03  0.17373298755E+03  0.41800000000E+01 0. -1.
        -11    1    1    2    0    0  0.10912918565E+03  0.44689184237E+02 -0.30461173129E+02  0.12179567077E+03  0.00000000000E+00 0. -1.
         11    1    1    2    0    0 -0.46269018780E+01 -0.20080593706E+02 -0.15298163128E+02  0.25664611037E+02  0.00000000000E+00 0.  1.
</event>
<event>
 7    1  0.2686828E-009  0.2891235E+03  0.7561462E-02  0.1090808E+00
         -2   -1    0    0    0  501 -0.00000000000E+00  0.00000000000E+00  0.17789163442E+03  0.17789163442E+03  0.00000000000E+00 0. -1.
          2   -1    0    0  501    0  0.00000000000E+00 -0.00000000000E+00 -0.55121019714E+03  0.55121019714E+03  0.00000000000E+00 0.  1.
         25    2    1    2    0    0  0.24043125934E+03 -0.15275387341E+03 -0.27282537142E+03  0.41379013924E+03  0.12509060610E+03 0.  0.
          5    1    3    3  502    0  0.17384120199E+03 -0.77753458922E+02 -0.24361305823E+03  0.30924287934E+03  0.41800000000E+01 0.  1.
         -5    1    3    3    0  502  0.66590057350E+02 -0.75000414484E+02 -0.29212313193E+02  0.10454725990E+03  0.41800000000E+01 0.  1.
        -11    1    1    2    0    0 -0.11310894737E+03  0.49557858808E+02 -0.86608552326E+02  0.15083320815E+03  0.00000000000E+00 0.  1.
         11    1    1    2    0    0 -0.12732231197E+03  0.10319601460E+03 -0.13884638974E+02  0.16447848416E+03  0.00000000000E+00 0. -1.
</event>
<event>
 7    1  0.2686828E-009  0.1045714E+03  0.7561462E-02  0.1270966E+00
          2   -1    0    0  501    0  0.00000000000E+00  0.00000000000E+00  0.27659996563E+03  0.27659996563E+03  0.00000000000E+00 0. -1.
         -2   -1    0    0    0  501 -0.00000000000E+00 -0.00000000000E+00 -0.98560178882E+02  0.98560178882E+02  0.00000000000E+00 0.  1.
         25    2    1    2    0    0 -0.25940806012E+02 -0.72604046948E+02 -0.14682879697E+02  0.14767317576E+03  0.12508999494E+03 0.  0.
          5    1    3    3  502    0 -0.16087194505E+02 -0.30229840941E+00 -0.59606514779E+02  0.61881323641E+02  0.41800000000E+01 0.  1.
         -5    1    3    3    0  502 -0.98536115066E+01 -0.72301748539E+02  0.44923635082E+02  0.85791852122E+02  0.41800000000E+01 0.  1.
        -11    1    1    2    0    0 -0.30045605354E+02  0.51447573698E+02  0.78666373262E+02  0.98681252134E+02  0.00000000000E+00 0.  1.
         11    1    1    2    0    0  0.55986411366E+02  0.21156473251E+02  0.11405629318E+03  0.12880571662E+03  0.00000000000E+00 0. -1.
</event>
<event>
 7    1  0.2686828E-009  0.1217004E+03  0.7561462E-02  0.1240318E+00
          1   -1    0    0  501    0  0.00000000000E+00  0.00000000000E+00  0.81584257716E+03  0.81584257716E+03  0.00000000000E+00 0. -1.
         -1   -1    0    0    0  501 -0.00000000000E+00 -0.00000000000E+00 -0.37548096886E+02  0.37548096886E+02  0.00000000000E+00 0.  1.
         25    2    1    2    0    0  0.81559475159E+02 -0.74281722690E+01  0.67639341716E+03  0.69272049770E+03  0.12508600015E+03 0.  0.
          5    1    3    3  502    0  0.10174023379E+03  0.30191117315E+02  0.50421643085E+03  0.51528075869E+03  0.41800000000E+01 0. -1.
         -5    1    3    3    0  502 -0.20180758632E+02 -0.37619289584E+02  0.17217698631E+03  0.17743973901E+03  0.41800000000E+01 0. -1.
        -11    1    1    2    0    0 -0.67666057775E+02 -0.13673559200E+02  0.15637176700E+02  0.70782645410E+02  0.00000000000E+00 0.  1.
         11    1    1    2    0    0 -0.13893417383E+02  0.21101731469E+02  0.86263886415E+02  0.89887530931E+02  0.00000000000E+00 0. -1.
</event>
<event>
 7    1  0.2686828E-009  0.1377734E+03  0.7561462E-02  0.1216357E+00
         -2   -1    0    0    0  501 -0.00000000000E+00  0.00000000000E+00  0.93650326764E+02  0.93650326764E+02  0.00000000000E+00 0.  1.
          2   -1    0    0  501    0  0.00000000000E+00 -0.00000000000E+00 -0.29722964403E+03  0.29722964403E+03  0.00000000000E+00 0. -1.
         25    2    1    2    0    0 -0.92111632877E+02 -0.28314523069E+02 -0.12148528784E+02  0.15836978754E+03  0.12508851956E+03 0.  0.
          5    1    3    3  502    0 -0.10319491284E+03 -0.62807978305E+02 -0.37068240492E+01  0.12093487966E+03  0.41800000000E+01 0. -1.
         -5    1    3    3    0  502  0.11083279961E+02  0.34493455237E+02 -0.84417047346E+01  0.37434907876E+02  0.41800000000E+01 0. -1.
        -11    1    1    2    0    0  0.62630902117E+02 -0.16305352472E+02 -0.15453096192E+03  0.16753600392E+03  0.00000000000E+00 0. -1.
         11    1    1    2    0    0  0.29480730760E+02  0.44619875540E+02 -0.36899826564E+02  0.64974179332E+02  0.00000000000E+00 0.  1.
</event>
<event>
 7    1  0.2686828E-009  0.1059228E+03  0.7561462E-02  0.1268312E+00
          2   -1    0    0  501    0  0.00000000000E+00  0.00000000000E+00  0.66246824600E+03  0.66246824600E+03  0.00000000000E+00 0. -1.
         -2   -1    0    0    0  501 -0.00000000000E+00 -0.00000000000E+00 -0.18378899290E+02  0.18378899290E+02  0.00000000000E+00 0.  1.
         25    2    1    2    0    0 -0.15541771008E+02 -0.14705235872E+02  0.40742136220E+03  0.42672921305E+03  0.12509142370E+03 0.  0.
          5    1    3    3  502    0  0.18434440278E+02 -0.63245198095E+02  0.18151774914E+03  0.19314748075E+03  0.41800000000E+01 0. -1.
         -5    1    3    3    0  502 -0.33976211285E+02  0.48539962224E+02  0.22590361306E+03  0.23358173229E+03  0.41800000000E+01 0. -1.
        -11    1    1    2    0    0 -0.13478073800E+02  0.43510631945E+02  0.78579261551E+02  0.90826944854E+02  0.00000000000E+00 0.  1.
         11    1    1    2    0    0  0.29019844807E+02 -0.28805396073E+02  0.15808872296E+03  0.16329098739E+03  0.00000000000E+00 0. -1.
</event>
<event>
 7    1  0.2686828E-009  0.4715680E+02  0.7561462E-02  0.1461309E+00
         -1   -1    0    0    0  501 -0.00000000000E+00  0.00000000000E+00  0.15875312019E+03  0.15875312019E+03  0.00000000000E+00 0.  1.
          1   -1    0    0  501    0  0.00000000000E+00 -0.00000000000E+00 -0.83873335736E+02  0.83873335736E+02  0.00000000000E+00 0. -1.
         25    2    1    2    0    0 -0.22284478490E+02 -0.15412349248E+01  0.75624832723E+02  0.14786901055E+03  0.12508859089E+03 0.  0.
          5    1    3    3  502    0 -0.21120249079E+02 -0.13479465201E+01 -0.32854045730E+02  0.39303213632E+02  0.41800000000E+01 0. -1.
         -5    1    3    3    0  502 -0.11642294109E+01 -0.19328840470E+00  0.10847887845E+03  0.10856579692E+03  0.41800000000E+01 0. -1.
        -11    1    1    2    0    0  0.33362266195E+02 -0.23639431454E+02  0.32049676632E+02  0.51952336784E+02  0.00000000000E+00 0.  1.
         11    1    1    2    0    0 -0.11077787704E+02  0.25180666378E+02 -0.32794724904E+02  0.42805108588E+02  0.00000000000E+00 0. -1.
</event>
<event>
 7    1  0.2686828E-009  0.1117538E+03  0.7561462E-02  0.1257356E+00
         -2   -1    0    0    0  501 -0.00000000000E+00  0.00000000000E+00  0.16294710446E+03  0.16294710446E+03  0.00000000000E+00 0.  1.
          2   -1    0    0  501    0  0.00000000000E+00 -0.00000000000E+00 -0.91298285485E+02  0.91298285485E+02  0.00000000000E+00 0. -1.
         25    2    1    2    0    0  0.67863274423E+02  0.32269583335E+02  0.48078060246E+02  0.15364791873E+03  0.12509769393E+03 0.  0.
          5    1    3    3  502    0  0.49306598690E+02 -0.41422248873E+02  0.17640046698E+01  0.64556389990E+02  0.41800000000E+01 0. -1.
         -5    1    3    3    0  502  0.18556675733E+02  0.73691832208E+02  0.46314055576E+02  0.89091528735E+02  0.41800000000E+01 0. -1.
        -11    1    1    2    0    0 -0.29451313420E+02 -0.33283359698E+02  0.39059798219E+02  0.59167809929E+02  0.00000000000E+00 0.  1.
         11    1    1    2    0    0 -0.38411961003E+02  0.10137763628E+01 -0.15489039487E+02  0.41429661293E+02  0.00000000000E+00 0. -1.
</event>
<event>
 7    1  0.2686828E-009  0.9703780E+02  0.7561462E-02  0.1286651E+00
         -2   -1    0    0    0  501 -0.00000000000E+00  0.00000000000E+00  0.31145675828E+02  0.31145675828E+02  0.00000000000E+00 0. -1.
          2   -1    0    0  501    0  0.00000000000E+00 -0.00000000000E+00 -0.48865591603E+03  0.48865591603E+03  0.00000000000E+00 0.  1.
         25    2    1    2    0    0  0.26305197136E+02  0.43327321242E+02 -0.22071091149E+03  0.25870562720E+03  0.12508427131E+03 0.  0.
          5    1    3    3  502    0 -0.29617287538E+02  0.64363587419E+02 -0.15065795380E+03  0.16653872387E+03  0.41800000000E+01 0.  1.
         -5    1    3    3    0  502  0.55922484674E+02 -0.21036266177E+02 -0.70052957690E+02  0.92166903322E+02  0.41800000000E+01 0.  1.
        -11    1    1    2    0    0 -0.36127267810E+02 -0.32584795580E+02 -0.24106699539E+03  0.24592731579E+03  0.00000000000E+00 0.  1.
         11    1    1    2    0    0  0.98220706742E+01 -0.10742525662E+02  0.42676666780E+01  0.15168648879E+02  0.00000000000E+00 0. -1.
</event>
<event>
 7    1  0.2686828E-009  0.1037193E+03  0.7561462E-02  0.1272664E+00
          2   -1    0    0  501    0  0.00000000000E+00  0.00000000000E+00  0.13721236660E+04  0.13721236660E+04  0.00000000000E+00 0. -1.
         -2   -1    0    0    0  501 -0.00000000000E+00 -0.00000000000E+00 -0.13016645299E+02  0.13016645299E+02  0.00000000000E+00 0.  1.
         25    2    1    2    0    0 -0.73216044405E+02 -0.77413102528E+01  0.10319526244E+04  0.10421106079E+04  0.12509109877E+03 0.  0.
          5    1    3    3  502    0 -0.32881312716E+02 -0.49749471447E+02  0.82257759449E+03  0.82474696847E+03  0.41800000000E+01 0.  1.
         -5    1    3    3    0  502 -0.40334731689E+02  0.42008161194E+02  0.20937502995E+03  0.21736363945E+03  0.41800000000E+01 0.  1.
        -11    1    1    2    0    0  0.32801671345E+02 -0.21647709647E+02  0.63473361541E+02  0.74655479379E+02  0.00000000000E+00 0.  1.
         11    1    1    2    0    0  0.40414373060E+02  0.29389019900E+02  0.26368103473E+03  0.26837422402E+03  0.00000000000E+00 0. -1.
</event>
<event>
 7    1  0.2686828E-009  0.2020554E+03  0.7561462E-02  0.1148016E+00
         -1   -1    0    0    0  501 -0.00000000000E+00  0.00000000000E+00  0.23267830128E+03  0.23267830128E+03  0.00000000000E+00 0.  1.
          1   -1    0    0  501    0  0.00000000000E+00 -0.00000000000E+00 -0.22423948107E+03  0.22423948107E+03  0.00000000000E+00 0. -1.
         25    2    1    2    0    0  0.69258781513E+02 -0.15699615449E+03  0.10643416931E+03  0.23753609510E+03  0.12510232906E+03 0.  0.
          5    1    3    3  502    0  0.92318602812E+02 -0.16205610482E+03  0.83609156135E+02  0.20443304264E+03  0.41800000000E+01 0. -1.
         -5    1    3    3    0  502 -0.23059821299E+02  0.50599503257E+01  0.22825013175E+02  0.33103052458E+02  0.41800000000E+01 0. -1.
        -11    1    1    2    0    0  0.20412567633E+01  0.10576356089E+03 -0.35379553647E+02  0.11154286332E+03  0.00000000000E+00 0.  1.
         11    1    1    2    0    0 -0.71300038276E+02  0.51232593599E+02 -0.62615795460E+02  0.10783882393E+03  0.00000000000E+00 0. -1.
</event>
<event>
 7    1  0.2686828E-009  0.1339425E+03  0.7561462E-02  0.1221720E+00
          2   -1    0    0  501    0  0.00000000000E+00  0.00000000000E+00  0.16743206726E+03  0.16743206726E+03  0.00000000000E+00 0. -1.
         -2   -1    0    0    0  501 -0.00000000000E+00 -0.00000000000E+00 -0.17258738615E+03  0.17258738615E+03  0.00000000000E+00 0.  1.
         25    2    1    2    0    0 -0.11573906122E+03 -0.38016689279E+02 -0.44554708862E+02  0.18020436723E+03  0.12509073879E+03 0.  0.
          5    1    3    3  502    0 -0.11120849307E+03 -0.35313501051E+02 -0.81669469224E+02  0.14248419874E+03  0.41800000000E+01 0.  1.
         -5    1    3    3    0  502 -0.45305681548E+01 -0.27031882281E+01  0.37114760363E+02  0.37720168493E+02  0.41800000000E+01 0.  1.
        -11    1    1    2    0    0  0.77255132408E+02 -0.15188721996E+02  0.50045551415E+02  0.93293140025E+02  0.00000000000E+00 0. -1.
         11    1    1    2    0    0  0.38483928815E+02  0.53205411274E+02 -0.10646161447E+02  0.66521946149E+02  0.00000000000E+00 0.  1.
</event>
<event>
 7    1  0.2686828E-009  0.1175148E+03  0.7561462E-02  0.1247254E+00
         -1   -1    0    0    0  501 -0.00000000000E+00  0.00000000000E+00  0.34570669800E+02  0.34570669800E+02  0.00000000000E+00 0.  1.
          1   -1    0    0  501    0  0.00000000000E+00 -0.00000000000E+00 -0.43227967819E+03  0.43227967819E+03  0.00000000000E+00 0. -1.
         25    2    1    2    0    0 -0.77117952233E+01 -0.49093141156E+02 -0.28105162414E+03  0.31162014109E+03  0.12508992208E+03 0.  0.
          5    1    3    3  502    0 -0.64886824763E+02 -0.12779674028E+02 -0.12581054849E+03  0.14219488953E+03  0.41800000000E+01 0. -1.
         -5    1    3    3    0  502  0.57175029540E+02 -0.36313467128E+02 -0.15524107564E+03  0.16942525156E+03  0.41800000000E+01 0. -1.
        -11    1    1    2    0    0  0.57427108693E+01 -0.25573602282E+02 -0.19442116371E+02  0.32634088784E+02  0.00000000000E+00 0. -1.
         11    1    1    2    0    0  0.19690843540E+01  0.74666743438E+02 -0.97215267884E+02  0.12259611812E+03  0.00000000000E+00 0.  1.
</event>
<event>
 7    1  0.2686828E-009  0.1192888E+03  0.7561462E-02  0.1244275E+00
          2   -1    0    0  501    0  0.00000000000E+00  0.00000000000E+00  0.11927864265E+04  0.11927864265E+04  0.00000000000E+00 0. -1.
         -2   -1    0    0    0  501 -0.00000000000E+00 -0.00000000000E+00 -0.16681672313E+02  0.16681672313E+02  0.00000000000E+00 0.  1.
         25    2    1    2    0    0 -0.53120254342E+02  0.16326006110E+02  0.94200097896E+03  0.95189389885E+03  0.12509136823E+03 0.  0.
          5    1    3    3  502    0 -0.42094689527E+02  0.67674570356E+02  0.67850182312E+03  0.68317933717E+03  0.41800000000E+01 0. -1.
         -5    1    3    3    0  502 -0.11025564815E+02 -0.51348564246E+02  0.26349915584E+03  0.26871456168E+03  0.41800000000E+01 0. -1.
        -11    1    1    2    0    0  0.74810919165E+02 -0.29824549488E+02  0.19363702097E+03  0.20971760362E+03  0.00000000000E+00 0.  1.
         11    1    1    2    0    0 -0.21690664823E+02  0.13498543378E+02  0.40466754280E+02  0.47856596366E+02  0.00000000000E+00 0. -1.
</event>
<event>
 7    1  0.2686828E-009  0.1080603E+03  0.7561462E-02  0.1264205E+00
         -1   -1    0    0    0  501 -0.00000000000E+00  0.00000000000E+00  0.43476379118E+03  0.43476379118E+03  0.00000000000E+00 0.  1.
          1   -1    0    0  501    0  0.00000000000E+00 -0.00000000000E+00 -0.49559805974E+02  0.49559805974E+02  0.00000000000E+00 0. -1.
         25    2    1    2    0    0 -0.86438408240E+02  0.17550306700E+02  0.13411430411E+03  0.20350419752E+03  0.12509076768E+03 0.  0.
          5    1    3    3  502    0 -0.56652083425E+02  0.21659849903E+02  0.15510635215E+03  0.16659549974E+03  0.41800000000E+01 0. -1.
         -5    1    3    3    0  502 -0.29786324815E+02 -0.41095432032E+01 -0.20992048043E+02  0.36908697787E+02  0.41800000000E+01 0. -1.
        -11    1    1    2    0    0  0.10265848742E+03 -0.22700800575E+01  0.21734991960E+03  0.24038491186E+03  0.00000000000E+00 0.  1.
         11    1    1    2    0    0 -0.16220079181E+02 -0.15280226642E+02  0.33739761493E+02  0.40434487761E+02  0.00000000000E+00 0. -1.
</event>
<event>
 7    1  0.3056465E-009  0.1863916E+03  0.7561462E-02  0.1161757E+00
          2   -1    0    0  501    0  0.00000000000E+00  0.00000000000E+00  0.50766952959E+03  0.50766952959E+03  0.00000000000E+00 0. -1.
         -2   -1    0    0    0  501 -0.00000000000E+00 -0.00000000000E+00 -0.77402031186E+02  0.77402031186E+02  0.00000000000E+00 0.  1.
         25    2    1    2    0    0 -0.16394683460E+03 -0.87631316756E+00  0.19191443137E+03  0.28170322192E+03  0.12508486628E+03 0.  0.
          5    1    3    3  502    0 -0.17050712611E+03  0.16953886798E+02  0.19746215531E+03  0.26147445288E+03  0.41800000000E+01 0.  1.
         -5    1    3    3    0  502  0.65602915152E+01 -0.17830199966E+02 -0.55477239420E+01  0.20228769031E+02  0.41800000000E+01 0.  1.
        -11    1    1    2    0    0  0.43445766507E+02 -0.35450200738E+02  0.41660813856E+02  0.69856100456E+02  0.00000000000E+00 0. -1.
         11    1    1    2    0    0  0.12050106809E+03  0.36326513906E+02  0.19669225318E+03  0.23351223841E+03  0.00000000000E+00 0.  1.
</event>
<event>
 7    1  0.2686828E-009  0.9913330E+02  0.7561462E-02  0.1282129E+00
          4   -1    0    0  501    0  0.00000000000E+00  0.00000000000E+00  0.46014950603E+03  0.46014950603E+03  0.00000000000E+00 0. -1.
         -4   -1    0    0    0  501 -0.00000000000E+00 -0.00000000000E+00 -0.41653580309E+02  0.41653580309E+02  0.00000000000E+00 0.  1.
         25    2    1    2    0    0 -0.57107273022E+02  0.13670854118E+02  0.11473458306E+03  0.17961082172E+03  0.12509152586E+03 0.  0.
          5    1    3    3  502    0 -0.15356691072E+02 -0.27810571495E+02  0.11625372502E+03  0.12058879230E+03  0.41800000000E+01 0. -1.
         -5    1    3    3    0  502 -0.41750581950E+02  0.41481425613E+02 -0.15191419560E+01  0.59022029416E+02  0.41800000000E+01 0. -1.
        -11    1    1    2    0    0  0.54182483005E+01  0.35481820491E+02  0.11086643902E+03  0.11653190250E+03  0.00000000000E+00 0.  1.
         11    1    1    2    0    0  0.51689024722E+02 -0.49152674609E+02  0.19289490364E+03  0.20566036212E+03  0.00000000000E+00 0. -1.
</event>
<event>
 7    1  0.2686828E-009  0.1149373E+03  0.7561462E-02  0.1251691E+00
          1   -1    0    0  501    0  0.00000000000E+00  0.00000000000E+00  0.55663952072E+03  0.55663952072E+03  0.00000000000E+00 0. -1.
         -1   -1    0    0    0  501 -0.00000000000E+00 -0.00000000000E+00 -0.42491587754E+02  0.42491587754E+02  0.00000000000E+00 0.  1.
         25    2    1    2    0    0  0.55419621458E+02  0.89917022763E+02  0.22367315173E+03  0.27719403056E+03  0.12510174399E+03 0.  0.
          5    1    3    3  502    0 -0.10388181316E+01  0.24967528143E+01 -0.15525689507E+02  0.16304366053E+02  0.41800000000E+01 0.  1.
         -5    1    3    3    0  502  0.56458439590E+02  0.87420269949E+02  0.23919884123E+03  0.26088966451E+03  0.41800000000E+01 0.  1.
        -11    1    1    2    0    0 -0.19031476309E+02 -0.81101796841E+02  0.11203756740E+03  0.13961416494E+03  0.00000000000E+00 0.  1.
         11    1    1    2    0    0 -0.36388145149E+02 -0.88152259219E+01  0.17843721383E+03  0.18232291298E+03  0.00000000000E+00 0. -1.
</event>
<event>
 7    1  0.2686828E-009  0.1218708E+03  0.7561462E-02  0.1240042E+00
         -1   -1    0    0    0  501 -0.00000000000E+00  0.00000000000E+00  0.19884468910E+03  0.19884468910E+03  0.00000000000E+00 0.  1.
          1   -1    0    0  501    0  0.00000000000E+00 -0.00000000000E+00 -0.10135426333E+03  0.10135426333E+03  0.00000000000E+00 0. -1.
         25    2    1    2    0    0  0.80156874565E+02 -0.30840478388E+02  0.20502774370E+02  0.15311733824E+03  0.12509314876E+03 0.  0.
          5    1    3    3  502    0  0.67860585814E+02 -0.76122240439E+02  0.83160556894E+00  0.10206771558E+03  0.41800000000E+01 0.  1.
         -5    1    3    3    0  502  0.12296288751E+02  0.45281762051E+02  0.19671168801E+02  0.51049622658E+02  0.41800000000E+01 0.  1.
        -11    1    1    2    0    0 -0.25831823900E+02  0.30860435292E+02  0.83180429862E+02  0.92404726635E+02  0.00000000000E+00 0.  1.
         11    1    1    2    0    0 -0.54325050665E+02 -0.19956904211E-01 -0.61927784619E+01  0.54676887559E+02  0.00000000000E+00 0. -1.
</event>
<event>
 7    1  0.2686828E-009  0.1099126E+03  0.7561462E-02  0.1260732E+00
         -2   -1    0    0    0  501 -0.00000000000E+00  0.00000000000E+00  0.24423136142E+02  0.24423136142E+02  0.00000000000E+00 0. -1.
          2   -1    0    0  501    0  0.00000000000E+00 -0.00000000000E+00 -0.58395441448E+03  0.58395441448E+03  0.00000000000E+00 0.  1.
         25    2    1    2    0    0 -0.45320718564E+02 -0.10487400384E+01 -0.27445070472E+03  0.30500104116E+03  0.12508948157E+03 0.  0.
          5    1    3    3  502    0  0.14475654473E+02 -0.51841238828E+02 -0.12489568540E+03  0.13606418797E+03  0.41800000000E+01 0. -1.
         -5    1    3    3    0  502 -0.59796373038E+02  0.50792498790E+02 -0.14955501932E+03  0.16893685319E+03  0.41800000000E+01 0. -1.
        -11    1    1    2    0    0  0.47894098829E+02  0.31102459374E+02 -0.25290785019E+03  0.25927512100E+03  0.00000000000E+00 0.  1.
         11    1    1    2    0    0 -0.25733802647E+01 -0.30053719335E+02 -0.32172723430E+02  0.44101388468E+02  0.00000000000E+00 0. -1.
</event>
<event>
 7    1  0.2686828E-009  0.1282476E+03  0.7561462E-02  0.1230079E+00
         -2   -1    0    0    0  501 -0.00000000000E+00  0.00000000000E+00  0.44059260713E+02  0.44059260713E+02  0.00000000000E+00 0.  1.
          2   -1    0    0  501    0  0.00000000000E+00 -0.00000000000E+00 -0.46801105170E+03  0.46801105170E+03  0.00000000000E+00 0. -1.
         25    2    1    2    0    0  0.70339927064E+02  0.60323326910E+02 -0.22511796242E+03  0.27370120076E+03  0.12509053196E+03 0.  0.
          5    1    3    3  502    0  0.13102401235E+02  0.81969929240E+02 -0.76657124829E+02  0.11306869330E+03  0.41800000000E+01 0.  1.
         -5    1    3    3    0  502  0.57237525829E+02 -0.21646602330E+02 -0.14846083759E+03  0.16063250746E+03  0.41800000000E+01 0.  1.
        -11    1    1    2    0    0 -0.55754551657E+02 -0.63281373950E+01 -0.16189002547E+03  0.17133883301E+03  0.00000000000E+00 0. -1.
         11    1    1    2    0    0 -0.14585375407E+02 -0.53995189515E+02 -0.36943803108E+02  0.67030278641E+02  0.00000000000E+00 0.  1.
</event>
<event>
 7    1  0.2686828E-009  0.1394582E+03  0.7561462E-02  0.1214060E+00
          2   -1    0    0  501    0  0.00000000000E+00  0.00000000000E+00  0.11826197300E+04  0.11826197300E+04  0.00000000000E+00 0.  1.
         -2   -1    0    0    0  501 -0.00000000000E+00 -0.00000000000E+00 -0.20080459561E+02  0.20080459561E+02  0.00000000000E+00 0. -1.
         25    2    1    2    0    0 -0.69581639603E+02 -0.77431613516E+02  0.75567686869E+03  0.77300268041E+03  0.12509338396E+03 0.  0.
          5    1    3    3  502    0 -0.56650389889E+01  0.24916368185E+02  0.31569489550E+03  0.31675488554E+03  0.41800000000E+01 0. -1.
         -5    1    3    3    0  502 -0.63916600614E+02 -0.10234798170E+03  0.43998197319E+03  0.45624779487E+03  0.41800000000E+01 0. -1.
        -11    1    1    2    0    0 -0.12989416854E+02  0.39194326590E+02  0.75329226533E+02  0.85903507245E+02  0.00000000000E+00 0. -1.
         11    1    1    2    0    0  0.82571056457E+02  0.38237286926E+02  0.33153317526E+03  0.34379400194E+03  0.00000000000E+00 0.  1.
</event>
<event>
 7    1  0.2794657E-009  0.1874132E+03  0.7561462E-02  0.1160815E+00
          1   -1    0    0  501    0  0.00000000000E+00  0.00000000000E+00  0.31097427240E+03  0.31097427240E+03  0.00000000000E+00 0. -1.
         -1   -1    0    0    0  501 -0.00000000000E+00 -0.00000000000E+00 -0.17675924362E+03  0.17675924362E+03  0.00000000000E+00 0.  1.
         25    2    1    2    0    0  0.16912589230E+03  0.73636487194E+01 -0.55298319199E+02  0.21762834031E+03  0.12508556925E+03 0.  0.
          5    1    3    3  502    0  0.25882002043E+02 -0.32733982969E+02 -0.54561828424E+02  0.68817564558E+02  0.41800000000E+01 0.  1.
         -5    1    3    3    0  502  0.14324389025E+03  0.40097631689E+02 -0.73649077490E+00  0.14881077576E+03  0.41800000000E+01 0.  1.
        -11    1    1    2    0    0 -0.99493805815E+02 -0.39929843216E+02  0.70110004556E+02  0.12809692625E+03  0.00000000000E+00 0.  1.
         11    1    1    2    0    0 -0.69632086482E+02  0.32566194497E+02  0.11940334342E+03  0.14200824945E+03  0.00000000000E+00 0. -1.
</event>
<event>
 7    1  0.2686828E-009  0.1430710E+03  0.7561462E-02  0.1209255E+00
         -3   -1    0    0    0  501 -0.00000000000E+00  0.00000000000E+00  0.76590522286E+03  0.76590522286E+03  0.00000000000E+00 0.  1.
          3   -1    0    0  501    0  0.00000000000E+00 -0.00000000000E+00 -0.33970523101E+02  0.33970523101E+02  0.00000000000E+00 0. -1.
         25    2    1    2    0    0 -0.98027372417E+02 -0.31146087780E+02  0.24676288643E+03  0.29515753098E+03  0.12508637597E+03 0.  0.
          5    1    3    3  502    0 -0.32274839174E+02  0.47307979274E+02  0.66900302777E+02  0.88163671988E+02  0.41800000000E+01 0. -1.
         -5    1    3    3    0  502 -0.65752533243E+02 -0.78454067055E+02  0.17986258365E+03  0.20699385900E+03  0.41800000000E+01 0. -1.
        -11    1    1    2    0    0  0.79663966129E+02  0.54529504271E+02  0.44119659693E+03  0.45163508663E+03  0.00000000000E+00 0.  1.
         11    1    1    2    0    0  0.18363406288E+02 -0.23383416491E+02  0.43975216409E+02  0.53083128350E+02  0.00000000000E+00 0. -1.
</event>
<event>
 7    1  0.2686828E-009  0.1058064E+03  0.7561462E-02  0.1268539E+00
          2   -1    0    0  501    0  0.00000000000E+00  0.00000000000E+00  0.37597922187E+02  0.37597922187E+02  0.00000000000E+00 0. -1.
         -2   -1    0    0    0  501 -0.00000000000E+00 -0.00000000000E+00 -0.32724691030E+03  0.32724691030E+03  0.00000000000E+00 0.  1.
         25    2    1    2    0    0  0.72015313429E+01 -0.15981543398E+02 -0.17110004695E+03  0.21267463167E+03  0.12509197060E+03 0.  0.
          5    1    3    3  502    0 -0.24415653754E+02 -0.59855048261E+02 -0.56783214066E+02  0.86142653489E+02  0.41800000000E+01 0. -1.
         -5    1    3    3    0  502  0.31617185097E+02  0.43873504863E+02 -0.11431683288E+03  0.12653197818E+03  0.41800000000E+01 0. -1.
        -11    1    1    2    0    0  0.18907114630E+02 -0.32459919786E+02 -0.66762393238E+02  0.76605107709E+02  0.00000000000E+00 0. -1.
         11    1    1    2    0    0 -0.26108645973E+02  0.48441463184E+02 -0.51786547927E+02  0.75565093106E+02  0.00000000000E+00 0.  1.
</event>
<event>
 7    1  0.2686828E-009  0.1995141E+03  0.7561462E-02  0.1150150E+00
          1   -1    0    0  501    0  0.00000000000E+00  0.00000000000E+00  0.72055662561E+03  0.72055662561E+03  0.00000000000E+00 0. -1.
         -1   -1    0    0    0  501 -0.00000000000E+00 -0.00000000000E+00 -0.64210879653E+02  0.64210879653E+02  0.00000000000E+00 0.  1.
         25    2    1    2    0    0  0.89623743456E+02 -0.16071717153E+03  0.30279751302E+03  0.37576650898E+03  0.12510679744E+03 0.  0.
          5    1    3    3  502    0  0.40930392109E+02 -0.66550587670E+01  0.14115576254E+03  0.14718019060E+03  0.41800000000E+01 0. -1.
         -5    1    3    3    0  502  0.48693351347E+02 -0.15406211276E+03  0.16164175047E+03  0.22858631838E+03  0.41800000000E+01 0. -1.
        -11    1    1    2    0    0 -0.24736569616E+02  0.11168708556E+03  0.14191821688E+03  0.18228187853E+03  0.00000000000E+00 0.  1.
         11    1    1    2    0    0 -0.64887173840E+02  0.49030085962E+02  0.21163001607E+03  0.22671911776E+03  0.00000000000E+00 0. -1.
</event>
<event>
 7    1  0.2686828E-009  0.1203443E+03  0.7561462E-02  0.1242530E+00
         -2   -1    0    0    0  501 -0.00000000000E+00  0.00000000000E+00  0.37926881730E+03  0.37926881730E+03  0.00000000000E+00 0.  1.
          2   -1    0    0  501    0  0.00000000000E+00 -0.00000000000E+00 -0.57372559090E+02  0.57372559090E+02  0.00000000000E+00 0. -1.
         25    2    1    2    0    0 -0.10295530661E+03 -0.66541828850E+01  0.18060154255E+03  0.24270921550E+03  0.12508706091E+03 0.  0.
          5    1    3    3  502    0 -0.10474756169E+03 -0.19952429618E+01  0.19804638426E+03  0.22408898990E+03  0.41800000000E+01 0. -1.
         -5    1    3    3    0  502  0.17922550757E+01 -0.46589399232E+01 -0.17444841706E+02  0.18620225606E+02  0.41800000000E+01 0. -1.
        -11    1    1    2    0    0  0.55366070929E+02 -0.35486506724E+02  0.49649601148E+02  0.82400102329E+02  0.00000000000E+00 0. -1.
         11    1    1    2    0    0  0.47589235681E+02  0.42140689609E+02  0.91645114508E+02  0.11153205856E+03  0.00000000000E+00 0.  1.
</event>
<event>
 7    1  0.2686828E-009  0.1570115E+03  0.7561462E-02  0.1192113E+00
         -1   -1    0    0    0  501 -0.00000000000E+00  0.00000000000E+00  0.40360794927E+02  0.40360794927E+02  0.00000000000E+00 0.  1.
          1   -1    0    0  501    0  0.00000000000E+00 -0.00000000000E+00 -0.78186961101E+03  0.78186961101E+03  0.00000000000E+00 0. -1.
         25    2    1    2    0    0  0.15845131932E+02  0.11372834832E+03 -0.20675588258E+03  0.26754771816E+03  0.12509428880E+03 0.  0.
          5    1    3    3  502    0 -0.87387488859E+01  0.13444801231E+03 -0.18331447486E+03  0.22753967312E+03  0.41800000000E+01 0. -1.
         -5    1    3    3    0  502  0.24583880818E+02 -0.20719663992E+02 -0.23441407720E+02  0.40008045040E+02  0.41800000000E+01 0. -1.
        -11    1    1    2    0    0  0.25678757650E+02  0.57975735405E-01 -0.11298690599E+03  0.11586821342E+03  0.00000000000E+00 0.  1.
         11    1    1    2    0    0 -0.41523889582E+02 -0.11378632406E+03 -0.42176602750E+03  0.43881447436E+03  0.00000000000E+00 0. -1.
</event>
<event>
 7    1  0.2686828E-009  0.1147436E+03  0.7561462E-02  0.1252029E+00
         -2   -1    0    0    0  501 -0.00000000000E+00  0.00000000000E+00  0.35442288277E+03  0.35442288277E+03  0.00000000000E+00 0.  1.
          2   -1    0    0  501    0  0.00000000000E+00 -0.00000000000E+00 -0.54490774400E+02  0.54490774400E+02  0.00000000000E+00 0. -1.
         25    2    1    2    0    0 -0.26096686097E+02 -0.61094987372E+02  0.82055881173E+02  0.16368779370E+03  0.12508753600E+03 0.  0.
          5    1    3    3  502    0  0.45166737830E+02 -0.41664682980E+02  0.13996450678E+02  0.63161325553E+02  0.41800000000E+01 0.  1.
         -5    1    3    3    0  502 -0.71263423927E+02 -0.19430304392E+02  0.68059430495E+02  0.10052646815E+03  0.41800000000E+01 0.  1.
        -11    1    1    2    0    0  0.43727609720E+02  0.17883391307E+02  0.41836365742E+02  0.63104683146E+02  0.00000000000E+00 0. -1.
         11    1    1    2    0    0 -0.17630923623E+02  0.43211596065E+02  0.17603986145E+03  0.18212118032E+03  0.00000000000E+00 0.  1.
</event>
<event>
 7    1  0.2686828E-009  0.1250758E+03  0.7561462E-02  0.1234951E+00
          1   -1    0    0  501    0  0.00000000000E+00  0.00000000000E+00  0.41510983060E+03  0.41510983060E+03  0.00000000000E+00 0. -1.
         -1   -1    0    0    0  501 -0.00000000000E+00 -0.00000000000E+00 -0.45751285739E+02  0.45751285739E+02  0.00000000000E+00 0.  1.
         25    2    1    2    0    0  0.37848413831E+02  0.49885113649E+02  0.29075755245E+03  0.32265899901E+03  0.12509135997E+03 0.  0.
          5    1    3    3  502    0  0.19545153907E+02 -0.41532560363E+02  0.10891431409E+03  0.11826566207E+03  0.41800000000E+01 0. -1.
         -5    1    3    3    0  502  0.18303259924E+02  0.91417674013E+02  0.18184323836E+03  0.20439333694E+03  0.41800000000E+01 0. -1.
        -11    1    1    2    0    0 -0.51416505206E+02 -0.69765422397E+02  0.47350263526E+02  0.98756866221E+02  0.00000000000E+00 0.  1.
         11    1    1    2    0    0  0.13568091375E+02  0.19880308748E+02  0.31250728880E+02  0.39445251108E+02  0.00000000000E+00 0. -1.
</event>
<event>
 7    1  0.2686828E-009  0.1121099E+03  0.7561462E-02  0.1256712E+00
         -3   -1    0    0    0  501 -0.00000000000E+00  0.00000000000E+00  0.21572726498E+03  0.21572726498E+03  0.00000000000E+00 0.  1.
          3   -1    0    0  501    0  0.00000000000E+00 -0.00000000000E+00 -0.63438792555E+02  0.63438792555E+02  0.00000000000E+00 0. -1.
         25    2    1    2    0    0  0.22060283261E+02 -0.27289053726E+02  0.11794839481E+03  0.17546943410E+03  0.12508537049E+03 0.  0.
          5    1    3    3  502    0  0.46517362550E+02  0.37870289270E+02  0.51923790265E+02  0.79445429217E+02  0.41800000000E+01 0.  1.
         -5    1    3    3    0  502 -0.24457079288E+02 -0.65159342996E+02  0.66024604549E+02  0.96024004878E+02  0.41800000000E+01 0.  1.
        -11    1    1    2    0    0 -0.27187545806E+02  0.57563954515E+02  0.98468186166E+01  0.64418408419E+02  0.00000000000E+00 0. -1.
         11    1    1    2    0    0  0.51272625449E+01 -0.30274900789E+02  0.24493258989E+02  0.39278215016E+02  0.00000000000E+00 0.  1.
</event>
<event>
 7    1  0.2686828E-009  0.1228699E+03  0.7561462E-02  0.1238436E+00
         -1   -1    0    0    0  501 -0.00000000000E+00  0.00000000000E+00  0.24728600254E+02  0.24728600254E+02  0.00000000000E+00 0.  1.
          1   -1    0    0  501    0  0.00000000000E+00 -0.00000000000E+00 -0.69976711767E+03  0.69976711767E+03  0.00000000000E+00 0. -1.
         25    2    1    2    0    0  0.56932840533E+02  0.49484741664E+02 -0.37437689677E+03  0.40186473727E+03  0.12508844168E+03 0.  0.
          5    1    3    3  502    0  0.68715124842E+02  0.75643488880E+02 -0.19535366188E+03  0.22050902793E+03  0.41800000000E+01 0. -1.
         -5    1    3    3    0  502 -0.11782284309E+02 -0.26158747216E+02 -0.17902323489E+03  0.18135570934E+03  0.41800000000E+01 0. -1.
        -11    1    1    2    0    0  0.20316710488E+02  0.37386048701E+01 -0.84551920228E+02  0.87038917191E+02  0.00000000000E+00 0. -1.
         11    1    1    2    0    0 -0.77249551021E+02 -0.53223346534E+02 -0.21610970042E+03  0.23559206346E+03  0.00000000000E+00 0.  1.
</event>
<event>
 7    1  0.2686828E-009  0.1257505E+03  0.7561462E-02  0.1233901E+00
          2   -1    0    0  501    0  0.00000000000E+00  0.00000000000E+00  0.86750417561E+03  0.86750417561E+03  0.00000000000E+00 0. -1.
         -2   -1    0    0    0  501 -0.00000000000E+00 -0.00000000000E+00 -0.25454719883E+02  0.25454719883E+02  0.00000000000E+00 0.  1.
         25    2    1    2    0    0 -0.73875008025E+02 -0.14193316109E+01  0.24888070830E+03  0.28818138128E+03  0.12508944895E+03 0.  0.
          5    1    3    3  502    0  0.29067913881E+02  0.92544325893E+01  0.19360398775E+02  0.36371494067E+02  0.41800000000E+01 0.  1.
         -5    1    3    3    0  502 -0.10294292191E+03 -0.10673764200E+02  0.22952030953E+03  0.25180988721E+03  0.41800000000E+01 0.  1.
        -11    1    1    2    0    0  0.52835418635E+02  0.44570574336E+02  0.38383007288E+03  0.39000466973E+03  0.00000000000E+00 0. -1.
         11    1    1    2    0    0  0.21039589389E+02 -0.43151242725E+02  0.20933867454E+03  0.21477284448E+03  0.00000000000E+00 0.  1.
</event>
<event>
 7    1  0.2686828E-009  0.1549788E+03  0.7561462E-02  0.1194485E+00
          1   -1    0    0  501    0  0.00000000000E+00  0.00000000000E+00  0.83355108556E+03  0.83355108556E+03  0.00000000000E+00 0. -1.
         -1   -1    0    0    0  501 -0.00000000000E+00 -0.00000000000E+00 -0.33078948488E+02  0.33078948488E+02  0.00000000000E+00 0.  1.
         25    2    1    2    0    0  0.11326700154E+03  0.51636966665E+02  0.35961132691E+03  0.40057788954E+03  0.12508616702E+03 0.  0.
          5    1    3    3  502    0  0.49564130598E+02 -0.34880406595E+02  0.76181538595E+02  0.97438929740E+02  0.41800000000E+01 0.  1.
         -5    1    3    3    0  502  0.63702870945E+02  0.86517373260E+02  0.28342978832E+03  0.30313895980E+03  0.41800000000E+01 0.  1.
        -11    1    1    2    0    0 -0.56162062486E+01 -0.31712619047E+02  0.45039503416E+02  0.55369566076E+02  0.00000000000E+00 0.  1.
         11    1    1    2    0    0 -0.10765079529E+03 -0.19924347618E+02  0.39582130674E+03  0.41068257843E+03  0.00000000000E+00 0. -1.
</event>
<event>
 7    1  0.2686828E-009  0.1101382E+03  0.7561462E-02  0.1260314E+00
         -1   -1    0    0    0  501 -0.00000000000E+00  0.00000000000E+00  0.89123887919E+02  0.89123887919E+02  0.00000000000E+00 0.  1.
          1   -1    0    0  501    0  0.00000000000E+00 -0.00000000000E+00 -0.19140731053E+03  0.19140731053E+03  0.00000000000E+00 0. -1.
         25    2    1    2    0    0 -0.57169826954E+02  0.41548396830E+02 -0.76626927067E+02  0.16283107548E+03  0.12509042648E+03 0.  0.
          5    1    3    3  502    0 -0.41430772007E+02  0.84240003080E+02 -0.68823163775E+02  0.11647741094E+03  0.41800000000E+01 0. -1.
         -5    1    3    3    0  502 -0.15739054947E+02 -0.42691606250E+02 -0.78037632920E+01  0.46353664540E+02  0.41800000000E+01 0. -1.
        -11    1    1    2    0    0  0.16278193121E+02 -0.35791708199E+02  0.29244231263E+02  0.49002561252E+02  0.00000000000E+00 0.  1.
         11    1    1    2    0    0  0.40891633833E+02 -0.57566886315E+01 -0.54900726810E+02  0.68697561716E+02  0.00000000000E+00 0. -1.
</event>
<event>
 7    1  0.2686828E-009  0.2149825E+03  0.7561462E-02  0.1137680E+00
          2   -1    0    0  501    0  0.00000000000E+00  0.00000000000E+00  0.12460140344E+04  0.12460140344E+04  0.00000000000E+00 0. -1.
         -2   -1    0    0    0  501 -0.00000000000E+00 -0.00000000000E+00 -0.41551129921E+02  0.41551129921E+02  0.00000000000E+00 0.  1.
         25    2    1    2    0    0  0.19461204073E+03  0.19716700324E+02  0.50930512531E+03  0.55973411870E+03  0.12509187943E+03 0.  0.
          5    1    3    3  502    0  0.91866552069E+02  0.54360602641E+02  0.14827388268E+03  0.18274888561E+03  0.41800000000E+01 0. -1.
         -5    1    3    3    0  502  0.10274548866E+03 -0.34643902317E+02  0.36103124263E+03  0.37698523309E+03  0.41800000000E+01 0. -1.
        -11    1    1    2    0    0 -0.12058726531E+03 -0.55102949293E+02  0.39470453097E+03  0.41637638063E+03  0.00000000000E+00 0.  1.
         11    1    1    2    0    0 -0.74024775424E+02  0.35386248969E+02  0.30045324815E+03  0.31145466495E+03  0.00000000000E+00 0. -1.
</event>
<event>
 7    1  0.2686828E-009  0.9704324E+02  0.7561462E-02  0.1286639E+00
         -1   -1    0    0    0  501 -0.00000000000E+00  0.00000000000E+00  0.19616545374E+02  0.19616545374E+02  0.00000000000E+00 0.  1.
          1   -1    0    0  501    0  0.00000000000E+00 -0.00000000000E+00 -0.60744487054E+03  0.60744487054E+03  0.00000000000E+00 0. -1.
         25    2    1    2    0    0 -0.82651836518E+01 -0.42993545236E+01 -0.35455713292E+03  0.37609196754E+03  0.12509040663E+03 0.  0.
          5    1    3    3  502    0  0.23234729928E+02  0.48054263705E+02 -0.91618805696E+02  0.10611570521E+03  0.41800000000E+01 0. -1.
         -5    1    3    3    0  502 -0.31499913579E+02 -0.52353618228E+02 -0.26293832722E+03  0.26997626233E+03  0.41800000000E+01 0. -1.
        -11    1    1    2    0    0 -0.26719428593E+02  0.26691339524E+02 -0.47881789001E+02  0.60983778071E+02  0.00000000000E+00 0. -1.
         11    1    1    2    0    0  0.34984612244E+02 -0.22391985000E+02 -0.18538940324E+03  0.18998567031E+03  0.00000000000E+00 0.  1.
</event>
<event>
 7    1  0.2686828E-009  0.1255875E+03  0.7561462E-02  0.1234154E+00
          1   -1    0    0  501    0  0.00000000000E+00  0.00000000000E+00  0.28318965727E+03  0.28318965727E+03  0.00000000000E+00 0. -1.
         -1   -1    0    0    0  501 -0.00000000000E+00 -0.00000000000E+00 -0.11309904179E+03  0.11309904179E+03  0.00000000000E+00 0.  1.
         25    2    1    2    0    0 -0.97917488313E+01  0.10432495425E+03  0.19493790700E+03  0.25422001094E+03  0.12508977557E+03 0.  0.
          5    1    3    3  502    0 -0.10478868293E+02 -0.78833474492E+01 -0.12337439489E+02  0.18483469936E+02  0.41800000000E+01 0. -1.
         -5    1    3    3    0  502  0.68711946191E+00  0.11220830169E+03  0.20727534649E+03  0.23573654100E+03  0.41800000000E+01 0. -1.
        -11    1    1    2    0    0 -0.14979767787E+02  0.27417244777E+01 -0.28280579153E+02  0.32120112909E+02  0.00000000000E+00 0.  1.
         11    1    1    2    0    0  0.24771516618E+02 -0.10706667872E+03  0.34332876339E+01  0.10994857522E+03  0.00000000000E+00 0. -1.
</event>
<event>
 7    1  0.2686828E-009  0.1209470E+03  0.7561462E-02  0.1241543E+00
          2   -1    0    0  501    0  0.00000000000E+00  0.00000000000E+00  0.24777043107E+03  0.24777043107E+03  0.00000000000E+00 0. -1.
         -2   -1    0    0    0  501 -0.00000000000E+00 -0.00000000000E+00 -0.75091768746E+02  0.75091768746E+02  0.00000000000E+00 0.  1.
         25    2    1    2    0    0  0.64619543514E+02 -0.34988372374E+02  0.14103630449E+03  0.20233404343E+03  0.12509178366E+03 0.  0.
          5    1    3    3  502    0  0.72163045286E+01 -0.73234199985E+02  0.90527589006E+02  0.11673919594E+03  0.41800000000E+01 0.  1.
         -5    1    3    3    0  502  0.57403238986E+02  0.38245827611E+02  0.50508715481E+02  0.85594847481E+02  0.41800000000E+01 0.  1.
        -11    1    1    2    0    0 -0.53744796945E+02  0.54627750710E+02 -0.58202656737E+01  0.76854211588E+02  0.00000000000E+00 0.  1.
         11    1    1    2    0    0 -0.10874746569E+02 -0.19639378336E+02  0.37462623515E+02  0.43673944807E+02  0.00000000000E+00 0. -1.
</event>
<event>
 7    1  0.2686828E-009  0.1065313E+03  0.7561462E-02  0.1267132E+00
         -2   -1    0    0    0  501 -0.00000000000E+00  0.00000000000E+00  0.70082997408E+02  0.70082997408E+02  0.00000000000E+00 0.  1.
          2   -1    0    0  501    0  0.00000000000E+00 -0.00000000000E+00 -0.20654441161E+03  0.20654441161E+03  0.00000000000E+00 0. -1.
         25    2    1    2    0    0 -0.14639988950E+02  0.30148693886E+02 -0.29882966104E+02  0.13290459885E+03  0.12508943885E+03 0.  0.
          5    1    3    3  502    0 -0.21526444859E+02  0.77961212982E+02 -0.20042357677E+02  0.83429653357E+02  0.41800000000E+01 0. -1.
         -5    1    3    3    0  502  0.68864559093E+01 -0.47812519097E+02 -0.98406084277E+01  0.49474945494E+02  0.41800000000E+01 0. -1.
        -11    1    1    2    0    0  0.43781723853E+02 -0.32242430184E+02 -0.30762232246E+02  0.62471822292E+02  0.00000000000E+00 0.  1.
         11    1    1    2    0    0 -0.29141734903E+02  0.20937362986E+01 -0.75816215852E+02  0.81250987877E+02  0.00000000000E+00 0. -1.
</event>
<event>
 7    1  0.2686828E-009  0.3033261E+03  0.7561462E-02  0.1083590E+00
          2   -1    0    0  501    0  0.00000000000E+00  0.00000000000E+00  0.77643043755E+03  0.77643043755E+03  0.00000000000E+00 0.  1.
         -2   -1    0    0    0  501 -0.00000000000E+00 -0.00000000000E+00 -0.13297773413E+03  0.13297773413E+03  0.00000000000E+00 0. -1.
         25    2    1    2    0    0 -0.14492144246E+03  0.25979849947E+03  0.39953957296E+03  0.51359034428E+03  0.12508271889E+03 0.  0.
          5    1    3    3  502    0 -0.88869855177E+02  0.77372090810E+02  0.22920627875E+03  0.25775430591E+03  0.41800000000E+01 0.  1.
         -5    1    3    3    0  502 -0.56051587283E+02  0.18242640866E+03  0.17033329421E+03  0.25583603837E+03  0.41800000000E+01 0.  1.
        -11    1    1    2    0    0  0.89705226165E+02 -0.17527195040E+03  0.21337330846E+03  0.29033679230E+03  0.00000000000E+00 0.  1.
         11    1    1    2    0    0  0.55216216295E+02 -0.84526549070E+02  0.30539821992E+02  0.10548103511E+03  0.00000000000E+00 0. -1.
</event>
<event>
 7    1  0.2686828E-009  0.1520426E+03  0.7561462E-02  0.1197985E+00
         -1   -1    0    0    0  501 -0.00000000000E+00  0.00000000000E+00  0.14657272256E+03  0.14657272256E+03  0.00000000000E+00 0.  1.
          1   -1    0    0  501    0  0.00000000000E+00 -0.00000000000E+00 -0.16367716129E+03  0.16367716129E+03  0.00000000000E+00 0. -1.
         25    2    1    2    0    0 -0.48278760050E+02 -0.98067911696E+02 -0.24251063896E+02  0.16788103582E+03  0.12509106327E+03 0.  0.
          5    1    3    3  502    0 -0.47929682995E+01 -0.11717706905E+03 -0.25884212488E+02  0.12017030795E+03  0.41800000000E+01 0.  1.
         -5    1    3    3    0  502 -0.43485791751E+02  0.19109157357E+02  0.16331485922E+01  0.47710727865E+02  0.41800000000E+01 0.  1.
        -11    1    1    2    0    0 -0.24900211476E+02  0.19028552471E+02  0.14237999288E+02  0.34421315554E+02  0.00000000000E+00 0.  1.
         11    1    1    2    0    0  0.73178971527E+02  0.79039359225E+02 -0.70913741229E+01  0.10794753247E+03  0.00000000000E+00 0. -1.
</event>
<event>
 7    1  0.2706667E-009  0.1005514E+03  0.7561462E-02  0.1279141E+00
         -1   -1    0    0    0  501 -0.00000000000E+00  0.00000000000E+00  0.30732842250E+02  0.30732842250E+02  0.00000000000E+00 0.  1.
          1   -1    0    0  501    0  0.00000000000E+00 -0.00000000000E+00 -0.45828843065E+03  0.45828843065E+03  0.00000000000E+00 0. -1.
         25    2    1    2    0    0  0.63949056314E+01 -0.30308926234E+02 -0.31892444717E+03  0.34397890869E+03  0.12509660585E+03 0.  0.
          5    1    3    3  502    0 -0.42583235731E+01 -0.77935758508E+02 -0.16774117532E+03  0.18505861253E+03  0.41800000000E+01 0. -1.
         -5    1    3    3    0  502  0.10653229204E+02  0.47626832274E+02 -0.15118327184E+03  0.15892029616E+03  0.41800000000E+01 0. -1.
        -11    1    1    2    0    0 -0.25470335351E+02  0.43747973305E+02 -0.21775847825E+02  0.55107265399E+02  0.00000000000E+00 0.  1.
         11    1    1    2    0    0  0.19075429720E+02 -0.13439047072E+02 -0.86855293404E+02  0.89935098808E+02  0.00000000000E+00 0. -1.
</event>
<event>
 7    1  0.2686828E-009  0.8442563E+02  0.7561462E-02  0.1316941E+00
         -4   -1    0    0    0  501 -0.00000000000E+00  0.00000000000E+00  0.35310207855E+03  0.35310207855E+03  0.00000000000E+00 0.  1.
          4   -1    0    0  501    0  0.00000000000E+00 -0.00000000000E+00 -0.39658492127E+02  0.39658492127E+02  0.00000000000E+00 0. -1.
         25    2    1    2    0    0 -0.60224719987E+01 -0.34210425573E+02  0.11870413545E+03  0.17590127802E+03  0.12507583479E+03 0.  0.
          5    1    3    3  502    0  0.30829842438E+02 -0.41086447297E+02  0.19857164483E+00  0.51537240583E+02  0.41800000000E+01 0. -1.
         -5    1    3    3    0  502 -0.36852314437E+02  0.68760217245E+01  0.11850556380E+03  0.12436403743E+03  0.41800000000E+01 0. -1.
        -11    1    1    2    0    0 -0.28268398562E+02  0.35375955749E+02  0.16611392199E+03  0.17217547933E+03  0.00000000000E+00 0.  1.
         11    1    1    2    0    0  0.34290870561E+02 -0.11655301769E+01  0.28625528985E+02  0.44683813334E+02  0.00000000000E+00 0. -1.
</event>
<event>
 7    1  0.2686828E-009  0.1860228E+03  0.7561462E-02  0.1162098E+00
         -2   -1    0    0    0  501 -0.00000000000E+00  0.00000000000E+00  0.17748438984E+04  0.17748438984E+04  0.00000000000E+00 0.  1.
          2   -1    0    0  501    0  0.00000000000E+00 -0.00000000000E+00 -0.24165085901E+02  0.24165085901E+02  0.00000000000E+00 0. -1.
         25    2    1    2    0    0 -0.55959488970E+02  0.16196605062E+03  0.10974803675E+04  0.11177992438E+04  0.12509007313E+03 0.  0.
          5    1    3    3  502    0 -0.30455470004E+02  0.14416198608E+03  0.10535430710E+04  0.10638048170E+04  0.41800000000E+01 0. -1.
         -5    1    3    3    0  502 -0.25504018966E+02  0.17804064542E+02  0.43937296549E+02  0.53994426802E+02  0.41800000000E+01 0. -1.
        -11    1    1    2    0    0  0.40898456125E+02 -0.12117804854E+02  0.13638961882E+03  0.14290434924E+03  0.00000000000E+00 0.  1.
         11    1    1    2    0    0  0.15061032845E+02 -0.14984824576E+03  0.51680882617E+03  0.53830539127E+03  0.00000000000E+00 0. -1.
</event>
<event>
 7    1  0.2686828E-009  0.1167242E+03  0.7561462E-02  0.1248601E+00
          1   -1    0    0  501    0  0.00000000000E+00  0.00000000000E+00  0.33985861222E+03  0.33985861222E+03  0.00000000000E+00 0. -1.
         -1   -1    0    0    0  501 -0.00000000000E+00 -0.00000000000E+00 -0.56990621096E+02  0.56990621096E+02  0.00000000000E+00 0.  1.
         25    2    1    2    0    0  0.48730496891E+02 -0.33920862118E+02  0.63784996759E+02  0.15245056402E+03  0.12508941780E+03 0.  0.
          5    1    3    3  502    0  0.48953608254E+02 -0.72790737874E+02  0.70708016383E+02  0.11274769737E+03  0.41800000000E+01 0.  1.
         -5    1    3    3    0  502 -0.22311136290E+00  0.38869875755E+02 -0.69230196236E+01  0.39702866655E+02  0.41800000000E+01 0.  1.
        -11    1    1    2    0    0 -0.19816109246E+02 -0.30242291602E+02  0.96479508261E+02  0.10303188779E+03  0.00000000000E+00 0. -1.
         11    1    1    2    0    0 -0.28914387644E+02  0.64163153720E+02  0.12260348610E+03  0.14136678150E+03  0.00000000000E+00 0.  1.
</event>
<event>
 7    1  0.2686828E-009  0.1058775E+03  0.7561462E-02  0.1268400E+00
          1   -1    0    0  501    0  0.00000000000E+00  0.00000000000E+00  0.39545838445E+03  0.39545838445E+03  0.00000000000E+00 0. -1.
         -1   -1    0    0    0  501 -0.00000000000E+00 -0.00000000000E+00 -0.52268233434E+02  0.52268233434E+02  0.00000000000E+00 0.  1.
         25    2    1    2    0    0 -0.54801338386E+02 -0.55581127629E+02  0.26582836644E+03  0.30398970523E+03  0.12511023956E+03 0.  0.
          5    1    3    3  502    0 -0.30926444318E+02 -0.69773689969E+02  0.26509317745E+03  0.27589251150E+03  0.41800000000E+01 0.  1.
         -5    1    3    3    0  502 -0.23874894068E+02  0.14192562340E+02  0.73518898701E+00  0.28097193728E+02  0.41800000000E+01 0.  1.
        -11    1    1    2    0    0  0.61842687240E+00 -0.16803581059E+02  0.44435766539E+02  0.47510842301E+02  0.00000000000E+00 0. -1.
         11    1    1    2    0    0  0.54182911514E+02  0.72384708688E+02  0.32926018036E+02  0.96226070354E+02  0.00000000000E+00 0.  1.
</event>
<event>
 7    1  0.2686828E-009  0.9456598E+02  0.7561462E-02  0.1292157E+00
         -1   -1    0    0    0  501 -0.00000000000E+00  0.00000000000E+00  0.30538117514E+02  0.30538117514E+02  0.00000000000E+00 0.  1.
          1   -1    0    0  501    0  0.00000000000E+00 -0.00000000000E+00 -0.41648192669E+03  0.41648192669E+03  0.00000000000E+00 0. -1.
         25    2    1    2    0    0 -0.29042341735E+02 -0.50726327537E+01 -0.20832189186E+03  0.24477959450E+03  0.12509936068E+03 0.  0.
          5    1    3    3  502    0 -0.61186698015E+02 -0.18327584808E+01 -0.20262212252E+03  0.21170821418E+03  0.41800000000E+01 0.  1.
         -5    1    3    3    0  502  0.32144356280E+02 -0.32398742729E+01 -0.56997693370E+01  0.33071380323E+02  0.41800000000E+01 0.  1.
        -11    1    1    2    0    0 -0.56166439217E+01  0.43262967324E+02 -0.63914888606E+02  0.77384391295E+02  0.00000000000E+00 0. -1.
         11    1    1    2    0    0  0.34658985657E+02 -0.38190334570E+02 -0.11370702871E+03  0.12485605841E+03  0.00000000000E+00 0.  1.
</event>
<event>
 7    1  0.2686828E-009  0.1230008E+03  0.7561462E-02  0.1238227E+00
          1   -1    0    0  501    0  0.00000000000E+00  0.00000000000E+00  0.69284227511E+02  0.69284227511E+02  0.00000000000E+00 0. -1.
         -1   -1    0    0    0  501 -0.00000000000E+00 -0.00000000000E+00 -0.26639135327E+03  0.26639135327E+03  0.00000000000E+00 0.  1.
         25    2    1    2    0    0 -0.17932304412E+02  0.66059968894E+02 -0.55538306967E+02  0.15302754552E+03  0.12508972426E+03 0.  0.
          5    1    3    3  502    0 -0.46392052616E+02 -0.11666794474E+02 -0.50964432611E+02  0.70022727957E+02  0.41800000000E+01 0. -1.
         -5    1    3    3    0  502  0.28459748204E+02  0.77726763367E+02 -0.45738743563E+01  0.83004817559E+02  0.41800000000E+01 0. -1.
        -11    1    1    2    0    0  0.32577903936E+02  0.12720957950E+02 -0.49235470285E+02  0.60392666196E+02  0.00000000000E+00 0. -1.
         11    1    1    2    0    0 -0.14645599524E+02 -0.78780926843E+02 -0.92333348510E+02  0.12225536907E+03  0.00000000000E+00 0.  1.
</event>
<event>
 7    1  0.2686828E-009  0.1172154E+03  0.7561462E-02  0.1247763E+00
         -4   -1    0    0    0  501 -0.00000000000E+00  0.00000000000E+00  0.11859714296E+03  0.11859714296E+03  0.00000000000E+00 0.  1.
          4   -1    0    0  501    0  0.00000000000E+00 -0.00000000000E+00 -0.22052285480E+03  0.22052285480E+03  0.00000000000E+00 0. -1.
         25    2    1    2    0    0  0.61886348565E+01  0.67039183510E+02 -0.15829385577E+03  0.21269066391E+03  0.12509125635E+03 0.  0.
          5    1    3    3  502    0  0.54123409702E+02  0.73564188344E+02 -0.11995020327E+03  0.15081961725E+03  0.41800000000E+01 0. -1.
         -5    1    3    3    0  502 -0.47934774846E+02 -0.65250048339E+01 -0.38343652504E+02  0.61871046661E+02  0.41800000000E+01 0. -1.
        -11    1    1    2    0    0  0.28667835577E+02 -0.16567898127E+02 -0.11405550596E+02  0.35020374490E+02  0.00000000000E+00 0. -1.
         11    1    1    2    0    0 -0.34856470433E+02 -0.50471285383E+02  0.67773694536E+02  0.91408959355E+02  0.00000000000E+00 0.  1.
</event>
<event>
 7    1  0.2686828E-009  0.8023045E+02  0.7561462E-02  0.1328399E+00
          1   -1    0    0  501    0  0.00000000000E+00  0.00000000000E+00  0.45013982443E+03  0.45013982443E+03  0.00000000000E+00 0. -1.
         -1   -1    0    0    0  501 -0.00000000000E+00 -0.00000000000E+00 -0.40195591269E+02  0.40195591269E+02  0.00000000000E+00 0.  1.
         25    2    1    2    0    0  0.65843051345E+02  0.18675375215E+02  0.29015282921E+03  0.32329746801E+03  0.12509401053E+03 0.  0.
          5    1    3    3  502    0  0.16925470434E+02 -0.21984155933E+02  0.19463412069E+01  0.28125349875E+02  0.41800000000E+01 0. -1.
         -5    1    3    3    0  502  0.48917580911E+02  0.40659531148E+02  0.28820648801E+03  0.29517211813E+03  0.41800000000E+01 0. -1.
        -11    1    1    2    0    0 -0.38815496633E+02 -0.13782013382E+02  0.13103685832E+03  0.13735809008E+03  0.00000000000E+00 0. -1.
         11    1    1    2    0    0 -0.27027554711E+02 -0.48933618332E+01 -0.11245454372E+02  0.29679857610E+02  0.00000000000E+00 0.  1.
</event>
<event>
 7    1  0.2686828E-009  0.1198298E+03  0.7561462E-02  0.1243378E+00
         -3   -1    0    0    0  501 -0.00000000000E+00  0.00000000000E+00  0.19694079062E+03  0.19694079062E+03  0.00000000000E+00 0.  1.
          3   -1    0    0  501    0  0.00000000000E+00 -0.00000000000E+00 -0.11403702418E+03  0.11403702418E+03  0.00000000000E+00 0. -1.
         25    2    1    2    0    0  0.95640793470E+02  0.13649488734E+02  0.84187921888E+02  0.17907659741E+03  0.12508937457E+03 0.  0.
          5    1    3    3  502    0  0.10188874176E+03  0.44304174963E+02  0.94452344918E+02  0.14588657744E+03  0.41800000000E+01 0. -1.
         -5    1    3    3    0  502 -0.62479482934E+01 -0.30654686228E+02 -0.10264423030E+02  0.33190019972E+02  0.41800000000E+01 0. -1.
        -11    1    1    2    0    0 -0.76161903775E+02 -0.77187259489E+01 -0.41315065336E+02  0.86989361077E+02  0.00000000000E+00 0. -1.
         11    1    1    2    0    0 -0.19478889696E+02 -0.59307627855E+01  0.40030909890E+02  0.44911856314E+02  0.00000000000E+00 0.  1.
</event>
<event>
 7    1  0.2686828E-009  0.1671474E+03  0.7561462E-02  0.1180856E+00
         -2   -1    0    0    0  501 -0.00000000000E+00  0.00000000000E+00  0.13012786847E+02  0.13012786847E+02  0.00000000000E+00 0.  1.
          2   -1    0    0  501    0  0.00000000000E+00 -0.00000000000E+00 -0.28050942943E+04  0.28050942943E+04  0.00000000000E+00 0. -1.
         25    2    1    2    0    0  0.10736623911E+03 -0.80605446821E+02 -0.20554148481E+04  0.20635895596E+04  0.12508767033E+03 0.  0.
          5    1    3    3  502    0  0.71642583148E+02  0.11888253500E+02 -0.12445956722E+04  0.12467196357E+04  0.41800000000E+01 0.  1.
         -5    1    3    3    0  502  0.35723655957E+02 -0.92493700321E+02 -0.81081917590E+03  0.81686992392E+03  0.41800000000E+01 0.  1.
        -11    1    1    2    0    0 -0.45747751547E+01  0.56560604658E+02 -0.22217096449E+03  0.22930322289E+03  0.00000000000E+00 0.  1.
         11    1    1    2    0    0 -0.10279146395E+03  0.24044842164E+02 -0.51449569485E+03  0.52521429865E+03  0.00000000000E+00 0. -1.
</event>
<event>
 7    1  0.2686828E-009  0.1276743E+03  0.7561462E-02  0.1230948E+00
         -1   -1    0    0    0  501 -0.00000000000E+00  0.00000000000E+00  0.18308807394E+02  0.18308807394E+02  0.00000000000E+00 0.  1.
          1   -1    0    0  501    0  0.00000000000E+00 -0.00000000000E+00 -0.10362289131E+04  0.10362289131E+04  0.00000000000E+00 0. -1.
         25    2    1    2    0    0  0.10772249446E+01  0.81150672792E+02 -0.45267630642E+03  0.47660685763E+03  0.12510661949E+03 0.  0.
          5    1    3    3  502    0  0.18354290191E+02  0.10825841279E+03 -0.39943561181E+03  0.41427411733E+03  0.41800000000E+01 0. -1.
         -5    1    3    3    0  502 -0.17277065247E+02 -0.27107739994E+02 -0.53240694610E+02  0.62332740303E+02  0.41800000000E+01 0. -1.
        -11    1    1    2    0    0  0.23884155956E+02  0.40878384737E+01 -0.56270432894E+02  0.61266017883E+02  0.00000000000E+00 0.  1.
         11    1    1    2    0    0 -0.24961380901E+02 -0.85238511266E+02 -0.50897336638E+03  0.51666484496E+03  0.00000000000E+00 0. -1.
</event>
<event>
 7    1  0.2686828E-009  0.1024758E+03  0.7561462E-02  0.1275174E+00
          2   -1    0    0  501    0  0.00000000000E+00  0.00000000000E+00  0.18580283283E+03  0.18580283283E+03  0.00000000000E+00 0. -1.
         -2   -1    0    0    0  501 -0.00000000000E+00 -0.00000000000E+00 -0.97165830612E+02  0.97165830612E+02  0.00000000000E+00 0.  1.
         25    2    1    2    0    0 -0.26161789022E+02 -0.32277361497E+02  0.11861987071E+03  0.17732656663E+03  0.12509104778E+03 0.  0.
          5    1    3    3  502    0  0.39419302922E+02 -0.25847329715E+02  0.72783336368E+01  0.47879144069E+02  0.41800000000E+01 0.  1.
         -5    1    3    3    0  502 -0.65581091944E+02 -0.64300317819E+01  0.11134153707E+03  0.12944742256E+03  0.41800000000E+01 0.  1.
        -11    1    1    2    0    0  0.37041949316E+02  0.55056050082E+02  0.11780147660E+00  0.66357279457E+02  0.00000000000E+00 0. -1.
         11    1    1    2    0    0 -0.10880160293E+02 -0.22778688586E+02 -0.30100669973E+02  0.39284817354E+02  0.00000000000E+00 0.  1.
</event>
<event>
 7    1  0.2686828E-009  0.8792379E+02  0.7561462E-02  0.1307959E+00
          2   -1    0    0  501    0  0.00000000000E+00  0.00000000000E+00  0.68304924790E+03  0.68304924790E+03  0.00000000000E+00 0. -1.
         -2   -1    0    0    0  501 -0.00000000000E+00 -0.00000000000E+00 -0.23726330193E+02  0.23726330193E+02  0.00000000000E+00 0.  1.
         25    2    1    2    0    0 -0.58290416559E+02 -0.14849941924E+02  0.43380333086E+03  0.45546772648E+03  0.12508887464E+03 0.  0.
          5    1    3    3  502    0 -0.14378484081E+02  0.22811423622E+02  0.36262488946E+03  0.36365008553E+03  0.41800000000E+01 0. -1.
         -5    1    3    3    0  502 -0.43911932478E+02 -0.37661365546E+02  0.71178441410E+02  0.91817640953E+02  0.41800000000E+01 0. -1.
        -11    1    1    2    0    0  0.49007394073E+02 -0.21154211469E+02  0.54471133486E+02  0.76264865567E+02  0.00000000000E+00 0.  1.
         11    1    1    2    0    0  0.92830224854E+01  0.36004153392E+02  0.17104845335E+03  0.17504298604E+03  0.00000000000E+00 0. -1.
</event>
<event>
 7    1  0.2686828E-009  0.1205575E+03  0.7561462E-02  0.1242180E+00
         -2   -1    0    0    0  501 -0.00000000000E+00  0.00000000000E+00  0.21014260611E+03  0.21014260611E+03  0.00000000000E+00 0.  1.
          2   -1    0    0  501    0  0.00000000000E+00 -0.00000000000E+00 -0.11770055275E+03  0.11770055275E+03  0.00000000000E+00 0. -1.
         25    2    1    2    0    0  0.59849684328E+02 -0.22781777319E+02 -0.48035486653E+02  0.14851372022E+03  0.12509165849E+03 0.  0.
          5    1    3    3  502    0 -0.32102954798E+02  0.11446984713E+02 -0.35704199129E+02  0.49536808549E+02  0.41800000000E+01 0. -1.
         -5    1    3    3    0  502  0.91952639126E+02 -0.34228762033E+02 -0.12331287524E+02  0.98976911674E+02  0.41800000000E+01 0. -1.
        -11    1    1    2    0    0  0.18124665279E+02 -0.13469822928E+02  0.14619811296E+02  0.26901273270E+02  0.00000000000E+00 0. -1.
         11    1    1    2    0    0 -0.77974349607E+02  0.36251600248E+02  0.12585772872E+03  0.15242816536E+03  0.00000000000E+00 0.  1.
</event>
<event>
 7    1  0.2686828E-009  0.1541307E+03  0.7561462E-02  0.1195487E+00
          2   -1    0    0  501    0  0.00000000000E+00  0.00000000000E+00  0.10766767321E+03  0.10766767321E+03  0.00000000000E+00 0. -1.
         -2   -1    0    0    0  501 -0.00000000000E+00 -0.00000000000E+00 -0.33305637082E+03  0.33305637082E+03  0.00000000000E+00 0.  1.
         25    2    1    2    0    0  0.84867825559E+02  0.12509629884E+03 -0.76821034986E+02  0.21071496728E+03  0.12509074395E+03 0.  0.
          5    1    3    3  502    0  0.19764976793E+02  0.35879018960E+02 -0.90423341881E+02  0.99356990021E+02  0.41800000000E+01 0.  1.
         -5    1    3    3    0  502  0.65102848766E+02  0.89217279880E+02  0.13602306895E+02  0.11135797726E+03  0.41800000000E+01 0.  1.
        -11    1    1    2    0    0 -0.57617885589E+02 -0.11280494218E+03 -0.15423526724E+03  0.19958279831E+03  0.00000000000E+00 0.  1.
         11    1    1    2    0    0 -0.27249939971E+02 -0.12291356658E+02  0.56676046207E+01  0.30426278429E+02  0.00000000000E+00 0. -1.
</event>
<event>
 7    1  0.2686828E-009  0.1022744E+03  0.7561462E-02  0.1275585E+00
         -2   -1    0    0    0  501 -0.00000000000E+00  0.00000000000E+00  0.41762330012E+02  0.41762330012E+02  0.00000000000E+00 0.  1.
          2   -1    0    0  501    0  0.00000000000E+00 -0.00000000000E+00 -0.41449171390E+03  0.41449171390E+03  0.00000000000E+00 0. -1.
         25    2    1    2    0    0 -0.12379067654E+02  0.69778155219E+02 -0.16574573439E+03  0.21941293985E+03  0.12509259547E+03 0.  0.
          5    1    3    3  502    0 -0.34883914490E+02  0.29707794211E+02  0.13824541009E+01  0.46030686573E+02  0.41800000000E+01 0.  1.
         -5    1    3    3    0  502  0.22504846836E+02  0.40070361008E+02 -0.16712818849E+03  0.17338225328E+03  0.41800000000E+01 0.  1.
        -11    1    1    2    0    0 -0.27361674567E+02 -0.67212158387E+02 -0.15678242410E+03  0.17276244955E+03  0.00000000000E+00 0. -1.
         11    1    1    2    0    0  0.39740742221E+02 -0.25659968322E+01 -0.50201225401E+02  0.64078654510E+02  0.00000000000E+00 0.  1.
</event>
<event>
 7    1  0.2686828E-009  0.2011483E+03  0.7561462E-02  0.1148774E+00
          1   -1    0    0  501    0  0.00000000000E+00  0.00000000000E+00  0.49604895295E+03  0.49604895295E+03  0.00000000000E+00 0. -1.
         -1   -1    0    0    0  501 -0.00000000000E+00 -0.00000000000E+00 -0.10449426757E+03  0.10449426757E+03  0.00000000000E+00 0.  1.
         25    2    1    2    0    0 -0.18039741856E+03  0.14207929684E+02  0.91073833568E+02  0.23809101162E+03  0.12509113784E+03 0.  0.
          5    1    3    3  502    0 -0.77116839572E+02  0.51574217260E+02  0.88298160416E+02  0.12814423266E+03  0.41800000000E+01 0.  1.
         -5    1    3    3    0  502 -0.10328057899E+03 -0.37366287576E+02  0.27756731524E+01  0.10994677896E+03  0.41800000000E+01 0.  1.
        -11    1    1    2    0    0  0.14426015288E+03  0.24763050005E+02  0.18990291375E+03  0.23976512884E+03  0.00000000000E+00 0. -1.
         11    1    1    2    0    0  0.36137265680E+02 -0.38970979689E+02  0.11057793805E+03  0.12268708006E+03  0.00000000000E+00 0.  1.
</event>
<event>
 7    1  0.2686828E-009  0.6335907E+02  0.7561462E-02  0.1384253E+00
         -1   -1    0    0    0  501 -0.00000000000E+00  0.00000000000E+00  0.30136524400E+03  0.30136524400E+03  0.00000000000E+00 0.  1.
          1   -1    0    0  501    0  0.00000000000E+00 -0.00000000000E+00 -0.46012093149E+02  0.46012093149E+02  0.00000000000E+00 0. -1.
         25    2    1    2    0    0  0.16550764356E+02 -0.36212903874E+02  0.17661284485E+03  0.22005059246E+03  0.12507943103E+03 0.  0.
          5    1    3    3  502    0  0.25293156651E+02 -0.14551470961E+02 -0.10610321817E+02  0.31329545314E+02  0.41800000000E+01 0.  1.
         -5    1    3    3    0  502 -0.87423922955E+01 -0.21661432913E+02  0.18722316666E+03  0.18872104714E+03  0.41800000000E+01 0.  1.
        -11    1    1    2    0    0  0.23158372044E+02  0.20069468600E+02 -0.70307982264E+01  0.31440831562E+02  0.00000000000E+00 0. -1.
         11    1    1    2    0    0 -0.39709136400E+02  0.16143435274E+02  0.85771104228E+02  0.95885913129E+02  0.00000000000E+00 0.  1.
</event>
<event>
 7    1  0.2686828E-009  0.1052223E+03  0.7561462E-02  0.1269682E+00
         -4   -1    0    0    0  501 -0.00000000000E+00  0.00000000000E+00  0.85356595127E+02  0.85356595127E+02  0.00000000000E+00 0. -1.
          4   -1    0    0  501    0  0.00000000000E+00 -0.00000000000E+00 -0.40347855515E+03  0.40347855515E+03  0.00000000000E+00 0.  1.
         25    2    1    2    0    0  0.66395655638E+02 -0.95511991738E+01  0.92795709459E+01  0.14224455608E+03  0.12509114599E+03 0.  0.
          5    1    3    3  502    0  0.83062030564E+02 -0.68489989020E+01  0.50475805301E+02  0.97526863110E+02  0.41800000000E+01 0. -1.
         -5    1    3    3    0  502 -0.16666374926E+02 -0.27022002718E+01 -0.41196234355E+02  0.44717692969E+02  0.41800000000E+01 0. -1.
        -11    1    1    2    0    0 -0.80453896707E+01  0.42049464612E+02 -0.17563392048E+03  0.18077654658E+03  0.00000000000E+00 0.  1.
         11    1    1    2    0    0 -0.58350265967E+02 -0.32498265438E+02 -0.15176761049E+03  0.16581404762E+03  0.00000000000E+00 0. -1.
</event>
<event>
 7    1  0.2686828E-009  0.1358115E+03  0.7561462E-02  0.1219079E+00
         -2   -1    0    0    0  501 -0.00000000000E+00  0.00000000000E+00  0.92750807390E+03  0.92750807390E+03  0.00000000000E+00 0.  1.
          2   -1    0    0  501    0  0.00000000000E+00 -0.00000000000E+00 -0.35497732076E+02  0.35497732076E+02  0.00000000000E+00 0. -1.
         25    2    1    2    0    0 -0.73719096973E+02 -0.72523069907E+02  0.61500420328E+03  0.63605931303E+03  0.12508868341E+03 0.  0.
          5    1    3    3  502    0 -0.51476470744E+02 -0.48199960267E+02  0.59066412510E+03  0.59487363725E+03  0.41800000000E+01 0.  1.
         -5    1    3    3    0  502 -0.22242626229E+02 -0.24323109640E+02  0.24340078175E+02  0.41185675783E+02  0.41800000000E+01 0.  1.
        -11    1    1    2    0    0 -0.27853588114E+02  0.59054526731E+02  0.68548627381E+02  0.94668758385E+02  0.00000000000E+00 0.  1.
         11    1    1    2    0    0  0.10157268509E+03  0.13468543175E+02  0.20845751117E+03  0.23227773456E+03  0.00000000000E+00 0. -1.
</event>
<event>
 7    1  0.2686828E-009  0.1182452E+03  0.7561462E-02  0.1246020E+00
          1   -1    0    0  501    0  0.00000000000E+00  0.00000000000E+00  0.18951086530E+03  0.18951086530E+03  0.00000000000E+00 0.  1.
         -1   -1    0    0    0  501 -0.00000000000E+00 -0.00000000000E+00 -0.12607841410E+03  0.12607841410E+03  0.00000000000E+00 0. -1.
         25    2    1    2    0    0 -0.60918110736E+02  0.84421368845E+02 -0.52797264599E+00  0.16273694084E+03  0.12508017199E+03 0.  0.
          5    1    3    3  502    0 -0.21751568024E+02  0.74071373183E+02  0.54272752406E+02  0.94460060822E+02  0.41800000000E+01 0.  1.
         -5    1    3    3    0  502 -0.39166542712E+02  0.10349995662E+02 -0.54800725052E+02  0.68276880014E+02  0.41800000000E+01 0.  1.
        -11    1    1    2    0    0  0.27907778944E+02 -0.80511270322E+02  0.52349935596E+01  0.85371622522E+02  0.00000000000E+00 0. -1.
         11    1    1    2    0    0  0.33010331792E+02 -0.39100985237E+01  0.58725430287E+02  0.67480716045E+02  0.00000000000E+00 0.  1.
</event>
<event>
 7    1  0.2686828E-009  0.1545145E+03  0.7561462E-02  0.1195033E+00
          1   -1    0    0  501    0  0.00000000000E+00  0.00000000000E+00  0.15397699539E+03  0.15397699539E+03  0.00000000000E+00 0. -1.
         -1   -1    0    0    0  501 -0.00000000000E+00 -0.00000000000E+00 -0.19937308609E+03  0.19937308609E+03  0.00000000000E+00 0.  1.
         25    2    1    2    0    0 -0.59897119675E+02  0.11598553126E+03  0.18633029519E+02  0.18175650288E+03  0.12509167895E+03 0.  0.
          5    1    3    3  502    0 -0.31173780877E+02  0.12224224912E+01 -0.38981779974E+02  0.50103398097E+02  0.41800000000E+01 0.  1.
         -5    1    3    3    0  502 -0.28723338798E+02  0.11476310877E+03  0.57614809492E+02  0.13165310478E+03  0.41800000000E+01 0.  1.
        -11    1    1    2    0    0  0.58303057044E+02 -0.17775441115E+02 -0.23060676867E+02  0.65169069235E+02  0.00000000000E+00 0. -1.
         11    1    1    2    0    0  0.15940626315E+01 -0.98210090147E+02 -0.40968443357E+02  0.10642450936E+03  0.00000000000E+00 0.  1.
</event>
<event>
 7    1  0.3390876E-009  0.1458980E+03  0.7561462E-02  0.1205606E+00
          1   -1    0    0  501    0  0.00000000000E+00  0.00000000000E+00  0.27881290510E+03  0.27881290510E+03  0.00000000000E+00 0. -1.
         -1   -1    0    0    0  501 -0.00000000000E+00 -0.00000000000E+00 -0.97193959052E+02  0.97193959052E+02  0.00000000000E+00 0.  1.
         25    2    1    2    0    0  0.92281448033E+02 -0.79503479614E+02  0.72899614097E+02  0.18920686540E+03  0.12509282657E+03 0.  0.
          5    1    3    3  502    0  0.10772563177E+03 -0.95578140386E+02  0.40501486839E+02  0.14965906420E+03  0.41800000000E+01 0. -1.
         -5    1    3    3    0  502 -0.15444183739E+02  0.16074660772E+02  0.32398127258E+02  0.39547801205E+02  0.41800000000E+01 0. -1.
        -11    1    1    2    0    0 -0.28726736128E+02  0.43108927171E+02  0.10054729700E+03  0.11310775351E+03  0.00000000000E+00 0. -1.
         11    1    1    2    0    0 -0.63554711905E+02  0.36394552443E+02  0.81720349502E+01  0.73692245237E+02  0.00000000000E+00 0.  1.
</event>
<event>
 7    1  0.2686828E-009  0.1120151E+03  0.7561462E-02  0.1256883E+00
          2   -1    0    0  501    0  0.00000000000E+00  0.00000000000E+00  0.22408018821E+03  0.22408018821E+03  0.00000000000E+00 0. -1.
         -2   -1    0    0    0  501 -0.00000000000E+00 -0.00000000000E+00 -0.78278866022E+02  0.78278866022E+02  0.00000000000E+00 0.  1.
         25    2    1    2    0    0  0.10181594031E+02 -0.72634680578E+02  0.97923756436E+02  0.17497590291E+03  0.12509213742E+03 0.  0.
          5    1    3    3  502    0 -0.56613223740E+02 -0.28404054044E+02  0.31700414634E+02  0.70952350746E+02  0.41800000000E+01 0. -1.
         -5    1    3    3    0  502  0.66794817771E+02 -0.44230626534E+02  0.66223341802E+02  0.10402355216E+03  0.41800000000E+01 0. -1.
        -11    1    1    2    0    0 -0.20276737200E+02  0.28002558976E+02 -0.24062877680E+02  0.42122576641E+02  0.00000000000E+00 0.  1.
         11    1    1    2    0    0  0.10095143169E+02  0.44632121602E+02  0.71940443430E+02  0.85260574683E+02  0.00000000000E+00 0. -1.
</event>
<event>
 7    1  0.2686828E-009  0.2742684E+03  0.7561462E-02  0.1098861E+00
         -2   -1    0    0    0  501 -0.00000000000E+00  0.00000000000E+00  0.17320725564E+03  0.17320725564E+03  0.00000000000E+00 0.  1.
          2   -1    0    0  501    0  0.00000000000E+00 -0.00000000000E+00 -0.53729822764E+03  0.53729822764E+03  0.00000000000E+00 0. -1.
         25    2    1    2    0    0 -0.20391390474E+03  0.17936229139E+03 -0.28427433682E+03  0.41256585784E+03  0.12508787455E+03 0.  0.
          5    1    3    3  502    0 -0.16244122707E+03  0.13562346780E+03 -0.13376638977E+03  0.25038329957E+03  0.41800000000E+01 0.  1.
         -5    1    3    3    0  502 -0.41472677675E+02  0.43738823584E+02 -0.15050794705E+03  0.16218255827E+03  0.41800000000E+01 0.  1.
        -11    1    1    2    0    0  0.10744138365E+03 -0.60251572247E+02  0.39880470925E+01  0.12324693667E+03  0.00000000000E+00 0.  1.
         11    1    1    2    0    0  0.96472521092E+02 -0.11911071914E+03 -0.83804682269E+02  0.17469268877E+03  0.00000000000E+00 0. -1.
</event>
<event>
 7    1  0.2686828E-009  0.1171390E+03  0.7561462E-02  0.1247893E+00
          1   -1    0    0  501    0  0.00000000000E+00  0.00000000000E+00  0.10551268688E+03  0.10551268688E+03  0.00000000000E+00 0. -1.
         -1   -1    0    0    0  501 -0.00000000000E+00 -0.00000000000E+00 -0.16056755965E+03  0.16056755965E+03  0.00000000000E+00 0.  1.
         25    2    1    2    0    0 -0.87650678453E+01 -0.32560238589E+02  0.25036714739E+02  0.13194594945E+03  0.12508357582E+03 0.  0.
          5    1    3    3  502    0 -0.63819638089E+02  0.25931268285E+01  0.99781814075E+01  0.64781996085E+02  0.41800000000E+01 0. -1.
         -5    1    3    3    0  502  0.55054570244E+02 -0.35153365418E+02  0.15058533331E+02  0.67163953361E+02  0.41800000000E+01 0. -1.
        -11    1    1    2    0    0 -0.23634873098E+00 -0.35832041761E+02 -0.13609281136E+02  0.38330191892E+02  0.00000000000E+00 0.  1.
         11    1    1    2    0    0  0.90014165763E+01  0.68392280350E+02 -0.66482306375E+02  0.95804105198E+02  0.00000000000E+00 0. -1.
</event>
<event>
 7    1  0.2686828E-009  0.1044057E+03  0.7561462E-02  0.1271295E+00
         -2   -1    0    0    0  501 -0.00000000000E+00  0.00000000000E+00  0.24540970163E+02  0.24540970163E+02  0.00000000000E+00 0.  1.
          2   -1    0    0  501    0  0.00000000000E+00 -0.00000000000E+00 -0.66059759657E+03  0.66059759657E+03  0.00000000000E+00 0. -1.
         25    2    1    2    0    0 -0.42182615915E+02 -0.41211615954E+02 -0.29485699748E+03  0.32567848299E+03  0.12509218579E+03 0.  0.
          5    1    3    3  502    0 -0.59640022101E+02  0.17082973161E+02 -0.22258725045E+03  0.23110888488E+03  0.41800000000E+01 0.  1.
         -5    1    3    3    0  502  0.17457406186E+02 -0.58294589116E+02 -0.72269747030E+02  0.94569598110E+02  0.41800000000E+01 0.  1.
        -11    1    1    2    0    0 -0.80213505943E+01  0.33980670876E+02 -0.36283314470E+02  0.50353817804E+02  0.00000000000E+00 0.  1.
         11    1    1    2    0    0  0.50203966509E+02  0.72309450777E+01 -0.30491631446E+03  0.30910626594E+03  0.00000000000E+00 0. -1.
</event>
<event>
 7    1  0.2686828E-009  0.1732507E+03  0.7561462E-02  0.1174500E+00
         -2   -1    0    0    0  501 -0.00000000000E+00  0.00000000000E+00  0.97142042753E+02  0.97142042753E+02  0.00000000000E+00 0.  1.
          2   -1    0    0  501    0  0.00000000000E+00 -0.00000000000E+00 -0.40350879324E+03  0.40350879324E+03  0.00000000000E+00 0. -1.
         25    2    1    2    0    0 -0.31208751025E+02  0.14623967187E+03 -0.70831252553E+02  0.20742366958E+03  0.12508990605E+03 0.  0.
          5    1    3    3  502    0  0.44898202296E+02  0.80439916893E+02 -0.18926329782E+02  0.94138765438E+02  0.41800000000E+01 0.  1.
         -5    1    3    3    0  502 -0.76106953321E+02  0.65799754981E+02 -0.51904922771E+02  0.11328490415E+03  0.41800000000E+01 0.  1.
        -11    1    1    2    0    0  0.49029596578E+01 -0.10202114461E+03 -0.81021647374E+02  0.13037200736E+03  0.00000000000E+00 0.  1.
         11    1    1    2    0    0  0.26305791367E+02 -0.44218527264E+02 -0.15451385056E+03  0.16285515905E+03  0.00000000000E+00 0. -1.
</event>
<event>
 7    1  0.2686828E-009  0.1336738E+03  0.7561462E-02  0.1222104E+00
         -3   -1    0    0    0  501 -0.00000000000E+00  0.00000000000E+00  0.18697895039E+03  0.18697895039E+03  0.00000000000E+00 0.  1.
          3   -1    0    0  501    0  0.00000000000E+00 -0.00000000000E+00 -0.10362662804E+03  0.10362662804E+03  0.00000000000E+00 0. -1.
         25    2    1    2    0    0 -0.59772910192E+02 -0.55351308734E+02  0.25124583776E+02  0.15137745677E+03  0.12508925428E+03 0.  0.
          5    1    3    3  502    0 -0.18190659793E+02 -0.89108946783E+02 -0.22746641897E+01  0.91071131527E+02  0.41800000000E+01 0.  1.
         -5    1    3    3    0  502 -0.41582250399E+02  0.33757638049E+02  0.27399247965E+02  0.60306325240E+02  0.41800000000E+01 0.  1.
        -11    1    1    2    0    0 -0.21498297399E+02  0.31030125738E+02  0.34499853582E+02  0.51139861083E+02  0.00000000000E+00 0.  1.
         11    1    1    2    0    0  0.81271207591E+02  0.24321182996E+02  0.23727884997E+02  0.88088260580E+02  0.00000000000E+00 0. -1.
</event>
<event>
 7    1  0.2686828E-009  0.1175478E+03  0.7561462E-02  0.1247198E+00
         -1   -1    0    0    0  501 -0.00000000000E+00  0.00000000000E+00  0.97171302761E+02  0.97171302761E+02  0.00000000000E+00 0.  1.
          1   -1    0    0  501    0  0.00000000000E+00 -0.00000000000E+00 -0.24288514213E+03  0.24288514213E+03  0.00000000000E+00 0. -1.
         25    2    1    2    0    0 -0.33963079580E+02  0.10137108970E+03 -0.73359747836E+02  0.18016309240E+03  0.12508996227E+03 0.  0.
          5    1    3    3  502    0 -0.28698851580E+02  0.15006173705E+02 -0.86580808411E+02  0.92533875507E+02  0.41800000000E+01 0. -1.
         -5    1    3    3    0  502 -0.52642280006E+01  0.86364915993E+02  0.13221060575E+02  0.87629216895E+02  0.41800000000E+01 0. -1.
        -11    1    1    2    0    0 -0.68114630919E+01 -0.48860796358E+02  0.13652177130E+02  0.51187453449E+02  0.00000000000E+00 0.  1.
         11    1    1    2    0    0  0.40774542672E+02 -0.52510293340E+02 -0.86006268664E+02  0.10870589904E+03  0.00000000000E+00 0. -1.
</event>
<event>
 7    1  0.2686828E-009  0.6231720E+02  0.7561462E-02  0.1388357E+00
         -2   -1    0    0    0  501 -0.00000000000E+00  0.00000000000E+00  0.11031548890E+03  0.11031548890E+03  0.00000000000E+00 0.  1.
          2   -1    0    0  501    0  0.00000000000E+00 -0.00000000000E+00 -0.17130938445E+03  0.17130938445E+03  0.00000000000E+00 0. -1.
         25    2    1    2    0    0  0.45941779795E+02 -0.36878884983E+02  0.27880982336E+02  0.14104700883E+03  0.12508481217E+03 0.  0.
          5    1    3    3  502    0  0.21172134765E+02 -0.11997799165E+02 -0.49862564368E+02  0.55641299415E+02  0.41800000000E+01 0. -1.
         -5    1    3    3    0  502  0.24769645030E+02 -0.24881085818E+02  0.77743546704E+02  0.85405709414E+02  0.41800000000E+01 0. -1.
        -11    1    1    2    0    0 -0.96516728348E+01  0.24352046373E+02 -0.97729033768E+02  0.10117875761E+03  0.00000000000E+00 0. -1.
         11    1    1    2    0    0 -0.36290106960E+02  0.12526838610E+02  0.88541558813E+01  0.39399106907E+02  0.00000000000E+00 0.  1.
</event>
<event>
 7    1  0.2686828E-009  0.1618746E+03  0.7561462E-02  0.1186596E+00
         -1   -1    0    0    0  501 -0.00000000000E+00  0.00000000000E+00  0.29846469169E+03  0.29846469169E+03  0.00000000000E+00 0.  1.
          1   -1    0    0  501    0  0.00000000000E+00 -0.00000000000E+00 -0.15958084090E+03  0.15958084090E+03  0.00000000000E+00 0. -1.
         25    2    1    2    0    0  0.11827138998E+03  0.47570819868E+02  0.21860799439E+03  0.28229051290E+03  0.12508946348E+03 0.  0.
          5    1    3    3  502    0  0.13902885120E+03  0.40416926795E+02  0.21560266721E+03  0.25973935386E+03  0.41800000000E+01 0. -1.
         -5    1    3    3    0  502 -0.20757461224E+02  0.71538930731E+01  0.30053271809E+01  0.22551159040E+02  0.41800000000E+01 0. -1.
        -11    1    1    2    0    0 -0.31518257089E+02 -0.61102156148E+02 -0.32252836768E+02  0.75941553154E+02  0.00000000000E+00 0.  1.
         11    1    1    2    0    0 -0.86753132892E+02  0.13531336280E+02 -0.47471306829E+02  0.99813466527E+02  0.00000000000E+00 0. -1.
</event>
<event>
 7    1  0.2686828E-009  0.8754038E+02  0.7561462E-02  0.1308920E+00
          2   -1    0    0  501    0  0.00000000000E+00  0.00000000000E+00  0.56749906826E+03  0.56749906826E+03  0.00000000000E+00 0. -1.
         -2   -1    0    0    0  501 -0.00000000000E+00 -0.00000000000E+00 -0.20926896722E+02  0.20926896722E+02  0.00000000000E+00 0.  1.
         25    2    1    2    0    0  0.27318232041E+01 -0.50380718538E+00  0.28534787576E+03  0.31157414980E+03  0.12508926390E+03 0.  0.
          5    1    3    3  502    0  0.40452538473E+01  0.43839632505E+02  0.25217286846E+03  0.25602129881E+03  0.41800000000E+01 0. -1.
         -5    1    3    3    0  502 -0.13134306432E+01 -0.44343439691E+02  0.33175007300E+02  0.55552850989E+02  0.41800000000E+01 0. -1.
        -11    1    1    2    0    0  0.32376013023E+02  0.27125667462E+02  0.81369115480E+02  0.91678465348E+02  0.00000000000E+00 0.  1.
         11    1    1    2    0    0 -0.35107836227E+02 -0.26621860277E+02  0.17985518030E+03  0.18517334984E+03  0.00000000000E+00 0. -1.
</event>
<event>
 7    1  0.2686828E-009  0.1080168E+03  0.7561462E-02  0.1264287E+00
          1   -1    0    0  501    0  0.00000000000E+00  0.00000000000E+00  0.19198108081E+03  0.19198108081E+03  0.00000000000E+00 0. -1.
         -1   -1    0    0    0  501 -0.00000000000E+00 -0.00000000000E+00 -0.90186771313E+02  0.90186771313E+02  0.00000000000E+00 0.  1.
         25    2    1    2    0    0 -0.70801110251E+02 -0.18929695466E+02  0.60441071836E+02  0.15706739425E+03  0.12508362239E+03 0.  0.
          5    1    3    3  502    0 -0.48556189290E+02 -0.42955159666E+02 -0.21740085532E+02  0.68505131044E+02  0.41800000000E+01 0. -1.
         -5    1    3    3    0  502 -0.22244920961E+02  0.24025464200E+02  0.82181157369E+02  0.88562263211E+02  0.41800000000E+01 0. -1.
        -11    1    1    2    0    0  0.78461985944E+02 -0.17871309219E+02  0.27576107015E+02  0.85065319665E+02  0.00000000000E+00 0. -1.
         11    1    1    2    0    0 -0.76608756931E+01  0.36801004686E+02  0.13777130647E+02  0.40035138205E+02  0.00000000000E+00 0.  1.
</event>
<event>
 7    1  0.2915692E-009  0.1045074E+03  0.7561462E-02  0.1271093E+00
         -2   -1    0    0    0  501 -0.00000000000E+00  0.00000000000E+00  0.58853293165E+02  0.58853293165E+02  0.00000000000E+00 0.  1.
          2   -1    0    0  501    0  0.00000000000E+00 -0.00000000000E+00 -0.23826004009E+03  0.23826004009E+03  0.00000000000E+00 0. -1.
         25    2    1    2    0    0 -0.22878377819E+02  0.38407172034E+02 -0.12452876410E+03  0.18208229516E+03  0.12509203847E+03 0.  0.
          5    1    3    3  502    0 -0.58898022983E+02  0.41579059802E+02 -0.25518133534E+02  0.76592707644E+02  0.41800000000E+01 0. -1.
         -5    1    3    3    0  502  0.36019645163E+02 -0.31718877674E+01 -0.99010630566E+02  0.10548958752E+03  0.41800000000E+01 0. -1.
        -11    1    1    2    0    0 -0.10291815239E+02  0.25993673499E+02 -0.21509756342E+02  0.35274100142E+02  0.00000000000E+00 0.  1.
         11    1    1    2    0    0  0.33170193059E+02 -0.64400845534E+02 -0.33368226485E+02  0.79756937954E+02  0.00000000000E+00 0. -1.
</event>
<event>
 7    1  0.2686828E-009  0.9889954E+02  0.7561462E-02  0.1282627E+00
         -2   -1    0    0    0  501 -0.00000000000E+00  0.00000000000E+00  0.65374934354E+02  0.65374934354E+02  0.00000000000E+00 0.  1.
          2   -1    0    0  501    0  0.00000000000E+00 -0.00000000000E+00 -0.25422159602E+03  0.25422159602E+03  0.00000000000E+00 0. -1.
         25    2    1    2    0    0  0.24914035160E+02 -0.43438041383E+02 -0.15420478181E+03  0.20477853320E+03  0.12509020881E+03 0.  0.
          5    1    3    3  502    0  0.53772477161E+02  0.13743064475E+02 -0.11946341311E+03  0.13179275623E+03  0.41800000000E+01 0.  1.
         -5    1    3    3    0  502 -0.28858442001E+02 -0.57181105858E+02 -0.34741368699E+02  0.72985776977E+02  0.41800000000E+01 0.  1.
        -11    1    1    2    0    0 -0.41540133804E+02  0.45015377281E+02 -0.59156303472E+02  0.85155358896E+02  0.00000000000E+00 0. -1.
         11    1    1    2    0    0  0.16626098644E+02 -0.15773358984E+01  0.24514423613E+02  0.29662638280E+02  0.00000000000E+00 0.  1.
</event>
<event>
 7    1  0.2686828E-009  0.1231454E+03  0.7561462E-02  0.1237997E+00
          1   -1    0    0  501    0  0.00000000000E+00  0.00000000000E+00  0.29011984691E+03  0.29011984691E+03  0.00000000000E+00 0. -1.
         -1   -1    0    0    0  501 -0.00000000000E+00 -0.00000000000E+00 -0.60024909317E+02  0.60024909317E+02  0.00000000000E+00 0.  1.
         25    2    1    2    0    0 -0.94283833223E+01  0.68731305366E+02  0.14939707255E+03  0.20683304653E+03  0.12509011593E+03 0.  0.
          5    1    3    3  502    0  0.37520881446E+02  0.72112602826E+02  0.46839734519E+02  0.93912071432E+02  0.41800000000E+01 0. -1.
         -5    1    3    3    0  502 -0.46949264768E+02 -0.33812974600E+01  0.10255733803E+03  0.11292097510E+03  0.41800000000E+01 0. -1.
        -11    1    1    2    0    0  0.45646487348E+02 -0.71614039896E+01  0.23715851039E+02  0.51935817167E+02  0.00000000000E+00 0.  1.
         11    1    1    2    0    0 -0.36218104026E+02 -0.61569901376E+02  0.56982014008E+02  0.91375892527E+02  0.00000000000E+00 0. -1.
</event>
<event>
 7    1  0.2686828E-009  0.9547927E+02  0.7561462E-02  0.1290100E+00
         -1   -1    0    0    0  501 -0.00000000000E+00  0.00000000000E+00  0.78047706195E+02  0.78047706195E+02  0.00000000000E+00 0.  1.
          1   -1    0    0  501    0  0.00000000000E+00 -0.00000000000E+00 -0.26235010998E+03  0.26235010998E+03  0.00000000000E+00 0. -1.
         25    2    1    2    0    0  0.62360816318E+02  0.13238137233E+02 -0.20103605847E+02  0.14183316277E+03  0.12509345068E+03 0.  0.
          5    1    3    3  502    0  0.29582227401E+02 -0.19776124347E+02 -0.66789204513E+02  0.75792305095E+02  0.41800000000E+01 0. -1.
         -5    1    3    3    0  502  0.32778588917E+02  0.33014261579E+02  0.46685598666E+02  0.66040857671E+02  0.41800000000E+01 0. -1.
        -11    1    1    2    0    0 -0.33387169058E+02 -0.50918224139E+02 -0.11518910286E+03  0.13029158847E+03  0.00000000000E+00 0. -1.
         11    1    1    2    0    0 -0.28973647260E+02  0.37680086906E+02 -0.49009695070E+02  0.68273064935E+02  0.00000000000E+00 0.  1.
</event>
<event>
 7    1  0.2686828E-009  0.1707178E+03  0.7561462E-02  0.1177101E+00
         -4   -1    0    0    0  501 -0.00000000000E+00  0.00000000000E+00  0.12672484869E+03  0.12672484869E+03  0.00000000000E+00 0.  1.
          4   -1    0    0  501    0  0.00000000000E+00 -0.00000000000E+00 -0.24375233245E+03  0.24375233245E+03  0.00000000000E+00 0. -1.
         25    2    1    2    0    0  0.10146984244E+02 -0.13598523323E+03 -0.39222500194E+02  0.18915733196E+03  0.12508855569E+03 0.  0.
          5    1    3    3  502    0  0.11181758708E+02 -0.15855829784E+03 -0.45399909625E+02  0.16536139131E+03  0.41800000000E+01 0. -1.
         -5    1    3    3    0  502 -0.10347744640E+01  0.22573064609E+02  0.61774094307E+01  0.23795940648E+02  0.41800000000E+01 0. -1.
        -11    1    1    2    0    0 -0.46248471015E+02  0.64537272597E+02 -0.59459507085E+02  0.99193818397E+02  0.00000000000E+00 0. -1.
         11    1    1    2    0    0  0.36101486771E+02  0.71447960634E+02 -0.18345476471E+02  0.82126030786E+02  0.00000000000E+00 0.  1.
</event>
<event>
 7    1  0.2686828E-009  0.9156337E+02  0.7561462E-02  0.1299109E+00
         -2   -1    0    0    0  501 -0.00000000000E+00  0.00000000000E+00  0.14754439454E+03  0.14754439454E+03  0.00000000000E+00 0. -1.
          2   -1    0    0  501    0  0.00000000000E+00 -0.00000000000E+00 -0.86314406641E+02  0.86314406641E+02  0.00000000000E+00 0.  1.
         25    2    1    2    0    0 -0.12048198920E+02 -0.44796239339E+01  0.66365766540E+02  0.14218618595E+03  0.12508904980E+03 0.  0.
          5    1    3    3  502    0 -0.76415842704E+01  0.59422057852E+02  0.21159425753E+02  0.63675493463E+02  0.41800000000E+01 0.  1.
         -5    1    3    3    0  502 -0.44066146496E+01 -0.63901681786E+02  0.45206340787E+02  0.78510692489E+02  0.41800000000E+01 0.  1.
        -11    1    1    2    0    0  0.30899396098E+02  0.17927746029E+02  0.31966003936E+02  0.47937481834E+02  0.00000000000E+00 0. -1.
         11    1    1    2    0    0 -0.18851197178E+02 -0.13448122096E+02 -0.37101782575E+02  0.43735133396E+02  0.00000000000E+00 0.  1.
</event>
<event>
 7    1  0.3661665E-009  0.1688045E+03  0.7561462E-02  0.1179100E+00
         -1   -1    0    0    0  501 -0.00000000000E+00  0.00000000000E+00  0.45568573744E+02  0.45568573744E+02  0.00000000000E+00 0.  1.
          1   -1    0    0  501    0  0.00000000000E+00 -0.00000000000E+00 -0.80025644907E+03  0.80025644907E+03  0.00000000000E+00 0. -1.
         25    2    1    2    0    0  0.15485299324E+03 -0.23467399538E+01 -0.44900722187E+03  0.49116213566E+03  0.12509117278E+03 0.  0.
          5    1    3    3  502    0  0.13581076150E+03 -0.13170567807E+02 -0.20595384755E+03  0.24708801370E+03  0.41800000000E+01 0.  1.
         -5    1    3    3    0  502  0.19042231743E+02  0.10823827854E+02 -0.24305337432E+03  0.24407412196E+03  0.41800000000E+01 0.  1.
        -11    1    1    2    0    0 -0.89701342042E+02 -0.42943952591E+02 -0.18883196841E+03  0.21341983535E+03  0.00000000000E+00 0.  1.
         11    1    1    2    0    0 -0.65151651201E+02  0.45290692545E+02 -0.11684868505E+03  0.14124305180E+03  0.00000000000E+00 0. -1.
</event>
<event>
 7    1  0.2686828E-009  0.1330150E+03  0.7561462E-02  0.1223049E+00
          3   -1    0    0  501    0  0.00000000000E+00  0.00000000000E+00  0.19137604459E+03  0.19137604459E+03  0.00000000000E+00 0. -1.
         -3   -1    0    0    0  501 -0.00000000000E+00 -0.00000000000E+00 -0.98998942643E+02  0.98998942643E+02  0.00000000000E+00 0.  1.
         25    2    1    2    0    0 -0.80640126868E+02 -0.80707405767E+01  0.35154423102E+02  0.15313700590E+03  0.12508853743E+03 0.  0.
          5    1    3    3  502    0 -0.10787552301E+03 -0.27782865765E+02  0.40965317184E+02  0.11876298122E+03  0.41800000000E+01 0.  1.
         -5    1    3    3    0  502  0.27235396147E+02  0.19712125189E+02 -0.58108940814E+01  0.34374024681E+02  0.41800000000E+01 0.  1.
        -11    1    1    2    0    0  0.74530897009E+01  0.40100710105E+02  0.36428949441E+02  0.54687145239E+02  0.00000000000E+00 0. -1.
         11    1    1    2    0    0  0.73187037167E+02 -0.32029969528E+02  0.20793729402E+02  0.82550836093E+02  0.00000000000E+00 0.  1.
</event>
<event>
 7    1  0.2686828E-009  0.8196242E+02  0.7561462E-02  0.1323573E+00
          1   -1    0    0  501    0  0.00000000000E+00  0.00000000000E+00  0.48315506720E+03  0.48315506720E+03  0.00000000000E+00 0. -1.
         -1   -1    0    0    0  501 -0.00000000000E+00 -0.00000000000E+00 -0.30222727911E+02  0.30222727911E+02  0.00000000000E+00 0.  1.
         25    2    1    2    0    0 -0.21828215135E+02  0.28763596634E+02  0.33451384700E+03  0.35895704931E+03  0.12508730530E+03 0.  0.
          5    1    3    3  502    0  0.43582837087E+02 -0.82055456325E+01  0.19926110233E+03  0.20417946510E+03  0.41800000000E+01 0.  1.
         -5    1    3    3    0  502 -0.65411052222E+02  0.36969142267E+02  0.13525274467E+03  0.15477758421E+03  0.41800000000E+01 0.  1.
        -11    1    1    2    0    0 -0.50890620804E+01 -0.10295171093E+02 -0.13959965841E+02  0.18076773688E+02  0.00000000000E+00 0.  1.
         11    1    1    2    0    0  0.26917277215E+02 -0.18468425542E+02  0.13237845813E+03  0.13634397212E+03  0.00000000000E+00 0. -1.
</event>
<event>
 7    1  0.2686828E-009  0.1088280E+03  0.7561462E-02  0.1262756E+00
         -1   -1    0    0    0  501 -0.00000000000E+00  0.00000000000E+00  0.35486112144E+03  0.35486112144E+03  0.00000000000E+00 0.  1.
          1   -1    0    0  501    0  0.00000000000E+00 -0.00000000000E+00 -0.46683267047E+02  0.46683267047E+02  0.00000000000E+00 0. -1.
         25    2    1    2    0    0 -0.51039494381E+02  0.26124717024E+02  0.23411216955E+03  0.27155914641E+03  0.12509329015E+03 0.  0.
          5    1    3    3  502    0 -0.67446743859E+02  0.48388238478E+02  0.22834460606E+03  0.24300044526E+03  0.41800000000E+01 0. -1.
         -5    1    3    3    0  502  0.16407249478E+02 -0.22263521454E+02  0.57675634981E+01  0.28558701155E+02  0.41800000000E+01 0. -1.
        -11    1    1    2    0    0  0.28258291734E+02  0.32860605340E+02  0.34501224571E+02  0.55395712216E+02  0.00000000000E+00 0.  1.
         11    1    1    2    0    0  0.22781202647E+02 -0.58985322364E+02  0.39564460269E+02  0.74589529860E+02  0.00000000000E+00 0. -1.
</event>
<event>
 7    1  0.2686828E-009  0.1153155E+03  0.7561462E-02  0.1251031E+00
          2   -1    0    0  501    0  0.00000000000E+00  0.00000000000E+00  0.12266254242E+03  0.12266254242E+03  0.00000000000E+00 0. -1.
         -2   -1    0    0    0  501 -0.00000000000E+00 -0.00000000000E+00 -0.18308349254E+03  0.18308349254E+03  0.00000000000E+00 0.  1.
         25    2    1    2    0    0  0.10101215730E+03 -0.11373210341E+02 -0.57004433560E+02  0.17095333393E+03  0.12507090430E+03 0.  0.
          5    1    3    3  502    0 -0.62667876205E+01  0.48169760660E+01 -0.61635198248E+02  0.62280381731E+02  0.41800000000E+01 0.  1.
         -5    1    3    3    0  502  0.10727894492E+03 -0.16190186407E+02  0.46307646876E+01  0.10867295220E+03  0.41800000000E+01 0.  1.
        -11    1    1    2    0    0 -0.30815755280E+02  0.27261248913E+02 -0.37034377015E+02  0.55356404748E+02  0.00000000000E+00 0.  1.
         11    1    1    2    0    0 -0.70196402016E+02 -0.15888038572E+02  0.33617860452E+02  0.79436296283E+02  0.00000000000E+00 0. -1.
</event>
<event>
 7    1  0.2686828E-009  0.1548296E+03  0.7561462E-02  0.1194661E+00
         -1   -1    0    0    0  501 -0.00000000000E+00  0.00000000000E+00  0.31536625613E+02  0.31536625613E+02  0.00000000000E+00 0.  1.
          1   -1    0    0  501    0  0.00000000000E+00 -0.00000000000E+00 -0.11918352266E+04  0.11918352266E+04  0.00000000000E+00 0. -1.
         25    2    1    2    0    0 -0.45099401109E+02  0.13408321189E+03 -0.84482982512E+03  0.86567719798E+03  0.12508922415E+03 0.  0.
          5    1    3    3  502    0 -0.32953298278E+02  0.66848072876E+02 -0.15063697798E+03  0.16811768571E+03  0.41800000000E+01 0.  1.
         -5    1    3    3    0  502 -0.12146102832E+02  0.67235139015E+02 -0.69419284715E+03  0.69755951227E+03  0.41800000000E+01 0.  1.
        -11    1    1    2    0    0  0.60429027461E+01 -0.12666248603E+03 -0.26192013360E+03  0.29100181860E+03  0.00000000000E+00 0. -1.
         11    1    1    2    0    0  0.39056498363E+02 -0.74207258582E+01 -0.53548642260E+02  0.66692835631E+02  0.00000000000E+00 0.  1.
</event>
<event>
 7    1  0.2909363E-009  0.1802749E+03  0.7561462E-02  0.1167537E+00
          2   -1    0    0  501    0  0.00000000000E+00  0.00000000000E+00  0.42943542865E+03  0.42943542865E+03  0.00000000000E+00 0. -1.
         -2   -1    0    0    0  501 -0.00000000000E+00 -0.00000000000E+00 -0.10682066216E+03  0.10682066216E+03  0.00000000000E+00 0.  1.
         25    2    1    2    0    0  0.46733959955E+02 -0.16382830729E+03  0.25556288181E+03  0.33163819545E+03  0.12509088233E+03 0.  0.
          5    1    3    3  502    0  0.14810021687E+02 -0.89539947276E+02  0.36180019729E+02  0.97791641402E+02  0.41800000000E+01 0. -1.
         -5    1    3    3    0  502  0.31923938267E+02 -0.74288360019E+02  0.21938286208E+03  0.23384655405E+03  0.41800000000E+01 0. -1.
        -11    1    1    2    0    0  0.23469932159E+02  0.43058746371E+02 -0.13919098695E+01  0.49059461551E+02  0.00000000000E+00 0.  1.
         11    1    1    2    0    0 -0.70203892113E+02  0.12076956092E+03  0.68443794551E+02  0.15555843380E+03  0.00000000000E+00 0. -1.
</event>
<event>
 7    1  0.2686828E-009  0.1297274E+03  0.7561462E-02  0.1227861E+00
         -2   -1    0    0    0  501 -0.00000000000E+00  0.00000000000E+00  0.13095489602E+03  0.13095489602E+03  0.00000000000E+00 0.  1.
          2   -1    0    0  501    0  0.00000000000E+00 -0.00000000000E+00 -0.16226168666E+03  0.16226168666E+03  0.00000000000E+00 0. -1.
         25    2    1    2    0    0 -0.93730613821E+02 -0.22076259165E+02 -0.20458898022E+02  0.15918316510E+03  0.12509166381E+03 0.  0.
          5    1    3    3  502    0 -0.10772844286E+03 -0.55142827567E+02 -0.21650645398E+02  0.12301370525E+03  0.41800000000E+01 0.  1.
         -5    1    3    3    0  502  0.13997829040E+02  0.33066568401E+02  0.11917473758E+01  0.36169459845E+02  0.41800000000E+01 0.  1.
        -11    1    1    2    0    0  0.29384018347E+02 -0.90306233728E+01  0.36940131722E+02  0.48057736363E+02  0.00000000000E+00 0.  1.
         11    1    1    2    0    0  0.64346595474E+02  0.31106882538E+02 -0.47788024348E+02  0.85975681221E+02  0.00000000000E+00 0. -1.
</event>
<event>
 7    1  0.2686828E-009  0.1640469E+03  0.7561462E-02  0.1184202E+00
          3   -1    0    0  501    0  0.00000000000E+00  0.00000000000E+00  0.38866864447E+03  0.38866864447E+03  0.00000000000E+00 0.  1.
         -3   -1    0    0    0  501 -0.00000000000E+00 -0.00000000000E+00 -0.96784131562E+02  0.96784131562E+02  0.00000000000E+00 0. -1.
         25    2    1    2    0    0  0.12959319730E+03  0.31052944735E+02  0.39717005326E+02  0.18703997689E+03  0.12509128778E+03 0.  0.
          5    1    3    3  502    0  0.24101095438E+02 -0.45591730476E+02  0.18008899021E+02  0.54783770709E+02  0.41800000000E+01 0. -1.
         -5    1    3    3    0  502  0.10549210186E+03  0.76644675211E+02  0.21708106305E+02  0.13225620618E+03  0.41800000000E+01 0. -1.
        -11    1    1    2    0    0 -0.72555623408E+02 -0.47268179116E+02  0.86260095888E+02  0.12222685215E+03  0.00000000000E+00 0. -1.
         11    1    1    2    0    0 -0.57037573893E+02  0.16215234381E+02  0.16590741170E+03  0.17618594699E+03  0.00000000000E+00 0.  1.
</event>
<event>
 7    1  0.2686828E-009  0.9107825E+02  0.7561462E-02  0.1300261E+00
         -2   -1    0    0    0  501 -0.00000000000E+00  0.00000000000E+00  0.31202800315E+03  0.31202800315E+03  0.00000000000E+00 0. -1.
          2   -1    0    0  501    0  0.00000000000E+00 -0.00000000000E+00 -0.42573566563E+02  0.42573566563E+02  0.00000000000E+00 0.  1.
         25    2    1    2    0    0  0.33755795811E+02  0.15666004283E+02  0.16297696292E+03  0.20879080928E+03  0.12508890501E+03 0.  0.
          5    1    3    3  502    0  0.30431946376E+02  0.68244662168E+02  0.73651190602E+02  0.10500194070E+03  0.41800000000E+01 0.  1.
         -5    1    3    3    0  502  0.33238494349E+01 -0.52578657885E+02  0.89325772317E+02  0.10378886858E+03  0.41800000000E+01 0.  1.
        -11    1    1    2    0    0 -0.39193502447E+02 -0.14195943162E+01  0.11949171552E+03  0.12576333313E+03  0.00000000000E+00 0. -1.
         11    1    1    2    0    0  0.54377066366E+01 -0.14246409967E+02 -0.13014241854E+02  0.20047427302E+02  0.00000000000E+00 0.  1.
</event>
<event>
 7    1  0.2686828E-009  0.5116412E+02  0.7561462E-02  0.1439162E+00
         -2   -1    0    0    0  501 -0.00000000000E+00  0.00000000000E+00  0.36090083407E+03  0.36090083407E+03  0.00000000000E+00 0.  1.
          2   -1    0    0  501    0  0.00000000000E+00 -0.00000000000E+00 -0.47362172005E+02  0.47362172005E+02  0.00000000000E+00 0. -1.
         25    2    1    2    0    0 -0.38231973221E+02 -0.11725479755E+02  0.26916392963E+03  0.29949118146E+03  0.12508627465E+03 0.  0.
          5    1    3    3  502    0 -0.39432703139E+02  0.98874798476E+00  0.11254159197E+02  0.41231592240E+02  0.41800000000E+01 0. -1.
         -5    1    3    3    0  502  0.12007299174E+01 -0.12714227740E+02  0.25790977043E+03  0.25825958922E+03  0.41800000000E+01 0. -1.
        -11    1    1    2    0    0  0.13224256261E+02 -0.96142394864E+01 -0.26218730728E+02  0.30898808967E+02  0.00000000000E+00 0. -1.
         11    1    1    2    0    0  0.25007716960E+02  0.21339719242E+02  0.70593463164E+02  0.77873015649E+02  0.00000000000E+00 0.  1.
</event>
<event>
 7    1  0.2686828E-009  0.1986534E+03  0.7561462E-02  0.1150880E+00
          1   -1    0    0  501    0  0.00000000000E+00  0.00000000000E+00  0.34400574303E+03  0.34400574303E+03  0.00000000000E+00 0. -1.
         -1   -1    0    0    0  501 -0.00000000000E+00 -0.00000000000E+00 -0.14890998907E+03  0.14890998907E+03  0.00000000000E+00 0.  1.
         25    2    1    2    0    0 -0.11866827188E+02  0.16675367288E+03  0.21114410520E+03  0.29694623769E+03  0.12509047091E+03 0.  0.
          5    1    3    3  502    0  0.31675492832E+02  0.16131811340E+03  0.17245911530E+03  0.23829915948E+03  0.41800000000E+01 0. -1.
         -5    1    3    3    0  502 -0.43542320020E+02  0.54355594756E+01  0.38684989899E+02  0.58647078213E+02  0.41800000000E+01 0. -1.
        -11    1    1    2    0    0 -0.38306155149E+02 -0.73316394998E+02 -0.32051984459E+02  0.88712935954E+02  0.00000000000E+00 0. -1.
         11    1    1    2    0    0  0.50172982338E+02 -0.93437277877E+02  0.16003633219E+02  0.10725655845E+03  0.00000000000E+00 0.  1.
</event>
<event>
 7    1  0.2686828E-009  0.1026261E+03  0.7561462E-02  0.1274869E+00
          2   -1    0    0  501    0  0.00000000000E+00  0.00000000000E+00  0.10290543895E+04  0.10290543895E+04  0.00000000000E+00 0. -1.
         -2   -1    0    0    0  501 -0.00000000000E+00 -0.00000000000E+00 -0.14225512225E+02  0.14225512225E+02  0.00000000000E+00 0.  1.
         25    2    1    2    0    0  0.49928567829E+01  0.55555790121E+02  0.53660803597E+03  0.55381105494E+03  0.12508847217E+03 0.  0.
          5    1    3    3  502    0 -0.53622097227E+01  0.77122444195E+02  0.51652981007E+03  0.52229985811E+03  0.41800000000E+01 0.  1.
         -5    1    3    3    0  502  0.10355066506E+02 -0.21566654074E+02  0.20078225905E+02  0.31511196832E+02  0.41800000000E+01 0.  1.
        -11    1    1    2    0    0  0.35760322364E+02 -0.51349808991E+02  0.25894291728E+03  0.26639639252E+03  0.00000000000E+00 0.  1.
         11    1    1    2    0    0 -0.40753179147E+02 -0.42059811299E+01  0.21927792404E+03  0.22307245428E+03  0.00000000000E+00 0. -1.
</event>
<event>
 7    1  0.2686828E-009  0.1105775E+03  0.7561462E-02  0.1259504E+00
          1   -1    0    0  501    0  0.00000000000E+00  0.00000000000E+00  0.23661147918E+02  0.23661147918E+02  0.00000000000E+00 0. -1.
         -1   -1    0    0    0  501 -0.00000000000E+00 -0.00000000000E+00 -0.74656633116E+03  0.74656633116E+03  0.00000000000E+00 0.  1.
         25    2    1    2    0    0 -0.63684994814E+02  0.42149076142E+02 -0.38240129436E+03  0.40952500322E+03  0.12509058776E+03 0.  0.
          5    1    3    3  502    0 -0.80817761889E+02  0.44488596833E+02 -0.14799141890E+03  0.17444104550E+03  0.41800000000E+01 0. -1.
         -5    1    3    3    0  502  0.17132767076E+02 -0.23395206911E+01 -0.23440987546E+03  0.23508395772E+03  0.41800000000E+01 0. -1.
        -11    1    1    2    0    0  0.74242962294E+02 -0.56431915936E+02 -0.32123044386E+03  0.33449301435E+03  0.00000000000E+00 0.  1.
         11    1    1    2    0    0 -0.10557967481E+02  0.14282839794E+02 -0.19273445027E+02  0.26209461519E+02  0.00000000000E+00 0. -1.
</event>
<event>
 7    1  0.2686828E-009  0.2698985E+03  0.7561462E-02  0.1101338E+00
          2   -1    0    0  501    0  0.00000000000E+00  0.00000000000E+00  0.21378300357E+03  0.21378300357E+03  0.00000000000E+00 0. -1.
         -2   -1    0    0    0  501 -0.00000000000E+00 -0.00000000000E+00 -0.39557993622E+03  0.39557993622E+03  0.00000000000E+00 0.  1.
         25    2    1    2    0    0  0.83376762513E+02  0.25495356131E+03 -0.12706105755E+03  0.32209392239E+03  0.12508788726E+03 0.  0.
          5    1    3    3  502    0  0.51509415456E+02  0.19452903239E+03 -0.14877386035E+03  0.25029162640E+03  0.41800000000E+01 0.  1.
         -5    1    3    3    0  502  0.31867347057E+02  0.60424528925E+02  0.21712802795E+02  0.71802295991E+02  0.41800000000E+01 0.  1.
        -11    1    1    2    0    0 -0.22474654290E+02 -0.11906999692E+03 -0.65918908073E+02  0.13794229479E+03  0.00000000000E+00 0.  1.
         11    1    1    2    0    0 -0.60902108223E+02 -0.13588356440E+03  0.11183032978E+02  0.14932672261E+03  0.00000000000E+00 0. -1.
</event>
<event>
 7    1  0.2686828E-009  0.1162112E+03  0.7561462E-02  0.1249482E+00
          2   -1    0    0  501    0  0.00000000000E+00  0.00000000000E+00  0.89774173322E+01  0.89774173322E+01  0.00000000000E+00 0. -1.
         -2   -1    0    0    0  501 -0.00000000000E+00 -0.00000000000E+00 -0.17521304503E+04  0.17521304503E+04  0.00000000000E+00 0.  1.
         25    2    1    2    0    0 -0.21746856730E+02 -0.40418144897E+02 -0.12768432790E+04  0.12837768256E+04  0.12509047391E+03 0.  0.
          5    1    3    3  502    0  0.11695313245E+02  0.41986889759E+02 -0.47074032544E+03  0.47277225559E+03  0.41800000000E+01 0.  1.
         -5    1    3    3    0  502 -0.33442169975E+02 -0.82405034656E+02 -0.80610295355E+03  0.81100457002E+03  0.41800000000E+01 0.  1.
        -11    1    1    2    0    0  0.11177558097E+02  0.68601693651E+02 -0.36837510952E+03  0.37487511452E+03  0.00000000000E+00 0.  1.
         11    1    1    2    0    0  0.10569298632E+02 -0.28183548754E+02 -0.97934644494E+02  0.10245592753E+03  0.00000000000E+00 0. -1.
</event>
<event>
 7    1  0.3401038E-009  0.1137419E+03  0.7561462E-02  0.1253793E+00
          2   -1    0    0  501    0  0.00000000000E+00  0.00000000000E+00  0.96302501749E+03  0.96302501749E+03  0.00000000000E+00 0. -1.
         -2   -1    0    0    0  501 -0.00000000000E+00 -0.00000000000E+00 -0.16811534151E+02  0.16811534151E+02  0.00000000000E+00 0.  1.
         25    2    1    2    0    0 -0.41293540920E+02 -0.46651649183E+02  0.61546544155E+03  0.63112921451E+03  0.12507934588E+03 0.  0.
          5    1    3    3  502    0 -0.45894844322E+01 -0.81751690672E+02  0.27798411502E+03  0.28982243339E+03  0.41800000000E+01 0.  1.
         -5    1    3    3    0  502 -0.36704056488E+02  0.35100041489E+02  0.33748132653E+03  0.34130678111E+03  0.41800000000E+01 0.  1.
        -11    1    1    2    0    0  0.54453972282E+02  0.96963327737E+01  0.96753463171E+02  0.11144723685E+03  0.00000000000E+00 0.  1.
         11    1    1    2    0    0 -0.13160431362E+02  0.36955316410E+02  0.23399457861E+03  0.23726010028E+03  0.00000000000E+00 0. -1.
</event>
<event>
 7    1  0.2686828E-009  0.1019637E+03  0.7561462E-02  0.1276220E+00
         -2   -1    0    0    0  501 -0.00000000000E+00  0.00000000000E+00  0.64946197775E+02  0.64946197775E+02  0.00000000000E+00 0.  1.
          2   -1    0    0  501    0  0.00000000000E+00 -0.00000000000E+00 -0.22616693778E+03  0.22616693778E+03  0.00000000000E+00 0. -1.
         25    2    1    2    0    0  0.11487129355E+02 -0.18309369671E+02 -0.14764329567E+03  0.19471625634E+03  0.12509472639E+03 0.  0.
          5    1    3    3  502    0  0.35518831161E+02  0.41061566722E+02 -0.33990289634E+02  0.64190745580E+02  0.41800000000E+01 0.  1.
         -5    1    3    3    0  502 -0.24031701806E+02 -0.59370936393E+02 -0.11365300603E+03  0.13052551076E+03  0.41800000000E+01 0.  1.
        -11    1    1    2    0    0  0.20401236428E+02 -0.24516146097E+02  0.15649952233E+02  0.35527072383E+02  0.00000000000E+00 0.  1.
         11    1    1    2    0    0 -0.31888365783E+02  0.42825515767E+02 -0.29227396571E+02  0.60869806829E+02  0.00000000000E+00 0. -1.
</event>
<event>
 7    1  0.2686828E-009  0.1778322E+03  0.7561462E-02  0.1169918E+00
          1   -1    0    0  501    0  0.00000000000E+00  0.00000000000E+00  0.88371569327E+02  0.88371569327E+02  0.00000000000E+00 0. -1.
         -1   -1    0    0    0  501 -0.00000000000E+00 -0.00000000000E+00 -0.46003313352E+03  0.46003313352E+03  0.00000000000E+00 0.  1.
         25    2    1    2    0    0  0.73122031364E+02 -0.11364049773E+03 -0.30211050976E+03  0.35380752904E+03  0.12509201934E+03 0.  0.
          5    1    3    3  502    0  0.96217270027E+02 -0.46298955215E+02 -0.13542545609E+03  0.17250763132E+03  0.41800000000E+01 0. -1.
         -5    1    3    3    0  502 -0.23095238662E+02 -0.67341542511E+02 -0.16668505367E+03  0.18129989772E+03  0.41800000000E+01 0. -1.
        -11    1    1    2    0    0 -0.10356501748E+03  0.10057001923E+03 -0.72108936284E+02  0.16136833737E+03  0.00000000000E+00 0. -1.
         11    1    1    2    0    0  0.30442986116E+02  0.13070478493E+02  0.25578818465E+01  0.33228836441E+02  0.00000000000E+00 0.  1.
</event>
<event>
 7    1  0.2686828E-009  0.9328267E+02  0.7561462E-02  0.1295091E+00
         -2   -1    0    0    0  501 -0.00000000000E+00  0.00000000000E+00  0.13177336370E+02  0.13177336370E+02  0.00000000000E+00 0.  1.
          2   -1    0    0  501    0  0.00000000000E+00 -0.00000000000E+00 -0.10609033314E+04  0.10609033314E+04  0.00000000000E+00 0. -1.
         25    2    1    2    0    0 -0.37477384898E+02 -0.56408641373E+01 -0.72983167543E+03  0.74144346942E+03  0.12509104747E+03 0.  0.
          5    1    3    3  502    0 -0.70548265990E+01 -0.42898738010E+02 -0.92576714353E+02  0.10236206691E+03  0.41800000000E+01 0.  1.
         -5    1    3    3    0  502 -0.30422558299E+02  0.37257873873E+02 -0.63725496108E+03  0.63908140251E+03  0.41800000000E+01 0.  1.
        -11    1    1    2    0    0  0.62847401531E+02 -0.11633658178E+02 -0.17061952803E+03  0.18219813728E+03  0.00000000000E+00 0.  1.
         11    1    1    2    0    0 -0.25370016633E+02  0.17274522316E+02 -0.14727479158E+03  0.15043906109E+03  0.00000000000E+00 0. -1.
</event>
<event>
 7    1  0.4289234E-009  0.1428993E+03  0.7561462E-02  0.1209480E+00
          1   -1    0    0  501    0  0.00000000000E+00  0.00000000000E+00  0.37371445347E+03  0.37371445347E+03  0.00000000000E+00 0. -1.
         -1   -1    0    0    0  501 -0.00000000000E+00 -0.00000000000E+00 -0.81280172455E+02  0.81280172455E+02  0.00000000000E+00 0.  1.
         25    2    1    2    0    0  0.11921544704E+03  0.59607950372E+02  0.11911042915E+03  0.21817425025E+03  0.12508908257E+03 0.  0.
          5    1    3    3  502    0  0.10238045165E+03  0.50083436100E+02  0.14569939044E+03  0.18502943611E+03  0.41800000000E+01 0.  1.
         -5    1    3    3    0  502  0.16834995397E+02  0.95245142721E+01 -0.26588961290E+02  0.33144814144E+02  0.41800000000E+01 0.  1.
        -11    1    1    2    0    0 -0.66108968448E+02  0.73287339128E+01  0.37503220127E+02  0.76358349707E+02  0.00000000000E+00 0.  1.
         11    1    1    2    0    0 -0.53106478595E+02 -0.66936684285E+02  0.13582063173E+03  0.16046202596E+03  0.00000000000E+00 0. -1.
</event>
<event>
 7    1  0.2686828E-009  0.1055435E+03  0.7561462E-02  0.1269052E+00
          3   -1    0    0  501    0  0.00000000000E+00  0.00000000000E+00  0.99344678926E+02  0.99344678926E+02  0.00000000000E+00 0. -1.
         -3   -1    0    0    0  501 -0.00000000000E+00 -0.00000000000E+00 -0.17342067851E+03  0.17342067851E+03  0.00000000000E+00 0.  1.
         25    2    1    2    0    0  0.38242351797E+02  0.61948887463E+02 -0.63107536304E+02  0.15789173679E+03  0.12508835789E+03 0.  0.
          5    1    3    3  502    0  0.45562515932E+02 -0.93237500682E+01 -0.71747618119E+02  0.85604137045E+02  0.41800000000E+01 0.  1.
         -5    1    3    3    0  502 -0.73201641353E+01  0.71272637531E+02  0.86400818154E+01  0.72287599749E+02  0.41800000000E+01 0.  1.
        -11    1    1    2    0    0  0.12485575507E+02 -0.30453039089E+02  0.28300904622E+02  0.43407584452E+02  0.00000000000E+00 0.  1.
         11    1    1    2    0    0 -0.50727927304E+02 -0.31495848374E+02 -0.39269367903E+02  0.71466036192E+02  0.00000000000E+00 0. -1.
</event>
<event>
 7    1  0.2686828E-009  0.1068334E+03  0.7561462E-02  0.1266549E+00
         -2   -1    0    0    0  501 -0.00000000000E+00  0.00000000000E+00  0.17048133218E+02  0.17048133218E+02  0.00000000000E+00 0.  1.
          2   -1    0    0  501    0  0.00000000000E+00 -0.00000000000E+00 -0.83794389341E+03  0.83794389341E+03  0.00000000000E+00 0. -1.
         25    2    1    2    0    0  0.44899416929E+02 -0.15496080550E+02 -0.51320616853E+03  0.53036300329E+03  0.12509299619E+03 0.  0.
          5    1    3    3  502    0 -0.13936993819E+02 -0.48664847465E+02 -0.35025915978E+03  0.35392295572E+03  0.41800000000E+01 0. -1.
         -5    1    3    3    0  502  0.58836410749E+02  0.33168766915E+02 -0.16294700874E+03  0.17644004757E+03  0.41800000000E+01 0. -1.
        -11    1    1    2    0    0 -0.67616887966E+02  0.22771498170E+02 -0.27534980395E+03  0.28444349035E+03  0.00000000000E+00 0. -1.
         11    1    1    2    0    0  0.22717471037E+02 -0.72754176198E+01 -0.32339787718E+02  0.40185532987E+02  0.00000000000E+00 0.  1.
</event>
<event>
 7    1  0.2686828E-009  0.1008833E+03  0.7561462E-02  0.1278449E+00
          1   -1    0    0  501    0  0.00000000000E+00  0.00000000000E+00  0.10095728756E+03  0.10095728756E+03  0.00000000000E+00 0. -1.
         -1   -1    0    0    0  501 -0.00000000000E+00 -0.00000000000E+00 -0.17215245637E+03  0.17215245637E+03  0.00000000000E+00 0.  1.
         25    2    1    2    0    0 -0.54080914504E+02 -0.48292587293E+01  0.69870147244E+01  0.13654474993E+03  0.12509030060E+03 0.  0.
          5    1    3    3  502    0 -0.65454222048E+02 -0.25358724337E+02 -0.42111899320E+02  0.81964654261E+02  0.41800000000E+01 0.  1.
         -5    1    3    3    0  502  0.11373307544E+02  0.20529465608E+02  0.49098914044E+02  0.54580095666E+02  0.41800000000E+01 0.  1.
        -11    1    1    2    0    0  0.63058318134E+02 -0.31286950497E+02 -0.68249542338E+02  0.98047053942E+02  0.00000000000E+00 0.  1.
         11    1    1    2    0    0 -0.89774036301E+01  0.36116209227E+02 -0.99326411981E+01  0.38517940054E+02  0.00000000000E+00 0. -1.
</event>
<event>
 7    1  0.2686828E-009  0.1220483E+03  0.7561462E-02  0.1239756E+00
         -1   -1    0    0    0  501 -0.00000000000E+00  0.00000000000E+00  0.10411999615E+03  0.10411999615E+03  0.00000000000E+00 0.  1.
          1   -1    0    0  501    0  0.00000000000E+00 -0.00000000000E+00 -0.23404197956E+03  0.23404197956E+03  0.00000000000E+00 0. -1.
         25    2    1    2    0    0 -0.66750476287E+02 -0.93536009480E+00  0.28518448051E+02  0.14462849904E+03  0.12509036682E+03 0.  0.
          5    1    3    3  502    0  0.14123338748E+02  0.45440507659E+02  0.29036418506E+01  0.47856159162E+02  0.41800000000E+01 0.  1.
         -5    1    3    3    0  502 -0.80873815035E+02 -0.46375867754E+02  0.25614806200E+02  0.96772339875E+02  0.41800000000E+01 0.  1.
        -11    1    1    2    0    0  0.72877472353E+01  0.34135280139E+02 -0.91960456525E+02  0.98361853248E+02  0.00000000000E+00 0.  1.
         11    1    1    2    0    0  0.59462729052E+02 -0.33199920044E+02 -0.66479974932E+02  0.95171623419E+02  0.00000000000E+00 0. -1.
</event>
<event>
 7    1  0.2686828E-009  0.1792974E+03  0.7561462E-02  0.1168485E+00
          3   -1    0    0  501    0  0.00000000000E+00  0.00000000000E+00  0.19896310978E+03  0.19896310978E+03  0.00000000000E+00 0. -1.
         -3   -1    0    0    0  501 -0.00000000000E+00 -0.00000000000E+00 -0.21626041438E+03  0.21626041438E+03  0.00000000000E+00 0.  1.
         25    2    1    2    0    0 -0.33629415803E+02 -0.15691166107E+03  0.59246066883E+02  0.21191262043E+03  0.12507859637E+03 0.  0.
          5    1    3    3  502    0  0.27803568601E+02 -0.12477884508E+03  0.62542926626E+02  0.14237938291E+03  0.41800000000E+01 0. -1.
         -5    1    3    3    0  502 -0.61432984405E+02 -0.32132815995E+02 -0.32968597431E+01  0.69533237526E+02  0.41800000000E+01 0. -1.
        -11    1    1    2    0    0  0.28770996455E+02  0.98413452049E+02  0.52118432591E+01  0.10266518929E+03  0.00000000000E+00 0. -1.
         11    1    1    2    0    0  0.48584193485E+01  0.58498209021E+02 -0.81755214745E+02  0.10064571444E+03  0.00000000000E+00 0.  1.
</event>
<event>
 7    1  0.2686828E-009  0.2224305E+03  0.7561462E-02  0.1132084E+00
         -1   -1    0    0    0  501 -0.00000000000E+00  0.00000000000E+00  0.60198780290E+02  0.60198780290E+02  0.00000000000E+00 0. -1.
          1   -1    0    0  501    0  0.00000000000E+00 -0.00000000000E+00 -0.98743745377E+03  0.98743745377E+03  0.00000000000E+00 0.  1.
         25    2    1    2    0    0  0.17165175275E+03 -0.10595966088E+03 -0.64660161996E+03  0.68879231718E+03  0.12509767113E+03 0.  0.
          5    1    3    3  502    0  0.80736433156E+02  0.72728955323E+01 -0.14059433502E+03  0.16234378980E+03  0.41800000000E+01 0. -1.
         -5    1    3    3    0  502  0.90915319592E+02 -0.11323255642E+03 -0.50600728494E+03  0.52644852738E+03  0.41800000000E+01 0. -1.
        -11    1    1    2    0    0 -0.62258474017E+02  0.87633712244E+02 -0.17674954459E+03  0.20687239212E+03  0.00000000000E+00 0.  1.
         11    1    1    2    0    0 -0.10939327873E+03  0.18325948640E+02 -0.10388750893E+03  0.15197152476E+03  0.00000000000E+00 0. -1.
</event>
<event>
 7    1  0.2686828E-009  0.9164755E+02  0.7561462E-02  0.1298910E+00
          1   -1    0    0  501    0  0.00000000000E+00  0.00000000000E+00  0.31995737753E+02  0.31995737753E+02  0.00000000000E+00 0. -1.
         -1   -1    0    0    0  501 -0.00000000000E+00 -0.00000000000E+00 -0.36755873860E+03  0.36755873860E+03  0.00000000000E+00 0.  1.
         25    2    1    2    0    0  0.12898982558E+02 -0.51693840593E+01 -0.20749232799E+03  0.24267991444E+03  0.12508944166E+03 0.  0.
          5    1    3    3  502    0  0.57614791791E+02 -0.55248884687E+00 -0.18174816622E+03  0.19070825310E+03  0.41800000000E+01 0.  1.
         -5    1    3    3    0  502 -0.44715809232E+02 -0.46168952125E+01 -0.25744161768E+02  0.51971661334E+02  0.41800000000E+01 0.  1.
        -11    1    1    2    0    0  0.30515847742E+02 -0.13186383858E+02 -0.19565367428E+02  0.38573323493E+02  0.00000000000E+00 0. -1.
         11    1    1    2    0    0 -0.43414830300E+02  0.18355767918E+02 -0.10850530543E+03  0.11830123842E+03  0.00000000000E+00 0.  1.
</event>
<event>
 7    1  0.2686828E-009  0.1819527E+03  0.7561462E-02  0.1165927E+00
          2   -1    0    0  501    0  0.00000000000E+00  0.00000000000E+00  0.17097896645E+03  0.17097896645E+03  0.00000000000E+00 0. -1.
         -2   -1    0    0    0  501 -0.00000000000E+00 -0.00000000000E+00 -0.22598688475E+03  0.22598688475E+03  0.00000000000E+00 0.  1.
         25    2    1    2    0    0 -0.85990627343E+01  0.16182900890E+03 -0.43943480588E+01  0.20476723318E+03  0.12509091688E+03 0.  0.
          5    1    3    3  502    0  0.33700300470E+02  0.44117833353E+02 -0.46692693661E+02  0.72662050018E+02  0.41800000000E+01 0.  1.
         -5    1    3    3    0  502 -0.42299363205E+02  0.11771117555E+03  0.42298345602E+02  0.13210518316E+03  0.41800000000E+01 0.  1.
        -11    1    1    2    0    0  0.41627347190E+02 -0.13258684550E+03 -0.51149094296E+02  0.14808219839E+03  0.00000000000E+00 0.  1.
         11    1    1    2    0    0 -0.33028284456E+02 -0.29242163401E+02  0.53552405963E+00  0.44116419624E+02  0.00000000000E+00 0. -1.
</event>
<event>
 7    1  0.2686828E-009  0.8662499E+02  0.7561462E-02  0.1311237E+00
          1   -1    0    0  501    0  0.00000000000E+00  0.00000000000E+00  0.58062694991E+03  0.58062694991E+03  0.00000000000E+00 0. -1.
         -1   -1    0    0    0  501 -0.00000000000E+00 -0.00000000000E+00 -0.29325983092E+02  0.29325983092E+02  0.00000000000E+00 0.  1.
         25    2    1    2    0    0  0.20588542654E+02  0.11521495189E+02  0.14475583412E+03  0.19276115581E+03  0.12508388679E+03 0.  0.
          5    1    3    3  502    0 -0.22028703719E+02  0.26115334165E+02  0.14342916952E+03  0.14750143571E+03  0.41800000000E+01 0.  1.
         -5    1    3    3    0  502  0.42617246373E+02 -0.14593838976E+02  0.13266646008E+01  0.45259720099E+02  0.41800000000E+01 0.  1.
        -11    1    1    2    0    0 -0.56033165697E+02 -0.14911033325E+02  0.24462973744E+03  0.25140756356E+03  0.00000000000E+00 0. -1.
         11    1    1    2    0    0  0.35444623043E+02  0.33895381358E+01  0.16191539526E+03  0.16578421364E+03  0.00000000000E+00 0.  1.
</event>
<event>
 7    1  0.2686828E-009  0.1127559E+03  0.7561462E-02  0.1255550E+00
          2   -1    0    0  501    0  0.00000000000E+00  0.00000000000E+00  0.16155005862E+03  0.16155005862E+03  0.00000000000E+00 0. -1.
         -2   -1    0    0    0  501 -0.00000000000E+00 -0.00000000000E+00 -0.86324424997E+02  0.86324424997E+02  0.00000000000E+00 0.  1.
         25    2    1    2    0    0  0.38984231177E+02  0.17807265414E+02  0.19331076788E+02  0.13363221803E+03  0.12508800976E+03 0.  0.
          5    1    3    3  502    0  0.29113321362E+02  0.69119617172E+02 -0.61089022885E+01  0.75365098327E+02  0.41800000000E+01 0.  1.
         -5    1    3    3    0  502  0.98709098148E+01 -0.51312351757E+02  0.25439979076E+02  0.58267119706E+02  0.41800000000E+01 0.  1.
        -11    1    1    2    0    0  0.26322672843E+02 -0.19317144077E+02  0.91249683515E+01  0.33901330480E+02  0.00000000000E+00 0.  1.
         11    1    1    2    0    0 -0.65306904020E+02  0.15098786627E+01  0.46769588480E+02  0.80340935101E+02  0.00000000000E+00 0. -1.
</event>
<event>
 7    1  0.2686828E-009  0.8779920E+02  0.7561462E-02  0.1308270E+00
         -2   -1    0    0    0  501 -0.00000000000E+00  0.00000000000E+00  0.12999891894E+03  0.12999891894E+03  0.00000000000E+00 0.  1.
          2   -1    0    0  501    0  0.00000000000E+00 -0.00000000000E+00 -0.11042220232E+03  0.11042220232E+03  0.00000000000E+00 0. -1.
         25    2    1    2    0    0  0.13361397970E+02 -0.46829743688E+02  0.14583586002E+02  0.13502421735E+03  0.12508919394E+03 0.  0.
          5    1    3    3  502    0  0.23284226897E+02  0.31850937202E+02 -0.24379514496E+02  0.46566839595E+02  0.41800000000E+01 0. -1.
         -5    1    3    3    0  502 -0.99228289268E+01 -0.78680680889E+02  0.38963100498E+02  0.88457377756E+02  0.41800000000E+01 0. -1.
        -11    1    1    2    0    0  0.74718154881E+00  0.41376966310E+02  0.45889118258E+02  0.61793387962E+02  0.00000000000E+00 0. -1.
         11    1    1    2    0    0 -0.14108579519E+02  0.54527773780E+01 -0.40895987645E+02  0.43603515944E+02  0.00000000000E+00 0.  1.
</event>
<event>
 7    1  0.2686828E-009  0.3208214E+03  0.7561462E-02  0.1075272E+00
          3   -1    0    0  501    0  0.00000000000E+00  0.00000000000E+00  0.35529583833E+03  0.35529583833E+03  0.00000000000E+00 0. -1.
         -3   -1    0    0    0  501 -0.00000000000E+00 -0.00000000000E+00 -0.30318924480E+03  0.30318924480E+03  0.00000000000E+00 0.  1.
         25    2    1    2    0    0  0.24089106464E+03  0.19400480950E+03  0.20472430918E+02  0.33426624681E+03  0.12509369366E+03 0.  0.
          5    1    3    3  502    0  0.24836506780E+03  0.19949722311E+03  0.30413860558E+02  0.32004191014E+03  0.41800000000E+01 0.  1.
         -5    1    3    3    0  502 -0.74740031561E+01 -0.54924136087E+01 -0.99414296400E+01  0.14224336670E+02  0.41800000000E+01 0.  1.
        -11    1    1    2    0    0 -0.21237203630E+03 -0.14838472115E+03 -0.50110014317E+01  0.25912355626E+03  0.00000000000E+00 0. -1.
         11    1    1    2    0    0 -0.28519028338E+02 -0.45620088350E+02  0.36645164047E+02  0.65095280062E+02  0.00000000000E+00 0.  1.
</event>
<event>
 7    1  0.2686828E-009  0.1044462E+03  0.7561462E-02  0.1271215E+00
          2   -1    0    0  501    0  0.00000000000E+00  0.00000000000E+00  0.43867255922E+03  0.43867255922E+03  0.00000000000E+00 0.  1.
         -2   -1    0    0    0  501 -0.00000000000E+00 -0.00000000000E+00 -0.30977358681E+02  0.30977358681E+02  0.00000000000E+00 0. -1.
         25    2    1    2    0    0 -0.17049745414E+02 -0.12793090494E+02  0.18595965550E+03  0.22512701592E+03  0.12508726090E+03 0.  0.
          5    1    3    3  502    0 -0.28847399901E+02  0.51477307230E+02  0.10953380403E+03  0.12448779967E+03  0.41800000000E+01 0.  1.
         -5    1    3    3    0  502  0.11797654487E+02 -0.64270397723E+02  0.76425851464E+02  0.10063921625E+03  0.41800000000E+01 0.  1.
        -11    1    1    2    0    0 -0.62981384296E+01  0.44465582011E+02  0.45433115150E+02  0.63882880989E+02  0.00000000000E+00 0. -1.
         11    1    1    2    0    0  0.23347883844E+02 -0.31672491518E+02  0.17630242989E+03  0.18064002099E+03  0.00000000000E+00 0.  1.
</event>
<event>
 7    1  0.2686828E-009  0.1440066E+03  0.7561462E-02  0.1208037E+00
          1   -1    0    0  501    0  0.00000000000E+00  0.00000000000E+00  0.72699161147E+03  0.72699161147E+03  0.00000000000E+00 0. -1.
         -1   -1    0    0    0  501 -0.00000000000E+00 -0.00000000000E+00 -0.37752825431E+02  0.37752825431E+02  0.00000000000E+00 0.  1.
         25    2    1    2    0    0  0.33464880306E+02 -0.11059506059E+03  0.25972315067E+03  0.31057113913E+03  0.12508857592E+03 0.  0.
          5    1    3    3  502    0 -0.30405839065E+02  0.66867811236E+01  0.84984832492E+02  0.90604206551E+02  0.41800000000E+01 0.  1.
         -5    1    3    3    0  502  0.63870719371E+02 -0.11728184172E+03  0.17473831818E+03  0.21996693258E+03  0.41800000000E+01 0.  1.
        -11    1    1    2    0    0 -0.43618895368E+02  0.87931681369E+02  0.41262607369E+03  0.42414014819E+03  0.00000000000E+00 0.  1.
         11    1    1    2    0    0  0.10154015062E+02  0.22663379225E+02  0.16889561684E+02  0.30033149579E+02  0.00000000000E+00 0. -1.
</event>
<event>
 7    1  0.2686828E-009  0.9146509E+02  0.7561462E-02  0.1299342E+00
          3   -1    0    0  501    0  0.00000000000E+00  0.00000000000E+00  0.41603193427E+03  0.41603193427E+03  0.00000000000E+00 0. -1.
         -3   -1    0    0    0  501 -0.00000000000E+00 -0.00000000000E+00 -0.39884764108E+02  0.39884764108E+02  0.00000000000E+00 0.  1.
         25    2    1    2    0    0  0.36873778786E+01  0.24769982337E+02  0.32298568832E+03  0.34726530627E+03  0.12508512819E+03 0.  0.
          5    1    3    3  502    0  0.23894549861E+02 -0.46456113808E+02  0.11275094617E+03  0.12433570801E+03  0.41800000000E+01 0.  1.
         -5    1    3    3    0  502 -0.20207171983E+02  0.71226096145E+02  0.21023474215E+03  0.22292959826E+03  0.41800000000E+01 0.  1.
        -11    1    1    2    0    0 -0.12394540834E+02 -0.38312293277E+02  0.72837949800E+02  0.83227539852E+02  0.00000000000E+00 0. -1.
         11    1    1    2    0    0  0.87071629556E+01  0.13542310940E+02 -0.19676467962E+02  0.25423852261E+02  0.00000000000E+00 0.  1.
</event>
<event>
 7    1  0.2686828E-009  0.1316480E+03  0.7561462E-02  0.1225031E+00
          2   -1    0    0  501    0  0.00000000000E+00  0.00000000000E+00  0.28188345681E+02  0.28188345681E+02  0.00000000000E+00 0. -1.
         -2   -1    0    0    0  501 -0.00000000000E+00 -0.00000000000E+00 -0.74731188160E+03  0.74731188160E+03  0.00000000000E+00 0.  1.
         25    2    1    2    0    0  0.46502502471E+02  0.72519620160E+02 -0.51039682134E+03  0.53251594589E+03  0.12508692717E+03 0.  0.
          5    1    3    3  502    0 -0.17261186616E+02 -0.23582431985E+02 -0.18318021696E+03  0.18554391380E+03  0.41800000000E+01 0.  1.
         -5    1    3    3    0  502  0.63763689087E+02  0.96102052144E+02 -0.32721660438E+03  0.34697203209E+03  0.41800000000E+01 0.  1.
        -11    1    1    2    0    0  0.17066723716E+01 -0.70074523164E+02 -0.15857341636E+03  0.17337496908E+03  0.00000000000E+00 0. -1.
         11    1    1    2    0    0 -0.48209174842E+02 -0.24450969954E+01 -0.50153298219E+02  0.69609312312E+02  0.00000000000E+00 0.  1.
</event>
<event>
 7    1  0.2686828E-009  0.1039428E+03  0.7561462E-02  0.1272217E+00
         -2   -1    0    0    0  501 -0.00000000000E+00  0.00000000000E+00  0.43136909234E+02  0.43136909234E+02  0.00000000000E+00 0.  1.
          2   -1    0    0  501    0  0.00000000000E+00 -0.00000000000E+00 -0.34692713223E+03  0.34692713223E+03  0.00000000000E+00 0. -1.
         25    2    1    2    0    0 -0.44334429663E+02 -0.32990411540E+02 -0.17224520674E+03  0.21993451150E+03  0.12509544035E+03 0.  0.
          5    1    3    3  502    0  0.17712694168E+02 -0.48025279996E+02 -0.20581999536E+02  0.55328637777E+02  0.41800000000E+01 0.  1.
         -5    1    3    3    0  502 -0.62047123831E+02  0.15034868456E+02 -0.15166320720E+03  0.16460587372E+03  0.41800000000E+01 0.  1.
        -11    1    1    2    0    0 -0.38729518471E+01 -0.20312945261E+02 -0.77487975587E+02  0.80199762230E+02  0.00000000000E+00 0. -1.
         11    1    1    2    0    0  0.48207381510E+02  0.53303356801E+02 -0.54057040666E+02  0.89929767730E+02  0.00000000000E+00 0.  1.
</event>
<event>
 7    1  0.2686828E-009  0.1850524E+03  0.7561462E-02  0.1163001E+00
         -1   -1    0    0    0  501 -0.00000000000E+00  0.00000000000E+00  0.30344333533E+02  0.30344333533E+02  0.00000000000E+00 0.  1.
          1   -1    0    0  501    0  0.00000000000E+00 -0.00000000000E+00 -0.15200062182E+04  0.15200062182E+04  0.00000000000E+00 0. -1.
         25    2    1    2    0    0 -0.53198486943E+02  0.15604418431E+03 -0.10735613785E+04  0.10933262173E+04  0.12509323519E+03 0.  0.
          5    1    3    3  502    0 -0.43180374854E+02  0.31744683005E+01 -0.12244295575E+03  0.12993987777E+03  0.41800000000E+01 0. -1.
         -5    1    3    3    0  502 -0.10018112089E+02  0.15286971601E+03 -0.95111842280E+03  0.96338633955E+03  0.41800000000E+01 0. -1.
        -11    1    1    2    0    0  0.45293841712E+02 -0.51804641092E+02 -0.82518693474E+02  0.10744574309E+03  0.00000000000E+00 0.  1.
         11    1    1    2    0    0  0.79046452309E+01 -0.10423954322E+03 -0.33358181264E+03  0.34957859132E+03  0.00000000000E+00 0. -1.
</event>
<event>
 7    1  0.2686828E-009  0.9208874E+02  0.7561462E-02  0.1297871E+00
         -2   -1    0    0    0  501 -0.00000000000E+00  0.00000000000E+00  0.11722060673E+02  0.11722060673E+02  0.00000000000E+00 0.  1.
          2   -1    0    0  501    0  0.00000000000E+00 -0.00000000000E+00 -0.99174724469E+03  0.99174724469E+03  0.00000000000E+00 0. -1.
         25    2    1    2    0    0 -0.26861724327E+01  0.16041935360E+02 -0.55992625619E+03  0.57395995576E+03  0.12509220291E+03 0.  0.
          5    1    3    3  502    0  0.18213695636E+02  0.52080117738E+02 -0.12111232059E+03  0.13315308472E+03  0.41800000000E+01 0.  1.
         -5    1    3    3    0  502 -0.20899868069E+02 -0.36038182378E+02 -0.43881393560E+03  0.44080687104E+03  0.41800000000E+01 0.  1.
        -11    1    1    2    0    0  0.40596966154E+02  0.89472540301E+01 -0.15151952400E+03  0.15711885046E+03  0.00000000000E+00 0.  1.
         11    1    1    2    0    0 -0.37910793721E+02 -0.24989189390E+02 -0.26857940382E+03  0.27239049915E+03  0.00000000000E+00 0. -1.
</event>
<event>
 7    1  0.2740979E-009  0.1038182E+03  0.7561462E-02  0.1272466E+00
          2   -1    0    0  501    0  0.00000000000E+00  0.00000000000E+00  0.71249144247E+03  0.71249144247E+03  0.00000000000E+00 0.  1.
         -2   -1    0    0    0  501 -0.00000000000E+00 -0.00000000000E+00 -0.22775135191E+02  0.22775135191E+02  0.00000000000E+00 0. -1.
         25    2    1    2    0    0  0.57071970958E+02  0.33021505213E+02  0.40330269758E+03  0.42737529931E+03  0.12509576695E+03 0.  0.
          5    1    3    3  502    0  0.14620915251E+02 -0.31145795462E+02  0.28904632441E+02  0.45130720295E+02  0.41800000000E+01 0. -1.
         -5    1    3    3    0  502  0.42451055706E+02  0.64167300675E+02  0.37439806514E+03  0.38224457902E+03  0.41800000000E+01 0. -1.
        -11    1    1    2    0    0 -0.72341708148E+02 -0.35284634806E+02  0.27971326195E+03  0.29106328711E+03  0.00000000000E+00 0.  1.
         11    1    1    2    0    0  0.15269737190E+02  0.22631295935E+01  0.67003477521E+01  0.16827991247E+02  0.00000000000E+00 0. -1.
</event>
<event>
 7    1  0.2686828E-009  0.2225098E+03  0.7561462E-02  0.1132026E+00
          1   -1    0    0  501    0  0.00000000000E+00  0.00000000000E+00  0.12301433593E+04  0.12301433593E+04  0.00000000000E+00 0. -1.
         -1   -1    0    0    0  501 -0.00000000000E+00 -0.00000000000E+00 -0.55640351923E+02  0.55640351923E+02  0.00000000000E+00 0.  1.
         25    2    1    2    0    0 -0.31793649762E+02 -0.19619447540E+03  0.92403232972E+03  0.95340858977E+03  0.12509630021E+03 0.  0.
          5    1    3    3  502    0 -0.58562110829E+02 -0.19293392451E+03  0.86752647938E+03  0.89065856807E+03  0.41800000000E+01 0. -1.
         -5    1    3    3    0  502  0.26768461066E+02 -0.32605508905E+01  0.56505850342E+02  0.62750021696E+02  0.41800000000E+01 0. -1.
        -11    1    1    2    0    0  0.61109697236E+02  0.12839886874E+03  0.14050493836E+03  0.19990573352E+03  0.00000000000E+00 0.  1.
         11    1    1    2    0    0 -0.29316047473E+02  0.67795606659E+02  0.10996573929E+03  0.13246938793E+03  0.00000000000E+00 0. -1.
</event>
<event>
 7    1  0.2686828E-009  0.1378301E+03  0.7561462E-02  0.1216279E+00
          1   -1    0    0  501    0  0.00000000000E+00  0.00000000000E+00  0.49649876970E+03  0.49649876970E+03  0.00000000000E+00 0. -1.
         -1   -1    0    0    0  501 -0.00000000000E+00 -0.00000000000E+00 -0.53429457847E+02  0.53429457847E+02  0.00000000000E+00 0.  1.
         25    2    1    2    0    0 -0.10618764523E+03  0.12851000876E+02  0.39080474673E+03  0.42404854870E+03  0.12509139603E+03 0.  0.
          5    1    3    3  502    0  0.13570719867E+01  0.50129866904E+02  0.10706533735E+03  0.11830175004E+03  0.41800000000E+01 0.  1.
         -5    1    3    3    0  502 -0.10754471721E+03 -0.37278866028E+02  0.28373940939E+03  0.30574679866E+03  0.41800000000E+01 0.  1.
        -11    1    1    2    0    0  0.55408985895E+02  0.90413705332E+01  0.40814289655E+02  0.69409713579E+02  0.00000000000E+00 0.  1.
         11    1    1    2    0    0  0.50778659332E+02 -0.21892371409E+02  0.11450275465E+02  0.56469965271E+02  0.00000000000E+00 0. -1.
</event>
<event>
 7    1  0.2686828E-009  0.1022808E+03  0.7561462E-02  0.1275572E+00
          2   -1    0    0  501    0  0.00000000000E+00  0.00000000000E+00  0.36134914527E+03  0.36134914527E+03  0.00000000000E+00 0. -1.
         -2   -1    0    0    0  501 -0.00000000000E+00 -0.00000000000E+00 -0.43071247167E+02  0.43071247167E+02  0.00000000000E+00 0.  1.
         25    2    1    2    0    0  0.19147980403E+02  0.21531231047E+02  0.89558971716E+02  0.15652263782E+03  0.12509311601E+03 0.  0.
          5    1    3    3  502    0  0.27664210561E+02  0.70984107312E+02  0.41221262618E+02  0.86722067137E+02  0.41800000000E+01 0. -1.
         -5    1    3    3    0  502 -0.85162301572E+01 -0.49452876265E+02  0.48337709098E+02  0.69800570685E+02  0.41800000000E+01 0. -1.
        -11    1    1    2    0    0  0.39113630944E+01 -0.44904518143E+02  0.19754582917E+03  0.20262297286E+03  0.00000000000E+00 0. -1.
         11    1    1    2    0    0 -0.23059343498E+02  0.23373287096E+02  0.31173097219E+02  0.45274781750E+02  0.00000000000E+00 0.  1.
</event>
<event>
 7    1  0.2686828E-009  0.1263009E+03  0.7561462E-02  0.1233050E+00
          1   -1    0    0  501    0  0.00000000000E+00  0.00000000000E+00  0.50312857809E+03  0.50312857809E+03  0.00000000000E+00 0. -1.
         -1   -1    0    0    0  501 -0.00000000000E+00 -0.00000000000E+00 -0.53937377018E+02  0.53937377018E+02  0.00000000000E+00 0.  1.
         25    2    1    2    0    0 -0.18919983120E+02 -0.10192036292E+03  0.12631542848E+03  0.20578958768E+03  0.12509212919E+03 0.  0.
          5    1    3    3  502    0  0.20966142643E+02 -0.49801661000E+02 -0.93764504546E+01  0.55001589057E+02  0.41800000000E+01 0. -1.
         -5    1    3    3    0  502 -0.39886125763E+02 -0.52118701924E+02  0.13569187894E+03  0.15078799862E+03  0.41800000000E+01 0. -1.
        -11    1    1    2    0    0 -0.27161295377E+02  0.73846178841E+02  0.23829450112E+03  0.25094872656E+03  0.00000000000E+00 0.  1.
         11    1    1    2    0    0  0.46081278497E+02  0.28074184084E+02  0.84581271465E+02  0.10032764087E+03  0.00000000000E+00 0. -1.
</event>
<event>
 7    1  0.2686828E-009  0.1873096E+03  0.7561462E-02  0.1160911E+00
         -3   -1    0    0    0  501 -0.00000000000E+00  0.00000000000E+00  0.52396654431E+03  0.52396654431E+03  0.00000000000E+00 0.  1.
          3   -1    0    0  501    0  0.00000000000E+00 -0.00000000000E+00 -0.10095473861E+03  0.10095473861E+03  0.00000000000E+00 0. -1.
         25    2    1    2    0    0  0.13130295263E+02  0.17893397838E+03  0.91131432605E+02  0.23694389359E+03  0.12509075678E+03 0.  0.
          5    1    3    3  502    0  0.20117508570E+02  0.18270502873E+03  0.44110140131E+02  0.18907410859E+03  0.41800000000E+01 0.  1.
         -5    1    3    3    0  502 -0.69872133068E+01 -0.37710503586E+01  0.47021292475E+02  0.47869785007E+02  0.41800000000E+01 0.  1.
        -11    1    1    2    0    0  0.78496318569E+01 -0.93033828218E+02  0.25227869350E+03  0.26900083477E+03  0.00000000000E+00 0.  1.
         11    1    1    2    0    0 -0.20979927120E+02 -0.85900150157E+02  0.79601679601E+02  0.11897655456E+03  0.00000000000E+00 0. -1.
</event>
<event>
 7    1  0.2686828E-009  0.1326813E+03  0.7561462E-02  0.1223531E+00
         -2   -1    0    0    0  501 -0.00000000000E+00  0.00000000000E+00  0.38260870994E+02  0.38260870994E+02  0.00000000000E+00 0. -1.
          2   -1    0    0  501    0  0.00000000000E+00 -0.00000000000E+00 -0.88024906609E+03  0.88024906609E+03  0.00000000000E+00 0.  1.
         25    2    1    2    0    0 -0.80401487029E+02 -0.92416206297E+02 -0.64774021309E+03  0.67098464061E+03  0.12509136650E+03 0.  0.
          5    1    3    3  502    0 -0.60982874727E+02 -0.89469572120E+02 -0.64055787598E+03  0.64965804869E+03  0.41800000000E+01 0.  1.
         -5    1    3    3    0  502 -0.19418612302E+02 -0.29466341778E+01 -0.71823371172E+01  0.21326591926E+02  0.41800000000E+01 0.  1.
        -11    1    1    2    0    0  0.13280536557E+02 -0.84691957341E+01  0.29962834249E+01  0.16033640946E+02  0.00000000000E+00 0. -1.
         11    1    1    2    0    0  0.67120950472E+02  0.10088540203E+03 -0.19724426543E+03  0.23149165553E+03  0.00000000000E+00 0.  1.
</event>
<event>
 7    1  0.2686828E-009  0.1500228E+03  0.7561462E-02  0.1200445E+00
          1   -1    0    0  501    0  0.00000000000E+00  0.00000000000E+00  0.76975920666E+03  0.76975920666E+03  0.00000000000E+00 0. -1.
         -1   -1    0    0    0  501 -0.00000000000E+00 -0.00000000000E+00 -0.41106865118E+02  0.41106865118E+02  0.00000000000E+00 0.  1.
         25    2    1    2    0    0 -0.74358147122E+02 -0.96997587387E+02  0.51620930141E+03  0.54502946493E+03  0.12508960302E+03 0.  0.
          5    1    3    3  502    0 -0.35640933930E+02  0.26499624751E+02  0.11084138162E+03  0.11948133981E+03  0.41800000000E+01 0.  1.
         -5    1    3    3    0  502 -0.38717213191E+02 -0.12349721214E+03  0.40536791978E+03  0.42554812512E+03  0.41800000000E+01 0.  1.
        -11    1    1    2    0    0  0.42298488555E+02  0.30580982586E+02  0.17599564705E+03  0.18357240100E+03  0.00000000000E+00 0. -1.
         11    1    1    2    0    0  0.32059658567E+02  0.66416604800E+02  0.36447393093E+02  0.82264205849E+02  0.00000000000E+00 0.  1.
</event>
<event>
 7    1  0.2686828E-009  0.1045790E+03  0.7561462E-02  0.1270951E+00
          1   -1    0    0  501    0  0.00000000000E+00  0.00000000000E+00  0.34007486494E+02  0.34007486494E+02  0.00000000000E+00 0. -1.
         -1   -1    0    0    0  501 -0.00000000000E+00 -0.00000000000E+00 -0.37839179499E+03  0.37839179499E+03  0.00000000000E+00 0.  1.
         25    2    1    2    0    0 -0.92777305347E+01 -0.30894020261E+02 -0.17802379573E+03  0.21995702441E+03  0.12509238174E+03 0.  0.
          5    1    3    3  502    0 -0.61344747427E+02 -0.18524362524E+02 -0.50827286870E+02  0.81897591750E+02  0.41800000000E+01 0.  1.
         -5    1    3    3    0  502  0.52067016892E+02 -0.12369657737E+02 -0.12719650886E+03  0.13805943266E+03  0.41800000000E+01 0.  1.
        -11    1    1    2    0    0 -0.60428945453E+01  0.58969511530E+02 -0.74704119782E+02  0.95365745302E+02  0.00000000000E+00 0.  1.
         11    1    1    2    0    0  0.15320625080E+02 -0.28075491268E+02 -0.91656392982E+02  0.97076511769E+02  0.00000000000E+00 0. -1.
</event>
<event>
 7    1  0.2686828E-009  0.1350511E+03  0.7561462E-02  0.1220148E+00
         -3   -1    0    0    0  501 -0.00000000000E+00  0.00000000000E+00  0.38421203498E+03  0.38421203498E+03  0.00000000000E+00 0.  1.
          3   -1    0    0  501    0  0.00000000000E+00 -0.00000000000E+00 -0.67943557202E+02  0.67943557202E+02  0.00000000000E+00 0. -1.
         25    2    1    2    0    0  0.11296871441E+03 -0.78131439046E+01  0.21993864916E+03  0.27720563954E+03  0.12508789527E+03 0.  0.
          5    1    3    3  502    0  0.41913503495E+02  0.36186890167E+02  0.17611709925E+02  0.58256995474E+02  0.41800000000E+01 0.  1.
         -5    1    3    3    0  502  0.71055210914E+02 -0.44000034071E+02  0.20232693924E+03  0.21894864406E+03  0.41800000000E+01 0.  1.
        -11    1    1    2    0    0 -0.72448745780E+02 -0.27153221208E+02  0.93491004746E+02  0.12135355848E+03  0.00000000000E+00 0.  1.
         11    1    1    2    0    0 -0.40519968629E+02  0.34966365113E+02  0.28388238730E+01  0.53596394169E+02  0.00000000000E+00 0. -1.
</event>
<event>
 7    1  0.2686828E-009  0.2044609E+03  0.7561462E-02  0.1146029E+00
          1   -1    0    0  501    0  0.00000000000E+00  0.00000000000E+00  0.43169656484E+02  0.43169656484E+02  0.00000000000E+00 0. -1.
         -1   -1    0    0    0  501 -0.00000000000E+00 -0.00000000000E+00 -0.14372646798E+04  0.14372646798E+04  0.00000000000E+00 0.  1.
         25    2    1    2    0    0  0.38152681515E+01  0.19376682593E+03 -0.10537967792E+04  0.10787471948E+04  0.12509084492E+03 0.  0.
          5    1    3    3  502    0  0.46693806173E+02  0.10642306608E+03 -0.76935703849E+03  0.77809633439E+03  0.41800000000E+01 0. -1.
         -5    1    3    3    0  502 -0.42878538021E+02  0.87343759843E+02 -0.28443974069E+03  0.30065086045E+03  0.41800000000E+01 0. -1.
        -11    1    1    2    0    0  0.88867613586E+01 -0.41326399984E+02 -0.20058698905E+02  0.46788858341E+02  0.00000000000E+00 0. -1.
         11    1    1    2    0    0 -0.12702029510E+02 -0.15244042594E+03 -0.32023954525E+03  0.35489828311E+03  0.00000000000E+00 0.  1.
</event>
<event>
 7    1  0.2686828E-009  0.9977375E+02  0.7561462E-02  0.1280772E+00
         -2   -1    0    0    0  501 -0.00000000000E+00  0.00000000000E+00  0.14254151341E+03  0.14254151341E+03  0.00000000000E+00 0. -1.
          2   -1    0    0  501    0  0.00000000000E+00 -0.00000000000E+00 -0.12861171218E+03  0.12861171218E+03  0.00000000000E+00 0.  1.
         25    2    1    2    0    0 -0.11893925936E+02 -0.71029063990E+02  0.45210332580E+02  0.15125944765E+03  0.12509537532E+03 0.  0.
          5    1    3    3  502    0  0.21024973744E+01 -0.68890883948E+02  0.84595594695E+02  0.10919826660E+03  0.41800000000E+01 0.  1.
         -5    1    3    3    0  502 -0.13996423310E+02 -0.21381800416E+01 -0.39385262115E+02  0.42061181049E+02  0.41800000000E+01 0.  1.
        -11    1    1    2    0    0 -0.21565763039E+01 -0.21770855684E+02 -0.54233815533E+01  0.22539610601E+02  0.00000000000E+00 0.  1.
         11    1    1    2    0    0  0.14050502240E+02  0.92799919674E+02 -0.25857149795E+02  0.97354167349E+02  0.00000000000E+00 0. -1.
</event>
<event>
 7    1  0.2686828E-009  0.1189325E+03  0.7561462E-02  0.1244869E+00
         -1   -1    0    0    0  501 -0.00000000000E+00  0.00000000000E+00  0.22580198464E+02  0.22580198464E+02  0.00000000000E+00 0.  1.
          1   -1    0    0  501    0  0.00000000000E+00 -0.00000000000E+00 -0.92950389048E+03  0.92950389048E+03  0.00000000000E+00 0. -1.
         25    2    1    2    0    0  0.88504451119E+02  0.25378870020E+02 -0.58204917103E+03  0.60241701275E+03  0.12509154583E+03 0.  0.
          5    1    3    3  502    0  0.95832817010E+02  0.18167574472E+02 -0.58314813966E+03  0.59126408209E+03  0.41800000000E+01 0.  1.
         -5    1    3    3    0  502 -0.73283658909E+01  0.72112955479E+01  0.10989686353E+01  0.11152930654E+02  0.41800000000E+01 0.  1.
        -11    1    1    2    0    0 -0.78918396923E+02  0.21091633506E+02 -0.21434095458E+03  0.22937963115E+03  0.00000000000E+00 0. -1.
         11    1    1    2    0    0 -0.95860541963E+01 -0.46470503527E+02 -0.11053356641E+03  0.12028744505E+03  0.00000000000E+00 0.  1.
</event>
<event>
 7    1  0.2686828E-009  0.1034087E+03  0.7561462E-02  0.1273287E+00
         -3   -1    0    0    0  501 -0.00000000000E+00  0.00000000000E+00  0.25143513409E+02  0.25143513409E+02  0.00000000000E+00 0.  1.
          3   -1    0    0  501    0  0.00000000000E+00 -0.00000000000E+00 -0.99430854179E+03  0.99430854179E+03  0.00000000000E+00 0. -1.
         25    2    1    2    0    0 -0.62417665033E+02  0.40152782419E+01 -0.82898059922E+03  0.84069499965E+03  0.12508861338E+03 0.  0.
          5    1    3    3  502    0  0.52883238898E+01 -0.42662188207E+02 -0.48821555916E+03  0.49012236562E+03  0.41800000000E+01 0. -1.
         -5    1    3    3    0  502 -0.67705988923E+02  0.46677466448E+02 -0.34076504005E+03  0.35057263403E+03  0.41800000000E+01 0. -1.
        -11    1    1    2    0    0  0.29275136775E+01 -0.19574118408E+02 -0.10713374691E+03  0.10894657486E+03  0.00000000000E+00 0. -1.
         11    1    1    2    0    0  0.59490151355E+02  0.15558840166E+02 -0.33050682258E+02  0.69810480684E+02  0.00000000000E+00 0.  1.
</event>
<event>
 7    1  0.2997721E-009  0.2786801E+03  0.7561462E-02  0.1096412E+00
         -1   -1    0    0    0  501 -0.00000000000E+00  0.00000000000E+00  0.18116814591E+03  0.18116814591E+03  0.00000000000E+00 0.  1.
          1   -1    0    0  501    0  0.00000000000E+00 -0.00000000000E+00 -0.76113648347E+03  0.76113648347E+03  0.00000000000E+00 0. -1.
         25    2    1    2    0    0 -0.98810726296E+02  0.25486061708E+03 -0.58110975295E+03  0.65425722241E+03  0.12508586781E+03 0.  0.
          5    1    3    3  502    0 -0.88135312333E+02  0.18801394523E+03 -0.53028059265E+03  0.56950158580E+03  0.41800000000E+01 0. -1.
         -5    1    3    3    0  502 -0.10675413962E+02  0.66846671849E+02 -0.50829160301E+02  0.84755636612E+02  0.41800000000E+01 0. -1.
        -11    1    1    2    0    0  0.25631398735E+02 -0.16000885893E+03  0.30043486952E+02  0.16481023829E+03  0.00000000000E+00 0.  1.
         11    1    1    2    0    0  0.73179327561E+02 -0.94851758144E+02 -0.28902071555E+02  0.12323716868E+03  0.00000000000E+00 0. -1.
</event>
<event>
 7    1  0.2686828E-009  0.1072539E+03  0.7561462E-02  0.1265741E+00
          4   -1    0    0  501    0  0.00000000000E+00  0.00000000000E+00  0.40485844872E+02  0.40485844872E+02  0.00000000000E+00 0. -1.
         -4   -1    0    0    0  501 -0.00000000000E+00 -0.00000000000E+00 -0.38065896277E+03  0.38065896277E+03  0.00000000000E+00 0.  1.
         25    2    1    2    0    0 -0.53696140515E+02 -0.16610404472E+02 -0.22404167742E+03  0.26268069914E+03  0.12508914994E+03 0.  0.
          5    1    3    3  502    0  0.30668434520E+02  0.26858842997E+02 -0.52608544925E+02  0.66686443316E+02  0.41800000000E+01 0. -1.
         -5    1    3    3    0  502 -0.84364575035E+02 -0.43469247469E+02 -0.17143313250E+03  0.19599425582E+03  0.41800000000E+01 0. -1.
        -11    1    1    2    0    0  0.32498632914E+02  0.36911419081E+02 -0.11920651019E+03  0.12895272805E+03  0.00000000000E+00 0.  1.
         11    1    1    2    0    0  0.21197507601E+02 -0.20301014610E+02  0.30750697153E+01  0.29511380456E+02  0.00000000000E+00 0. -1.
</event>
<event>
 7    1  0.2686828E-009  0.1892729E+03  0.7561462E-02  0.1159119E+00
          1   -1    0    0  501    0  0.00000000000E+00  0.00000000000E+00  0.16787470886E+03  0.16787470886E+03  0.00000000000E+00 0. -1.
         -1   -1    0    0    0  501 -0.00000000000E+00 -0.00000000000E+00 -0.31576155313E+03  0.31576155313E+03  0.00000000000E+00 0.  1.
         25    2    1    2    0    0  0.42657183264E+02  0.17028541082E+03  0.30665982152E+02  0.21772490308E+03  0.12508786727E+03 0.  0.
          5    1    3    3  502    0  0.65983206681E+02  0.15985945940E+03  0.55673101433E+02  0.18173001113E+03  0.41800000000E+01 0.  1.
         -5    1    3    3    0  502 -0.23326023418E+02  0.10425951422E+02 -0.25007119281E+02  0.35994891947E+02  0.41800000000E+01 0.  1.
        -11    1    1    2    0    0  0.46694569277E+01 -0.52774395773E+02 -0.81907775210E+01  0.53609975877E+02  0.00000000000E+00 0. -1.
         11    1    1    2    0    0 -0.47326640191E+02 -0.11751101505E+03 -0.17036204890E+03  0.21230138303E+03  0.00000000000E+00 0.  1.
</event>
<event>
 7    1  0.2686828E-009  0.1131933E+03  0.7561462E-02  0.1254768E+00
          3   -1    0    0  501    0  0.00000000000E+00  0.00000000000E+00  0.70643167302E+02  0.70643167302E+02  0.00000000000E+00 0. -1.
         -3   -1    0    0    0  501 -0.00000000000E+00 -0.00000000000E+00 -0.35128492730E+03  0.35128492730E+03  0.00000000000E+00 0.  1.
         25    2    1    2    0    0 -0.11306517175E+02 -0.85580713061E+02 -0.25129401875E+03  0.29368100813E+03  0.12509178590E+03 0.  0.
          5    1    3    3  502    0  0.20785890430E+02 -0.57498079826E+02 -0.24225896269E+03  0.24988989541E+03  0.41800000000E+01 0. -1.
         -5    1    3    3    0  502 -0.32092407605E+02 -0.28082633234E+02 -0.90350560578E+01  0.43791112720E+02  0.41800000000E+01 0. -1.
        -11    1    1    2    0    0 -0.17399675948E+02  0.91335222208E+02 -0.10833113450E+02  0.93606772650E+02  0.00000000000E+00 0. -1.
         11    1    1    2    0    0  0.28706193123E+02 -0.57545091469E+01 -0.18514627801E+02  0.34640313823E+02  0.00000000000E+00 0.  1.
</event>
<event>
 7    1  0.2686828E-009  0.3193210E+03  0.7561462E-02  0.1075962E+00
         -1   -1    0    0    0  501 -0.00000000000E+00  0.00000000000E+00  0.21863329089E+03  0.21863329089E+03  0.00000000000E+00 0.  1.
          1   -1    0    0  501    0  0.00000000000E+00 -0.00000000000E+00 -0.68966227302E+03  0.68966227302E+03  0.00000000000E+00 0. -1.
         25    2    1    2    0    0 -0.25503241997E+03 -0.17023346647E+03 -0.48510986176E+03  0.58736762699E+03  0.12509269727E+03 0.  0.
          5    1    3    3  502    0  0.55627576696E+01 -0.38497206454E+02 -0.58931858733E+02  0.70734825591E+02  0.41800000000E+01 0. -1.
         -5    1    3    3    0  502 -0.26059517764E+03 -0.13173626002E+03 -0.42617800303E+03  0.51663280140E+03  0.41800000000E+01 0. -1.
        -11    1    1    2    0    0  0.71449512353E+02  0.60415535966E+02 -0.37618142332E+02  0.10084738189E+03  0.00000000000E+00 0.  1.
         11    1    1    2    0    0  0.18358290762E+03  0.10981793051E+03  0.51699021963E+02  0.22008055503E+03  0.00000000000E+00 0. -1.
</event>
<event>
 7    1  0.2686828E-009  0.8146109E+02  0.7561462E-02  0.1324955E+00
         -1   -1    0    0    0  501 -0.00000000000E+00  0.00000000000E+00  0.27417352019E+03  0.27417352019E+03  0.00000000000E+00 0.  1.
          1   -1    0    0  501    0  0.00000000000E+00 -0.00000000000E+00 -0.50516749155E+02  0.50516749155E+02  0.00000000000E+00 0. -1.
         25    2    1    2    0    0  0.19590409328E+02 -0.38157974016E+02  0.10222126423E+03  0.16714490723E+03  0.12509363706E+03 0.  0.
          5    1    3    3  502    0  0.12242464687E+02  0.13884279677E+02 -0.23858262034E+02  0.30485082106E+02  0.41800000000E+01 0. -1.
         -5    1    3    3    0  502  0.73479446407E+01 -0.52042253693E+02  0.12607952626E+03  0.13665982512E+03  0.41800000000E+01 0. -1.
        -11    1    1    2    0    0 -0.13679260196E+02  0.63623942560E+02  0.11240868402E+03  0.12988779954E+03  0.00000000000E+00 0.  1.
         11    1    1    2    0    0 -0.59111491320E+01 -0.25465968544E+02  0.90268227844E+01  0.27657562574E+02  0.00000000000E+00 0. -1.
</event>
<event>
 7    1  0.2686828E-009  0.1112163E+03  0.7561462E-02  0.1258334E+00
         -1   -1    0    0    0  501 -0.00000000000E+00  0.00000000000E+00  0.32238970098E+02  0.32238970098E+02  0.00000000000E+00 0.  1.
          1   -1    0    0  501    0  0.00000000000E+00 -0.00000000000E+00 -0.46939361576E+03  0.46939361576E+03  0.00000000000E+00 0. -1.
         25    2    1    2    0    0  0.96108810862E+01 -0.51687210054E+02 -0.21564751236E+03  0.25478499285E+03  0.12509039241E+03 0.  0.
          5    1    3    3  502    0  0.64525440011E+02 -0.20743905868E+02 -0.78549449940E+02  0.10383318605E+03  0.41800000000E+01 0.  1.
         -5    1    3    3    0  502 -0.54914558925E+02 -0.30943304186E+02 -0.13709806242E+03  0.15095180680E+03  0.41800000000E+01 0.  1.
        -11    1    1    2    0    0  0.32733796415E+02  0.18878769453E+02 -0.30769254761E+02  0.48730446359E+02  0.00000000000E+00 0.  1.
         11    1    1    2    0    0 -0.42344677501E+02  0.32808440601E+02 -0.19073787854E+03  0.19811714665E+03  0.00000000000E+00 0. -1.
</event>
<event>
 7    1  0.2686828E-009  0.1687399E+03  0.7561462E-02  0.1179168E+00
         -2   -1    0    0    0  501 -0.00000000000E+00  0.00000000000E+00  0.20225242987E+03  0.20225242987E+03  0.00000000000E+00 0.  1.
          2   -1    0    0  501    0  0.00000000000E+00 -0.00000000000E+00 -0.21999702364E+03  0.21999702364E+03  0.00000000000E+00 0. -1.
         25    2    1    2    0    0 -0.63962669066E+01 -0.13241461572E+03  0.11328147590E+03  0.21460843589E+03  0.12509814261E+03 0.  0.
          5    1    3    3  502    0  0.25131252878E+02 -0.14432680341E+03  0.79609327482E+02  0.16678406241E+03  0.41800000000E+01 0. -1.
         -5    1    3    3    0  502 -0.31527519785E+02  0.11912187686E+02  0.33672148417E+02  0.47824373474E+02  0.41800000000E+01 0. -1.
        -11    1    1    2    0    0  0.44426301369E+02  0.54935356820E+02 -0.36087262298E+02  0.79333978739E+02  0.00000000000E+00 0. -1.
         11    1    1    2    0    0 -0.38030034463E+02  0.77479258899E+02 -0.94938807373E+02  0.12830703888E+03  0.00000000000E+00 0.  1.
</event>
<event>
 7    1  0.2686828E-009  0.1050000E+03  0.7561462E-02  0.1270120E+00
         -1   -1    0    0    0  501 -0.00000000000E+00  0.00000000000E+00  0.32614967175E+02  0.32614967175E+02  0.00000000000E+00 0.  1.
          1   -1    0    0  501    0  0.00000000000E+00 -0.00000000000E+00 -0.43831654530E+03  0.43831654530E+03  0.00000000000E+00 0. -1.
         25    2    1    2    0    0  0.29186039686E+02  0.25009776869E+02 -0.24816489089E+03  0.28055402991E+03  0.12508971492E+03 0.  0.
          5    1    3    3  502    0  0.42877015933E+02  0.55076385163E+02 -0.68699208886E+02  0.98024998850E+02  0.41800000000E+01 0. -1.
         -5    1    3    3    0  502 -0.13690976247E+02 -0.30066608294E+02 -0.17946568200E+03  0.18252903106E+03  0.41800000000E+01 0. -1.
        -11    1    1    2    0    0  0.14492287075E+02 -0.52968732732E+02 -0.85440042603E+02  0.10156630303E+03  0.00000000000E+00 0. -1.
         11    1    1    2    0    0 -0.43678326761E+02  0.27958955864E+02 -0.72096644642E+02  0.88811179534E+02  0.00000000000E+00 0.  1.
</event>
<event>
 7    1  0.2686828E-009  0.1062811E+03  0.7561462E-02  0.1267616E+00
          2   -1    0    0  501    0  0.00000000000E+00  0.00000000000E+00  0.49432278375E+03  0.49432278375E+03  0.00000000000E+00 0. -1.
         -2   -1    0    0    0  501 -0.00000000000E+00 -0.00000000000E+00 -0.43236391949E+02  0.43236391949E+02  0.00000000000E+00 0.  1.
         25    2    1    2    0    0 -0.74719467445E+02  0.29793015714E+02  0.35036382749E+03  0.38061997071E+03  0.12508448302E+03 0.  0.
          5    1    3    3  502    0  0.12741047490E+02 -0.23623559848E+02  0.17789499275E+03  0.17995696073E+03  0.41800000000E+01 0. -1.
         -5    1    3    3    0  502 -0.87460514935E+02  0.53416575562E+02  0.17246883474E+03  0.20066300998E+03  0.41800000000E+01 0. -1.
        -11    1    1    2    0    0  0.25046385409E+02 -0.27319169917E+00 -0.13848865023E+02  0.28621445076E+02  0.00000000000E+00 0.  1.
         11    1    1    2    0    0  0.49673082036E+02 -0.29519824015E+02  0.11457142934E+03  0.12831775992E+03  0.00000000000E+00 0. -1.
</event>
<event>
 7    1  0.2686828E-009  0.1069162E+03  0.7561462E-02  0.1266389E+00
         -1   -1    0    0    0  501 -0.00000000000E+00  0.00000000000E+00  0.65405749605E+03  0.65405749605E+03  0.00000000000E+00 0.  1.
          1   -1    0    0  501    0  0.00000000000E+00 -0.00000000000E+00 -0.21127906333E+02  0.21127906333E+02  0.00000000000E+00 0. -1.
         25    2    1    2    0    0 -0.14640283186E+02 -0.41470032122E+02  0.39612237937E+03  0.41772446582E+03  0.12508672373E+03 0.  0.
          5    1    3    3  502    0  0.25023319985E+02 -0.63409160257E+02  0.12171094888E+03  0.13956330329E+03  0.41800000000E+01 0.  1.
         -5    1    3    3    0  502 -0.39663603171E+02  0.21939128135E+02  0.27441143048E+03  0.27816116253E+03  0.41800000000E+01 0.  1.
        -11    1    1    2    0    0  0.42450298017E+02 -0.80648063557E+01  0.84550727391E+02  0.94952063725E+02  0.00000000000E+00 0. -1.
         11    1    1    2    0    0 -0.27810014831E+02  0.49534838478E+02  0.15225648296E+03  0.16250887284E+03  0.00000000000E+00 0.  1.
</event>
<event>
 7    1  0.2686828E-009  0.9524176E+02  0.7561462E-02  0.1290633E+00
         -2   -1    0    0    0  501 -0.00000000000E+00  0.00000000000E+00  0.14534116390E+02  0.14534116390E+02  0.00000000000E+00 0.  1.
          2   -1    0    0  501    0  0.00000000000E+00 -0.00000000000E+00 -0.12477790305E+04  0.12477790305E+04  0.00000000000E+00 0. -1.
         25    2    1    2    0    0  0.24170727724E+02  0.16506549250E+02 -0.10248461885E+04  0.10328670048E+04  0.12509136417E+03 0.  0.
          5    1    3    3  502    0 -0.46807775825E+02  0.30003987747E+02 -0.48373159532E+03  0.48693422130E+03  0.41800000000E+01 0.  1.
         -5    1    3    3    0  502  0.70978503549E+02 -0.13497438497E+02 -0.54111459316E+03  0.54593278354E+03  0.41800000000E+01 0.  1.
        -11    1    1    2    0    0 -0.10255227765E+02 -0.36547094529E+02 -0.20011033275E+03  0.20367868098E+03  0.00000000000E+00 0. -1.
         11    1    1    2    0    0 -0.13915499959E+02  0.20040545280E+02 -0.82883929029E+01  0.25767461092E+02  0.00000000000E+00 0.  1.
</event>
<event>
 7    1  0.2686828E-009  0.1359655E+03  0.7561462E-02  0.1218863E+00
          2   -1    0    0  501    0  0.00000000000E+00  0.00000000000E+00  0.80497414323E+03  0.80497414323E+03  0.00000000000E+00 0. -1.
         -2   -1    0    0    0  501 -0.00000000000E+00 -0.00000000000E+00 -0.26768003761E+02  0.26768003761E+02  0.00000000000E+00 0.  1.
         25    2    1    2    0    0 -0.54083372967E+02  0.83017748079E+02  0.40642847593E+03  0.43663373414E+03  0.12509178238E+03 0.  0.
          5    1    3    3  502    0 -0.13508743556E+02  0.10724517836E+03  0.32334023104E+03  0.34095511706E+03  0.41800000000E+01 0.  1.
         -5    1    3    3    0  502 -0.40574629411E+02 -0.24227430283E+02  0.83088244884E+02  0.95678617088E+02  0.41800000000E+01 0.  1.
        -11    1    1    2    0    0 -0.12340771442E+02 -0.25983597439E+02  0.27223501877E+02  0.39605063187E+02  0.00000000000E+00 0.  1.
         11    1    1    2    0    0  0.66424144409E+02 -0.57034150640E+02  0.34455416167E+03  0.35550334967E+03  0.00000000000E+00 0. -1.
</event>
<event>
 7    1  0.2686828E-009  0.1212998E+03  0.7561462E-02  0.1240968E+00
         -2   -1    0    0    0  501 -0.00000000000E+00  0.00000000000E+00  0.21432140138E+02  0.21432140138E+02  0.00000000000E+00 0.  1.
          2   -1    0    0  501    0  0.00000000000E+00 -0.00000000000E+00 -0.97346875942E+03  0.97346875942E+03  0.00000000000E+00 0. -1.
         25    2    1    2    0    0  0.85442475145E+02  0.33567637111E+02 -0.60950946894E+03  0.62894870069E+03  0.12508985794E+03 0.  0.
          5    1    3    3  502    0  0.10410231038E+03  0.15659385074E+02 -0.29317111889E+03  0.31152734185E+03  0.41800000000E+01 0.  1.
         -5    1    3    3    0  502 -0.18659835233E+02  0.17908252037E+02 -0.31633835005E+03  0.31742135885E+03  0.41800000000E+01 0.  1.
        -11    1    1    2    0    0 -0.41193501842E+02 -0.49152134665E+02 -0.28292256644E+03  0.29010000954E+03  0.00000000000E+00 0. -1.
         11    1    1    2    0    0 -0.44248973302E+02  0.15584497553E+02 -0.59604583907E+02  0.75852189323E+02  0.00000000000E+00 0.  1.
</event>
<event>
 7    1  0.2686828E-009  0.1148888E+03  0.7561462E-02  0.1251775E+00
         -3   -1    0    0    0  501 -0.00000000000E+00  0.00000000000E+00  0.47466913289E+02  0.47466913289E+02  0.00000000000E+00 0.  1.
          3   -1    0    0  501    0  0.00000000000E+00 -0.00000000000E+00 -0.38563443720E+03  0.38563443720E+03  0.00000000000E+00 0. -1.
         25    2    1    2    0    0  0.19863392920E+02 -0.77023233127E+02 -0.23262470235E+03  0.27584353673E+03  0.12509305253E+03 0.  0.
          5    1    3    3  502    0 -0.43311642636E+02 -0.48861343671E+02 -0.17108074550E+03  0.18316501624E+03  0.41800000000E+01 0. -1.
         -5    1    3    3    0  502  0.63175035556E+02 -0.28161889456E+02 -0.61543956845E+02  0.92678520486E+02  0.41800000000E+01 0. -1.
        -11    1    1    2    0    0  0.10388785197E+02 -0.18749902943E+01 -0.60672501719E+02  0.61584047539E+02  0.00000000000E+00 0. -1.
         11    1    1    2    0    0 -0.30252178117E+02  0.78898223421E+02 -0.44870319843E+02  0.95673766220E+02  0.00000000000E+00 0.  1.
</event>
<event>
 7    1  0.2686828E-009  0.1359017E+03  0.7561462E-02  0.1218952E+00
          1   -1    0    0  501    0  0.00000000000E+00  0.00000000000E+00  0.15987333985E+04  0.15987333985E+04  0.00000000000E+00 0. -1.
         -1   -1    0    0    0  501 -0.00000000000E+00 -0.00000000000E+00 -0.20551006353E+02  0.20551006353E+02  0.00000000000E+00 0.  1.
         25    2    1    2    0    0  0.38540843654E+02  0.96500360246E+02  0.12817133693E+04  0.12919885153E+04  0.12508975395E+03 0.  0.
          5    1    3    3  502    0  0.75670741052E+02  0.57651146385E+02  0.10393922038E+04  0.10437448642E+04  0.41800000000E+01 0. -1.
         -5    1    3    3    0  502 -0.37129897398E+02  0.38849213862E+02  0.24232116546E+03  0.24824365113E+03  0.41800000000E+01 0. -1.
        -11    1    1    2    0    0 -0.53581431388E+02 -0.48125108313E+02  0.93063440997E+02  0.11767667522E+03  0.00000000000E+00 0.  1.
         11    1    1    2    0    0  0.15040587734E+02 -0.48375251933E+02  0.20340558184E+03  0.20961921429E+03  0.00000000000E+00 0. -1.
</event>
<event>
 7    1  0.2686828E-009  0.1018580E+03  0.7561462E-02  0.1276437E+00
          3   -1    0    0  501    0  0.00000000000E+00  0.00000000000E+00  0.25010001646E+02  0.25010001646E+02  0.00000000000E+00 0. -1.
         -3   -1    0    0    0  501 -0.00000000000E+00 -0.00000000000E+00 -0.63771044666E+03  0.63771044666E+03  0.00000000000E+00 0.  1.
         25    2    1    2    0    0 -0.20388178393E+02 -0.57487775862E+02 -0.28537915088E+03  0.31750559629E+03  0.12509205302E+03 0.  0.
          5    1    3    3  502    0 -0.24408111552E+02 -0.73847965089E+02 -0.28939156736E+03  0.29969022259E+03  0.41800000000E+01 0. -1.
         -5    1    3    3    0  502  0.40199331591E+01  0.16360189226E+02  0.40124164802E+01  0.17815373702E+02  0.41800000000E+01 0. -1.
        -11    1    1    2    0    0  0.13962682660E+02 -0.23441589592E+02 -0.10660932823E+03  0.11004550647E+03  0.00000000000E+00 0.  1.
         11    1    1    2    0    0  0.64254957329E+01  0.80929365454E+02 -0.22071196591E+03  0.23516934554E+03  0.00000000000E+00 0. -1.
</event>
<event>
 7    1  0.2712831E-009  0.6391786E+02  0.7561462E-02  0.1382089E+00
         -1   -1    0    0    0  501 -0.00000000000E+00  0.00000000000E+00  0.35560354812E+03  0.35560354812E+03  0.00000000000E+00 0.  1.
          1   -1    0    0  501    0  0.00000000000E+00 -0.00000000000E+00 -0.40541599803E+02  0.40541599803E+02  0.00000000000E+00 0. -1.
         25    2    1    2    0    0  0.27802106807E+02 -0.24702683192E+02  0.12039123616E+03  0.17755399496E+03  0.12509273233E+03 0.  0.
          5    1    3    3  502    0  0.19433639543E+02 -0.47550800681E+01 -0.23981569415E+02  0.31509763629E+02  0.41800000000E+01 0. -1.
         -5    1    3    3    0  502  0.83684672641E+01 -0.19947603123E+02  0.14437280557E+03  0.14604423133E+03  0.41800000000E+01 0. -1.
        -11    1    1    2    0    0 -0.54540711564E+02  0.12404604094E+02  0.65605386594E+02  0.86212703071E+02  0.00000000000E+00 0. -1.
         11    1    1    2    0    0  0.26738604757E+02  0.12298079097E+02  0.12906532557E+03  0.13237844990E+03  0.00000000000E+00 0.  1.
</event>
<event>
 7    1  0.2686828E-009  0.1105335E+03  0.7561462E-02  0.1259585E+00
          2   -1    0    0  501    0  0.00000000000E+00  0.00000000000E+00  0.82509233433E+03  0.82509233433E+03  0.00000000000E+00 0. -1.
         -2   -1    0    0    0  501 -0.00000000000E+00 -0.00000000000E+00 -0.30982544763E+02  0.30982544763E+02  0.00000000000E+00 0.  1.
         25    2    1    2    0    0  0.53795614965E+02 -0.62703822843E+02  0.20294704708E+03  0.25231030376E+03  0.12508895985E+03 0.  0.
          5    1    3    3  502    0  0.54415839008E+02 -0.70853648899E+02  0.56958339744E+02  0.10603323990E+03  0.41800000000E+01 0. -1.
         -5    1    3    3    0  502 -0.62022404274E+00  0.81498260563E+01  0.14598870733E+03  0.14627706386E+03  0.41800000000E+01 0. -1.
        -11    1    1    2    0    0 -0.43214899721E+02 -0.13687124404E+02  0.20015294260E+03  0.20522199045E+03  0.00000000000E+00 0.  1.
         11    1    1    2    0    0 -0.10580715244E+02  0.76390947246E+02  0.39100979989E+03  0.39854258488E+03  0.00000000000E+00 0. -1.
</event>
<event>
 7    1  0.2686828E-009  0.8815936E+02  0.7561462E-02  0.1307371E+00
         -2   -1    0    0    0  501 -0.00000000000E+00  0.00000000000E+00  0.99401736288E+01  0.99401736288E+01  0.00000000000E+00 0.  1.
          2   -1    0    0  501    0  0.00000000000E+00 -0.00000000000E+00 -0.16656619780E+04  0.16656619780E+04  0.00000000000E+00 0. -1.
         25    2    1    2    0    0 -0.20252174475E+02 -0.35761227478E+02 -0.12906255334E+04  0.12973247123E+04  0.12509246886E+03 0.  0.
          5    1    3    3  502    0  0.13367005714E+02  0.12232160656E+02 -0.10296947873E+04  0.10298626754E+04  0.41800000000E+01 0.  1.
         -5    1    3    3    0  502 -0.33619180189E+02 -0.47993388134E+02 -0.26093074601E+03  0.26746203693E+03  0.41800000000E+01 0.  1.
        -11    1    1    2    0    0  0.56126826533E+02  0.25616896686E+02 -0.23014862933E+03  0.23827471044E+03  0.00000000000E+00 0.  1.
         11    1    1    2    0    0 -0.35874652058E+02  0.10144330792E+02 -0.13494764169E+03  0.14000272893E+03  0.00000000000E+00 0. -1.
</event>
<event>
 7    1  0.2686828E-009  0.1060150E+03  0.7561462E-02  0.1268133E+00
          1   -1    0    0  501    0  0.00000000000E+00  0.00000000000E+00  0.67012988919E+02  0.67012988919E+02  0.00000000000E+00 0. -1.
         -1   -1    0    0    0  501 -0.00000000000E+00 -0.00000000000E+00 -0.32751047933E+03  0.32751047933E+03  0.00000000000E+00 0.  1.
         25    2    1    2    0    0  0.97591793409E+01  0.89152614076E+02 -0.81985706865E+02  0.17438804923E+03  0.12508439313E+03 0.  0.
          5    1    3    3  502    0  0.93130123038E+01  0.18849645535E+02 -0.99525848751E+02  0.10180819370E+03  0.41800000000E+01 0. -1.
         -5    1    3    3    0  502  0.44616703710E+00  0.70302968541E+02  0.17540141886E+02  0.72579855525E+02  0.41800000000E+01 0. -1.
        -11    1    1    2    0    0 -0.16827341999E+02  0.10779146997E+02 -0.68447764876E+02  0.71305301102E+02  0.00000000000E+00 0.  1.
         11    1    1    2    0    0  0.70681626581E+01 -0.99931761073E+02 -0.11006401867E+03  0.14883011792E+03  0.00000000000E+00 0. -1.
</event>
<event>
 7    1  0.2686828E-009  0.1255998E+03  0.7561462E-02  0.1234135E+00
         -2   -1    0    0    0  501 -0.00000000000E+00  0.00000000000E+00  0.11463524309E+03  0.11463524309E+03  0.00000000000E+00 0.  1.
          2   -1    0    0  501    0  0.00000000000E+00 -0.00000000000E+00 -0.25459480914E+03  0.25459480914E+03  0.00000000000E+00 0. -1.
         25    2    1    2    0    0 -0.78020167032E+02 -0.41580574900E+02  0.32458678664E+02  0.15657988285E+03  0.12509038020E+03 0.  0.
          5    1    3    3  502    0 -0.21855270399E+02  0.29023429455E+02 -0.29557061906E+02  0.47022384138E+02  0.41800000000E+01 0.  1.
         -5    1    3    3    0  502 -0.56164896633E+02 -0.70604004354E+02  0.62015740569E+02  0.10955749871E+03  0.41800000000E+01 0.  1.
        -11    1    1    2    0    0  0.44929265257E+02 -0.23940321685E+02 -0.75858833324E+02  0.91358308173E+02  0.00000000000E+00 0.  1.
         11    1    1    2    0    0  0.33090901774E+02  0.65520896584E+02 -0.96559411389E+02  0.12129186122E+03  0.00000000000E+00 0. -1.
</event>
<event>
 7    1  0.2686828E-009  0.1585977E+03  0.7561462E-02  0.1190289E+00
          2   -1    0    0  501    0  0.00000000000E+00  0.00000000000E+00  0.14759623739E+03  0.14759623739E+03  0.00000000000E+00 0. -1.
         -2   -1    0    0    0  501 -0.00000000000E+00 -0.00000000000E+00 -0.22123370286E+03  0.22123370286E+03  0.00000000000E+00 0.  1.
         25    2    1    2    0    0  0.27131255665E+02  0.13709619507E+03 -0.30840896188E+01  0.18759193582E+03  0.12509896499E+03 0.  0.
          5    1    3    3  502    0 -0.24568655853E+02  0.74219008243E+02  0.47583596400E+02  0.91617416911E+02  0.41800000000E+01 0. -1.
         -5    1    3    3    0  502  0.51699911519E+02  0.62877186825E+02 -0.50667686019E+02  0.95974518913E+02  0.41800000000E+01 0. -1.
        -11    1    1    2    0    0 -0.50173305753E+02 -0.11500295737E+03 -0.78932377551E+02  0.14823414262E+03  0.00000000000E+00 0.  1.
         11    1    1    2    0    0  0.23042050087E+02 -0.22093237698E+02  0.83790017024E+01  0.33003861801E+02  0.00000000000E+00 0. -1.
</event>
<event>
 7    1  0.2686828E-009  0.1134399E+03  0.7561462E-02  0.1254329E+00
         -1   -1    0    0    0  501 -0.00000000000E+00  0.00000000000E+00  0.64144204718E+02  0.64144204718E+02  0.00000000000E+00 0.  1.
          1   -1    0    0  501    0  0.00000000000E+00 -0.00000000000E+00 -0.25175868836E+03  0.25175868836E+03  0.00000000000E+00 0. -1.
         25    2    1    2    0    0  0.11969425494E+02 -0.46621052200E+02 -0.47256136640E+02  0.14212016495E+03  0.12509280227E+03 0.  0.
          5    1    3    3  502    0 -0.32749651386E+02 -0.68401551392E+02 -0.51895170037E+02  0.91988548048E+02  0.41800000000E+01 0.  1.
         -5    1    3    3    0  502  0.44719076880E+02  0.21780499192E+02  0.46390333966E+01  0.50131616899E+02  0.41800000000E+01 0.  1.
        -11    1    1    2    0    0 -0.44853169634E+02  0.11152070764E+01 -0.77085713834E+02  0.89192251852E+02  0.00000000000E+00 0.  1.
         11    1    1    2    0    0  0.32883744140E+02  0.45505845124E+02 -0.63272633166E+02  0.84590476277E+02  0.00000000000E+00 0. -1.
</event>
<event>
 7    1  0.2686828E-009  0.1258649E+03  0.7561462E-02  0.1233724E+00
          2   -1    0    0  501    0  0.00000000000E+00  0.00000000000E+00  0.89367994947E+03  0.89367994947E+03  0.00000000000E+00 0. -1.
         -2   -1    0    0    0  501 -0.00000000000E+00 -0.00000000000E+00 -0.21948296054E+02  0.21948296054E+02  0.00000000000E+00 0.  1.
         25    2    1    2    0    0 -0.54168900301E+02 -0.65182250330E+02  0.43360364552E+03  0.45917613834E+03  0.12509040370E+03 0.  0.
          5    1    3    3  502    0 -0.85151990885E+02 -0.47088542463E+02  0.39273883337E+03  0.40463496639E+03  0.41800000000E+01 0.  1.
         -5    1    3    3    0  502  0.30983090585E+02 -0.18093707867E+02  0.40864812146E+02  0.54541171955E+02  0.41800000000E+01 0.  1.
        -11    1    1    2    0    0 -0.13873407240E+02 -0.97811200811E+01  0.19952075439E+02  0.26195935807E+02  0.00000000000E+00 0.  1.
         11    1    1    2    0    0  0.68042307541E+02  0.74963370411E+02  0.41817593246E+03  0.43025617138E+03  0.00000000000E+00 0. -1.
</event>
<event>
 7    1  0.2686828E-009  0.1410537E+03  0.7561462E-02  0.1211918E+00
         -3   -1    0    0    0  501 -0.00000000000E+00  0.00000000000E+00  0.40826921922E+02  0.40826921922E+02  0.00000000000E+00 0.  1.
          3   -1    0    0  501    0  0.00000000000E+00 -0.00000000000E+00 -0.53179849333E+03  0.53179849333E+03  0.00000000000E+00 0. -1.
         25    2    1    2    0    0 -0.79932337201E+02  0.57521278748E+02 -0.21700224876E+03  0.26912877314E+03  0.12506975863E+03 0.  0.
          5    1    3    3  502    0 -0.10692222438E+02  0.84024740816E+02 -0.11038522429E+03  0.13920075730E+03  0.41800000000E+01 0. -1.
         -5    1    3    3    0  502 -0.69240114763E+02 -0.26503462069E+02 -0.10661702447E+03  0.12992801584E+03  0.41800000000E+01 0. -1.
        -11    1    1    2    0    0  0.40019478645E+02  0.12944278402E+02 -0.50016352349E+02  0.65350964160E+02  0.00000000000E+00 0.  1.
         11    1    1    2    0    0  0.39912858556E+02 -0.70465557149E+02 -0.22395297030E+03  0.23814567795E+03  0.00000000000E+00 0. -1.
</event>
<event>
 7    1  0.2686828E-009  0.1652120E+03  0.7561462E-02  0.1182935E+00
         -3   -1    0    0    0  501 -0.00000000000E+00  0.00000000000E+00  0.20837786265E+03  0.20837786265E+03  0.00000000000E+00 0.  1.
          3   -1    0    0  501    0  0.00000000000E+00 -0.00000000000E+00 -0.14881073249E+03  0.14881073249E+03  0.00000000000E+00 0. -1.
         25    2    1    2    0    0  0.11925556943E+03  0.63550639613E+02  0.41974691530E+01  0.18418350526E+03  0.12508145436E+03 0.  0.
          5    1    3    3  502    0  0.13114898606E+03  0.25248754271E+02  0.29148515519E+02  0.13676499732E+03  0.41800000000E+01 0.  1.
         -5    1    3    3    0  502 -0.11893416625E+02  0.38301885342E+02 -0.24951046366E+02  0.47418507932E+02  0.41800000000E+01 0.  1.
        -11    1    1    2    0    0 -0.69726777768E+02 -0.78255070510E+02  0.60608565494E+02  0.12107467865E+03  0.00000000000E+00 0.  1.
         11    1    1    2    0    0 -0.49528791663E+02  0.14704430897E+02 -0.52389044904E+01  0.51930411243E+02  0.00000000000E+00 0. -1.
</event>
<event>
 7    1  0.2686828E-009  0.7775212E+02  0.7561462E-02  0.1335554E+00
         -2   -1    0    0    0  501 -0.00000000000E+00  0.00000000000E+00  0.67249889647E+02  0.67249889647E+02  0.00000000000E+00 0.  1.
          2   -1    0    0  501    0  0.00000000000E+00 -0.00000000000E+00 -0.20085911686E+03  0.20085911686E+03  0.00000000000E+00 0. -1.
         25    2    1    2    0    0 -0.40707578295E+02 -0.13368365073E+02 -0.96910516731E+02  0.16393417166E+03  0.12508774628E+03 0.  0.
          5    1    3    3  502    0  0.18953244934E+02  0.31732306025E+02 -0.78396856624E+02  0.86773868576E+02  0.41800000000E+01 0.  1.
         -5    1    3    3    0  502 -0.59660823229E+02 -0.45100671098E+02 -0.18513660107E+02  0.77160303087E+02  0.41800000000E+01 0.  1.
        -11    1    1    2    0    0  0.21411587033E+02  0.10650412331E+02 -0.65314175544E+02  0.69554502867E+02  0.00000000000E+00 0. -1.
         11    1    1    2    0    0  0.19295991262E+02  0.27179527424E+01  0.28615465059E+02  0.34620331980E+02  0.00000000000E+00 0.  1.
</event>
<event>
 7    1  0.2686828E-009  0.1219013E+03  0.7561462E-02  0.1239993E+00
         -1   -1    0    0    0  501 -0.00000000000E+00  0.00000000000E+00  0.12365553968E+04  0.12365553968E+04  0.00000000000E+00 0.  1.
          1   -1    0    0  501    0  0.00000000000E+00 -0.00000000000E+00 -0.24519158887E+02  0.24519158887E+02  0.00000000000E+00 0. -1.
         25    2    1    2    0    0  0.78485157671E+02  0.43873373239E+02  0.10072507142E+04  0.10189629372E+04  0.12508666325E+03 0.  0.
          5    1    3    3  502    0 -0.21193249676E+02 -0.12633636707E+02  0.63185270001E+02  0.67960380763E+02  0.41800000000E+01 0. -1.
         -5    1    3    3    0  502  0.99678407347E+02  0.56507009946E+02  0.94406544420E+03  0.95100255646E+03  0.41800000000E+01 0. -1.
        -11    1    1    2    0    0 -0.11782233800E+02 -0.34877308241E+02  0.15250580478E+03  0.15688616304E+03  0.00000000000E+00 0.  1.
         11    1    1    2    0    0 -0.66702923871E+02 -0.89960649977E+01  0.52279718916E+02  0.85225455401E+02  0.00000000000E+00 0. -1.
</event>
<event>
 7    1  0.2686828E-009  0.1360604E+03  0.7561462E-02  0.1218730E+00
          1   -1    0    0  501    0  0.00000000000E+00  0.00000000000E+00  0.15838925905E+03  0.15838925905E+03  0.00000000000E+00 0. -1.
         -1   -1    0    0    0  501 -0.00000000000E+00 -0.00000000000E+00 -0.15665868946E+03  0.15665868946E+03  0.00000000000E+00 0.  1.
         25    2    1    2    0    0  0.10823958606E+03 -0.93077047019E+01  0.33073651141E+02  0.16894816271E+03  0.12508866426E+03 0.  0.
          5    1    3    3  502    0  0.13456664425E+03 -0.17018381760E+02  0.37637774684E+02  0.14082571337E+03  0.41800000000E+01 0.  1.
         -5    1    3    3    0  502 -0.26327058187E+02  0.77106770581E+01 -0.45641235430E+01  0.28122449346E+02  0.41800000000E+01 0.  1.
        -11    1    1    2    0    0 -0.17955348193E+02  0.24872895979E+01  0.31181535673E+02  0.36067565834E+02  0.00000000000E+00 0. -1.
         11    1    1    2    0    0 -0.90284237869E+02  0.68204151040E+01 -0.62524617229E+02  0.11003221996E+03  0.00000000000E+00 0.  1.
</event>
<event>
 7    1  0.2686828E-009  0.2347504E+03  0.7561462E-02  0.1123340E+00
          2   -1    0    0  501    0  0.00000000000E+00  0.00000000000E+00  0.20454961361E+04  0.20454961361E+04  0.00000000000E+00 0.  1.
         -2   -1    0    0    0  501 -0.00000000000E+00 -0.00000000000E+00 -0.28743362626E+02  0.28743362626E+02  0.00000000000E+00 0. -1.
         25    2    1    2    0    0  0.32374917605E+02  0.21321868177E+03  0.11317290677E+04  0.11588649331E+04  0.12508760543E+03 0.  0.
          5    1    3    3  502    0  0.76733873811E+02  0.90399494747E+02  0.53268001351E+03  0.54573402426E+03  0.41800000000E+01 0.  1.
         -5    1    3    3    0  502 -0.44358956207E+02  0.12281918702E+03  0.59904905416E+03  0.61313090885E+03  0.41800000000E+01 0.  1.
        -11    1    1    2    0    0 -0.15754234924E+02 -0.19462303430E+03  0.85144112762E+03  0.87354353938E+03  0.00000000000E+00 0. -1.
         11    1    1    2    0    0 -0.16620682681E+02 -0.18595647475E+02  0.33582578153E+02  0.41831026203E+02  0.00000000000E+00 0.  1.
</event>
<event>
 7    1  0.2686828E-009  0.1275572E+03  0.7561462E-02  0.1231126E+00
         -1   -1    0    0    0  501 -0.00000000000E+00  0.00000000000E+00  0.14417947282E+03  0.14417947282E+03  0.00000000000E+00 0. -1.
          1   -1    0    0  501    0  0.00000000000E+00 -0.00000000000E+00 -0.33988095151E+03  0.33988095151E+03  0.00000000000E+00 0.  1.
         25    2    1    2    0    0  0.70590982193E+01 -0.86050798541E+02 -0.29033494383E+03  0.32771360790E+03  0.12508900190E+03 0.  0.
          5    1    3    3  502    0 -0.41630621623E+02 -0.81401557637E+02 -0.12293138064E+03  0.15326095063E+03  0.41800000000E+01 0.  1.
         -5    1    3    3    0  502  0.48689719842E+02 -0.46492409033E+01 -0.16740356319E+03  0.17445265727E+03  0.41800000000E+01 0.  1.
        -11    1    1    2    0    0 -0.27944754120E+02  0.89112338276E+02  0.47662222050E+02  0.10485039593E+03  0.00000000000E+00 0.  1.
         11    1    1    2    0    0  0.20885655900E+02 -0.30615397350E+01  0.46971243083E+02  0.51496420504E+02  0.00000000000E+00 0. -1.
</event>
<event>
 7    1  0.3787567E-009  0.1616845E+03  0.7561462E-02  0.1186808E+00
         -1   -1    0    0    0  501 -0.00000000000E+00  0.00000000000E+00  0.35221127676E+02  0.35221127676E+02  0.00000000000E+00 0.  1.
          1   -1    0    0  501    0  0.00000000000E+00 -0.00000000000E+00 -0.91415068680E+03  0.91415068680E+03  0.00000000000E+00 0. -1.
         25    2    1    2    0    0  0.11657920037E+03 -0.73632262495E+02 -0.55878828576E+03  0.58898517811E+03  0.12508705645E+03 0.  0.
          5    1    3    3  502    0  0.90801218246E+02  0.64673871971E+01 -0.19036946061E+03  0.21105613534E+03  0.41800000000E+01 0.  1.
         -5    1    3    3    0  502  0.25777982125E+02 -0.80099649693E+02 -0.36841882515E+03  0.37792904277E+03  0.41800000000E+01 0.  1.
        -11    1    1    2    0    0 -0.46867057999E+02  0.61355662522E+02 -0.85038321308E+02  0.11485884615E+03  0.00000000000E+00 0.  1.
         11    1    1    2    0    0 -0.69712142372E+02  0.12276599973E+02 -0.23510295205E+03  0.24552779020E+03  0.00000000000E+00 0. -1.
</event>
<event>
 7    1  0.2686828E-009  0.1185620E+03  0.7561462E-02  0.1245488E+00
         -3   -1    0    0    0  501 -0.00000000000E+00  0.00000000000E+00  0.62618272542E+02  0.62618272542E+02  0.00000000000E+00 0.  1.
          3   -1    0    0  501    0  0.00000000000E+00 -0.00000000000E+00 -0.29261391757E+03  0.29261391757E+03  0.00000000000E+00 0. -1.
         25    2    1    2    0    0 -0.26830557216E+02  0.69781902130E+02 -0.17311894452E+03  0.22628940483E+03  0.12508930059E+03 0.  0.
          5    1    3    3  502    0  0.46056858589E+02  0.53851783571E+02 -0.86181848117E+02  0.11165138674E+03  0.41800000000E+01 0.  1.
         -5    1    3    3    0  502 -0.72887415805E+02  0.15930118559E+02 -0.86937096408E+02  0.11463801809E+03  0.41800000000E+01 0.  1.
        -11    1    1    2    0    0  0.41391699520E+02 -0.36893299744E+02 -0.71186811037E+02  0.90232756917E+02  0.00000000000E+00 0. -1.
         11    1    1    2    0    0 -0.14561142304E+02 -0.32888602386E+02  0.14310110534E+02  0.38710028360E+02  0.00000000000E+00 0.  1.
</event>
<event>
 7    1  0.2686828E-009  0.1591225E+03  0.7561462E-02  0.1189691E+00
          1   -1    0    0  501    0  0.00000000000E+00  0.00000000000E+00  0.14117526919E+03  0.14117526919E+03  0.00000000000E+00 0. -1.
         -1   -1    0    0    0  501 -0.00000000000E+00 -0.00000000000E+00 -0.34446281909E+03  0.34446281909E+03  0.00000000000E+00 0.  1.
         25    2    1    2    0    0 -0.10763342958E+03  0.92136860787E+02  0.36454646670E+02  0.19248630385E+03  0.12509148503E+03 0.  0.
          5    1    3    3  502    0 -0.94847089563E+02  0.98693264806E+02 -0.16058142463E+02  0.13788280261E+03  0.41800000000E+01 0.  1.
         -5    1    3    3    0  502 -0.12786340012E+02 -0.65564040190E+01  0.52512789133E+02  0.54603501235E+02  0.41800000000E+01 0.  1.
        -11    1    1    2    0    0  0.69111343536E+00 -0.52161296940E+02 -0.53663860178E+02  0.74840419731E+02  0.00000000000E+00 0. -1.
         11    1    1    2    0    0  0.10694231614E+03 -0.39975563847E+02 -0.18607833639E+03  0.21831136471E+03  0.00000000000E+00 0.  1.
</event>
<event>
 7    1  0.2686828E-009  0.1781253E+03  0.7561462E-02  0.1169630E+00
         -1   -1    0    0    0  501 -0.00000000000E+00  0.00000000000E+00  0.31587888251E+02  0.31587888251E+02  0.00000000000E+00 0.  1.
          1   -1    0    0  501    0  0.00000000000E+00 -0.00000000000E+00 -0.11690907612E+04  0.11690907612E+04  0.00000000000E+00 0. -1.
         25    2    1    2    0    0  0.14896392514E+03  0.93700752110E+01 -0.43193552682E+03  0.47380864053E+03  0.12509308219E+03 0.  0.
          5    1    3    3  502    0  0.46851241400E+02  0.63498966198E+02 -0.16886477573E+03  0.18644018454E+03  0.41800000000E+01 0. -1.
         -5    1    3    3    0  502  0.10211268374E+03 -0.54128890987E+02 -0.26307075109E+03  0.28736845599E+03  0.41800000000E+01 0. -1.
        -11    1    1    2    0    0 -0.12242157347E+03 -0.32182723113E+02 -0.64147153239E+03  0.65384133869E+03  0.00000000000E+00 0.  1.
         11    1    1    2    0    0 -0.26542351671E+02  0.22812647902E+02 -0.64095813759E+02  0.73028670246E+02  0.00000000000E+00 0. -1.
</event>
<event>
 7    1  0.2686828E-009  0.1154301E+03  0.7561462E-02  0.1250832E+00
         -1   -1    0    0    0  501 -0.00000000000E+00  0.00000000000E+00  0.60481945773E+03  0.60481945773E+03  0.00000000000E+00 0.  1.
          1   -1    0    0  501    0  0.00000000000E+00 -0.00000000000E+00 -0.24794037911E+02  0.24794037911E+02  0.00000000000E+00 0. -1.
         25    2    1    2    0    0  0.21622319744E+02 -0.41593750916E+02  0.36031136146E+03  0.38427829136E+03  0.12509181902E+03 0.  0.
          5    1    3    3  502    0 -0.22841654880E+02 -0.72317686656E+02  0.16607812443E+03  0.18262257477E+03  0.41800000000E+01 0. -1.
         -5    1    3    3    0  502  0.44463974625E+02  0.30723935740E+02  0.19423323702E+03  0.20165571659E+03  0.41800000000E+01 0. -1.
        -11    1    1    2    0    0 -0.21307406627E+02 -0.25711070281E+02  0.33368571342E+02  0.47207269202E+02  0.00000000000E+00 0. -1.
         11    1    1    2    0    0 -0.31491311777E+00  0.67304821197E+02  0.18634548702E+03  0.19812793508E+03  0.00000000000E+00 0.  1.
</event>
<event>
 7    1  0.3534937E-009  0.1937138E+03  0.7561462E-02  0.1155154E+00
          1   -1    0    0  501    0  0.00000000000E+00  0.00000000000E+00  0.54901708788E+03  0.54901708788E+03  0.00000000000E+00 0. -1.
         -1   -1    0    0    0  501 -0.00000000000E+00 -0.00000000000E+00 -0.77153177402E+02  0.77153177402E+02  0.00000000000E+00 0.  1.
         25    2    1    2    0    0  0.10778680448E+03 -0.13522073530E+03  0.21001043815E+03  0.29942249494E+03  0.12508718507E+03 0.  0.
          5    1    3    3  502    0  0.13142380492E+03 -0.96606349418E+02  0.13529580090E+03  0.21196091477E+03  0.41800000000E+01 0.  1.
         -5    1    3    3    0  502 -0.23637000441E+02 -0.38614385883E+02  0.74714637249E+02  0.87461580172E+02  0.41800000000E+01 0.  1.
        -11    1    1    2    0    0 -0.31450869480E+02  0.75780833285E+02  0.18770339258E+03  0.20485227719E+03  0.00000000000E+00 0. -1.
         11    1    1    2    0    0 -0.76335935000E+02  0.59439902015E+02  0.74150079747E+02  0.12189549315E+03  0.00000000000E+00 0.  1.
</event>
<event>
 7    1  0.2686828E-009  0.1358280E+03  0.7561462E-02  0.1219056E+00
         -1   -1    0    0    0  501 -0.00000000000E+00  0.00000000000E+00  0.36094249697E+02  0.36094249697E+02  0.00000000000E+00 0.  1.
          1   -1    0    0  501    0  0.00000000000E+00 -0.00000000000E+00 -0.72186381820E+03  0.72186381820E+03  0.00000000000E+00 0. -1.
         25    2    1    2    0    0 -0.11164836596E+03  0.67988622295E+01 -0.46175533754E+03  0.49130079451E+03  0.12508755650E+03 0.  0.
          5    1    3    3  502    0 -0.79919449797E+02 -0.25151001417E+02 -0.42450006263E+03  0.43270944859E+03  0.41800000000E+01 0. -1.
         -5    1    3    3    0  502 -0.31728916167E+02  0.31949863647E+02 -0.37255274912E+02  0.58591345922E+02  0.41800000000E+01 0. -1.
        -11    1    1    2    0    0 -0.10116783700E+02 -0.17603029812E+02 -0.50293471777E+02  0.54236973315E+02  0.00000000000E+00 0. -1.
         11    1    1    2    0    0  0.12176514966E+03  0.10804167582E+02 -0.17372075919E+03  0.21242030007E+03  0.00000000000E+00 0.  1.
</event>
<event>
 7    1  0.2686828E-009  0.1194082E+03  0.7561462E-02  0.1244077E+00
          2   -1    0    0  501    0  0.00000000000E+00  0.00000000000E+00  0.46090159682E+03  0.46090159682E+03  0.00000000000E+00 0. -1.
         -2   -1    0    0    0  501 -0.00000000000E+00 -0.00000000000E+00 -0.45081091388E+02  0.45081091388E+02  0.00000000000E+00 0.  1.
         25    2    1    2    0    0 -0.17269290325E+02  0.94544333636E+02  0.23438859212E+03  0.28252971615E+03  0.12509264160E+03 0.  0.
          5    1    3    3  502    0  0.37899746278E+02  0.55328936788E+02  0.43734909112E+02  0.80174164724E+02  0.41800000000E+01 0.  1.
         -5    1    3    3    0  502 -0.55169036603E+02  0.39215396848E+02  0.19065368300E+03  0.20235555143E+03  0.41800000000E+01 0.  1.
        -11    1    1    2    0    0 -0.10120773115E+02 -0.53585021818E+02  0.16122359539E+03  0.17019645214E+03  0.00000000000E+00 0. -1.
         11    1    1    2    0    0  0.27390063440E+02 -0.40959311818E+02  0.20208317921E+02  0.53256519911E+02  0.00000000000E+00 0.  1.
</event>
<event>
 7    1  0.2686828E-009  0.1163696E+03  0.7561462E-02  0.1249209E+00
         -1   -1    0    0    0  501 -0.00000000000E+00  0.00000000000E+00  0.23687466478E+02  0.23687466478E+02  0.00000000000E+00 0.  1.
          1   -1    0    0  501    0  0.00000000000E+00 -0.00000000000E+00 -0.93749422397E+03  0.93749422397E+03  0.00000000000E+00 0. -1.
         25    2    1    2    0    0 -0.72063746184E+02  0.66513363434E+02 -0.58480361833E+03  0.60602101706E+03  0.12509592351E+03 0.  0.
          5    1    3    3  502    0 -0.15212468532E+00  0.57846970675E+01  0.50155240852E+01  0.87243191099E+01  0.41800000000E+01 0. -1.
         -5    1    3    3    0  502 -0.71911621498E+02  0.60728666366E+02 -0.58981914241E+03  0.59729669795E+03  0.41800000000E+01 0. -1.
        -11    1    1    2    0    0  0.52914598796E+02  0.88293708091E+01 -0.10252296508E+03  0.11571028875E+03  0.00000000000E+00 0. -1.
         11    1    1    2    0    0  0.19149147388E+02 -0.75342734243E+02 -0.22648017408E+03  0.23945038463E+03  0.00000000000E+00 0.  1.
</event>
<event>
 7    1  0.2686828E-009  0.1396064E+03  0.7561462E-02  0.1213860E+00
          1   -1    0    0  501    0  0.00000000000E+00  0.00000000000E+00  0.69320142899E+03  0.69320142899E+03  0.00000000000E+00 0. -1.
         -1   -1    0    0    0  501 -0.00000000000E+00 -0.00000000000E+00 -0.37246189919E+02  0.37246189919E+02  0.00000000000E+00 0.  1.
         25    2    1    2    0    0  0.89529595459E+02  0.59424578705E+02  0.23570726010E+03  0.28766728808E+03  0.12509087558E+03 0.  0.
          5    1    3    3  502    0  0.35642430286E+02 -0.35726189941E+02  0.10938653307E+03  0.12053891281E+03  0.41800000000E+01 0. -1.
         -5    1    3    3    0  502  0.53887165173E+02  0.95150768645E+02  0.12632072703E+03  0.16712837527E+03  0.41800000000E+01 0. -1.
        -11    1    1    2    0    0 -0.11348043494E+02 -0.35673206282E+02  0.44035896543E+02  0.57797196489E+02  0.00000000000E+00 0.  1.
         11    1    1    2    0    0 -0.78181551965E+02 -0.23751372422E+02  0.37621208243E+03  0.38498313434E+03  0.00000000000E+00 0. -1.
</event>
<event>
 7    1  0.2686828E-009  0.2183391E+03  0.7561462E-02  0.1135127E+00
         -1   -1    0    0    0  501 -0.00000000000E+00  0.00000000000E+00  0.17266332759E+03  0.17266332759E+03  0.00000000000E+00 0.  1.
          1   -1    0    0  501    0  0.00000000000E+00 -0.00000000000E+00 -0.53203064075E+03  0.53203064075E+03  0.00000000000E+00 0. -1.
         25    2    1    2    0    0  0.19818526408E+03  0.38146527462E+02  0.46057704743E+02  0.24187053495E+03  0.12508991587E+03 0.  0.
          5    1    3    3  502    0  0.14585923720E+03 -0.52197236493E+01 -0.19551143304E+02  0.14731558708E+03  0.41800000000E+01 0.  1.
         -5    1    3    3    0  502  0.52326026882E+02  0.43366251111E+02  0.65608848047E+02  0.94554947870E+02  0.41800000000E+01 0.  1.
        -11    1    1    2    0    0 -0.20010301842E+03 -0.53477879593E+02 -0.38538367613E+03  0.43751763326E+03  0.00000000000E+00 0.  1.
         11    1    1    2    0    0  0.19177543350E+01  0.15331352131E+02 -0.20041341765E+02  0.25305800118E+02  0.00000000000E+00 0. -1.
</event>
<event>
 7    1  0.2686828E-009  0.1127550E+03  0.7561462E-02  0.1255551E+00
          1   -1    0    0  501    0  0.00000000000E+00  0.00000000000E+00  0.33598133587E+02  0.33598133587E+02  0.00000000000E+00 0. -1.
         -1   -1    0    0    0  501 -0.00000000000E+00 -0.00000000000E+00 -0.71143762330E+03  0.71143762330E+03  0.00000000000E+00 0.  1.
         25    2    1    2    0    0 -0.65028444285E+02  0.75509624292E+02 -0.26564222844E+03  0.31007121972E+03  0.12509182964E+03 0.  0.
          5    1    3    3  502    0 -0.19684536674E+02  0.76196237942E+02 -0.24966586734E+03  0.26180883365E+03  0.41800000000E+01 0.  1.
         -5    1    3    3    0  502 -0.45343907612E+02 -0.68661365042E+00 -0.15976361102E+02  0.48262386077E+02  0.41800000000E+01 0.  1.
        -11    1    1    2    0    0  0.52974081797E+02 -0.49540428310E+02 -0.39491977839E+03  0.40152476728E+03  0.00000000000E+00 0.  1.
         11    1    1    2    0    0  0.12054362488E+02 -0.25969195982E+02 -0.17277482887E+02  0.33439769884E+02  0.00000000000E+00 0. -1.
</event>
<event>
 7    1  0.2686828E-009  0.1231386E+03  0.7561462E-02  0.1238007E+00
         -1   -1    0    0    0  501 -0.00000000000E+00  0.00000000000E+00  0.32128096127E+03  0.32128096127E+03  0.00000000000E+00 0.  1.
          1   -1    0    0  501    0  0.00000000000E+00 -0.00000000000E+00 -0.10515141935E+03  0.10515141935E+03  0.00000000000E+00 0. -1.
         25    2    1    2    0    0 -0.38987319118E+02  0.70746547089E+02 -0.29844306714E+02  0.15185780595E+03  0.12508007678E+03 0.  0.
          5    1    3    3  502    0  0.28582663724E+02  0.30466270150E+01 -0.46354179826E+02  0.54703135094E+02  0.41800000000E+01 0.  1.
         -5    1    3    3    0  502 -0.67569982841E+02  0.67699920074E+02  0.16509873113E+02  0.97154670857E+02  0.41800000000E+01 0.  1.
        -11    1    1    2    0    0  0.66899259151E+02 -0.64410279123E+02  0.17661561556E+03  0.19954265356E+03  0.00000000000E+00 0. -1.
         11    1    1    2    0    0 -0.27911940033E+02 -0.63362679663E+01  0.69358233080E+02  0.75031921101E+02  0.00000000000E+00 0.  1.
</event>
<event>
 7    1  0.2686828E-009  0.9996303E+02  0.7561462E-02  0.1280374E+00
         -3   -1    0    0    0  501 -0.00000000000E+00  0.00000000000E+00  0.38116154731E+03  0.38116154731E+03  0.00000000000E+00 0.  1.
          3   -1    0    0  501    0  0.00000000000E+00 -0.00000000000E+00 -0.35748347163E+02  0.35748347163E+02  0.00000000000E+00 0. -1.
         25    2    1    2    0    0  0.18420259794E+02 -0.44026232229E+02  0.22891684341E+03  0.26519311837E+03  0.12508738441E+03 0.  0.
          5    1    3    3  502    0 -0.22312485527E+02 -0.65183840802E+02  0.64611438808E+02  0.94545706073E+02  0.41800000000E+01 0. -1.
         -5    1    3    3    0  502  0.40732745321E+02  0.21157608573E+02  0.16430540461E+03  0.17064741230E+03  0.41800000000E+01 0. -1.
        -11    1    1    2    0    0  0.16529150053E+02  0.46917365197E+02  0.29297699098E+02  0.57730469693E+02  0.00000000000E+00 0. -1.
         11    1    1    2    0    0 -0.34949409847E+02 -0.28911329678E+01  0.87198657632E+02  0.93986306403E+02  0.00000000000E+00 0.  1.
</event>
<event>
 7    1  0.2686828E-009  0.1891741E+03  0.7561462E-02  0.1159208E+00
         -2   -1    0    0    0  501 -0.00000000000E+00  0.00000000000E+00  0.43165149345E+02  0.43165149345E+02  0.00000000000E+00 0.  1.
          2   -1    0    0  501    0  0.00000000000E+00 -0.00000000000E+00 -0.91414280869E+03  0.91414280869E+03  0.00000000000E+00 0. -1.
         25    2    1    2    0    0  0.14449861725E+03 -0.85302063290E+02 -0.45468812967E+03  0.50054312126E+03  0.12508328660E+03 0.  0.
          5    1    3    3  502    0  0.12791403850E+03 -0.11579198098E+02 -0.23017169110E+03  0.26361441322E+03  0.41800000000E+01 0. -1.
         -5    1    3    3    0  502  0.16584578753E+02 -0.73722865192E+02 -0.22451643857E+03  0.23692870804E+03  0.41800000000E+01 0. -1.
        -11    1    1    2    0    0 -0.96132675114E+02  0.30023979196E+02 -0.15107285452E+03  0.18156524427E+03  0.00000000000E+00 0.  1.
         11    1    1    2    0    0 -0.48365942138E+02  0.55278084094E+02 -0.26521667515E+03  0.27519959251E+03  0.00000000000E+00 0. -1.
</event>
<event>
 7    1  0.2686828E-009  0.8346904E+02  0.7561462E-02  0.1319485E+00
          2   -1    0    0  501    0  0.00000000000E+00  0.00000000000E+00  0.11906167916E+04  0.11906167916E+04  0.00000000000E+00 0. -1.
         -2   -1    0    0    0  501 -0.00000000000E+00 -0.00000000000E+00 -0.13541761861E+02  0.13541761861E+02  0.00000000000E+00 0.  1.
         25    2    1    2    0    0 -0.36615538928E+02 -0.14532054376E+01  0.91999736981E+03  0.92918551613E+03  0.12509098060E+03 0.  0.
          5    1    3    3  502    0 -0.27155325035E+02  0.35296428916E+02  0.11665376692E+03  0.12493527647E+03  0.41800000000E+01 0.  1.
         -5    1    3    3    0  502 -0.94602138932E+01 -0.36749634354E+02  0.80334360290E+03  0.80425023966E+03  0.41800000000E+01 0.  1.
        -11    1    1    2    0    0 -0.90381128078E+01  0.29227423610E+02  0.34680257518E+02  0.46245540710E+02  0.00000000000E+00 0.  1.
         11    1    1    2    0    0  0.45653651736E+02 -0.27774218173E+02  0.22239740237E+03  0.22872749658E+03  0.00000000000E+00 0. -1.
</event>
<event>
 7    1  0.2686828E-009  0.2492274E+03  0.7561462E-02  0.1113794E+00
          2   -1    0    0  501    0  0.00000000000E+00  0.00000000000E+00  0.21173789270E+03  0.21173789270E+03  0.00000000000E+00 0. -1.
         -2   -1    0    0    0  501 -0.00000000000E+00 -0.00000000000E+00 -0.33929071945E+03  0.33929071945E+03  0.00000000000E+00 0.  1.
         25    2    1    2    0    0 -0.23652206525E+03  0.61794319157E+01 -0.11221193936E+01  0.26763696783E+03  0.12508962654E+03 0.  0.
          5    1    3    3  502    0 -0.14523023563E+03 -0.26840681555E+02 -0.53637907521E+02  0.15718378113E+03  0.41800000000E+01 0. -1.
         -5    1    3    3    0  502 -0.91291829623E+02  0.33020113471E+02  0.52515788128E+02  0.11045318670E+03  0.41800000000E+01 0. -1.
        -11    1    1    2    0    0  0.21778318605E+02 -0.30437661401E+02 -0.21370874228E+02  0.43098267461E+02  0.00000000000E+00 0.  1.
         11    1    1    2    0    0  0.21474374665E+03  0.24258229486E+02 -0.10505983314E+03  0.24029337686E+03  0.00000000000E+00 0. -1.
</event>
<event>
 7    1  0.2686828E-009  0.1993817E+03  0.7561462E-02  0.1150262E+00
          2   -1    0    0  501    0  0.00000000000E+00  0.00000000000E+00  0.14949232700E+04  0.14949232700E+04  0.00000000000E+00 0. -1.
         -2   -1    0    0    0  501 -0.00000000000E+00 -0.00000000000E+00 -0.28939532584E+02  0.28939532584E+02  0.00000000000E+00 0.  1.
         25    2    1    2    0    0 -0.13276747221E+03  0.10477759649E+03  0.95090285663E+03  0.97389375233E+03  0.12508897506E+03 0.  0.
          5    1    3    3  502    0 -0.15688840631E+03  0.91629397116E+02  0.85164918228E+03  0.87082358749E+03  0.41800000000E+01 0. -1.
         -5    1    3    3    0  502  0.24120934099E+02  0.13148199372E+02  0.99253674351E+02  0.10307016484E+03  0.41800000000E+01 0. -1.
        -11    1    1    2    0    0  0.86683509142E+02 -0.14508976073E+02  0.18768396012E+03  0.20724335944E+03  0.00000000000E+00 0.  1.
         11    1    1    2    0    0  0.46083963070E+02 -0.90268620415E+02  0.32739692066E+03  0.34272569081E+03  0.00000000000E+00 0. -1.
</event>
<event>
 7    1  0.2686828E-009  0.1575572E+03  0.7561462E-02  0.1191483E+00
         -2   -1    0    0    0  501 -0.00000000000E+00  0.00000000000E+00  0.54421737418E+02  0.54421737418E+02  0.00000000000E+00 0.  1.
          2   -1    0    0  501    0  0.00000000000E+00 -0.00000000000E+00 -0.55241783417E+03  0.55241783417E+03  0.00000000000E+00 0. -1.
         25    2    1    2    0    0 -0.81109372697E+01 -0.13268648639E+03 -0.22699956749E+03  0.29128656086E+03  0.12509023113E+03 0.  0.
          5    1    3    3  502    0  0.13113875591E+02 -0.14590479111E+03 -0.22109647472E+03  0.26525705521E+03  0.41800000000E+01 0. -1.
         -5    1    3    3    0  502 -0.21224812860E+02  0.13218304717E+02 -0.59030927692E+01  0.26029505658E+02  0.41800000000E+01 0. -1.
        -11    1    1    2    0    0  0.29594280979E+02  0.53259905596E+02 -0.47086930155E+02  0.77004012897E+02  0.00000000000E+00 0.  1.
         11    1    1    2    0    0 -0.21483343710E+02  0.79426580796E+02 -0.22390959911E+03  0.23854899783E+03  0.00000000000E+00 0. -1.
</event>
<event>
 7    1  0.2686828E-009  0.8097523E+02  0.7561462E-02  0.1326306E+00
         -3   -1    0    0    0  501 -0.00000000000E+00  0.00000000000E+00  0.31515895908E+03  0.31515895908E+03  0.00000000000E+00 0.  1.
          3   -1    0    0  501    0  0.00000000000E+00 -0.00000000000E+00 -0.54183162600E+02  0.54183162600E+02  0.00000000000E+00 0. -1.
         25    2    1    2    0    0  0.58292330187E+02 -0.17447930883E+02  0.87191154035E+02  0.16416988748E+03  0.12508808321E+03 0.  0.
          5    1    3    3  502    0  0.46078434315E+00 -0.34607122683E+02 -0.20660295912E+02  0.40523887891E+02  0.41800000000E+01 0. -1.
         -5    1    3    3    0  502  0.57831545844E+02  0.17159191800E+02  0.10785144995E+03  0.12364599959E+03  0.41800000000E+01 0. -1.
        -11    1    1    2    0    0 -0.17851672635E+02 -0.72130433763E+01 -0.52670166515E+01  0.19961254345E+02  0.00000000000E+00 0.  1.
         11    1    1    2    0    0 -0.40440657552E+02  0.24660974259E+02  0.17905165910E+03  0.18521097986E+03  0.00000000000E+00 0. -1.
</event>
<event>
 7    1  0.2686828E-009  0.9892297E+02  0.7561462E-02  0.1282577E+00
         -2   -1    0    0    0  501 -0.00000000000E+00  0.00000000000E+00  0.39287556969E+02  0.39287556969E+02  0.00000000000E+00 0. -1.
          2   -1    0    0  501    0  0.00000000000E+00 -0.00000000000E+00 -0.50687016976E+03  0.50687016976E+03  0.00000000000E+00 0.  1.
         25    2    1    2    0    0  0.81286228908E+02 -0.40652898682E+02 -0.21757917608E+03  0.26692548250E+03  0.12509358960E+03 0.  0.
          5    1    3    3  502    0  0.51282631543E+02 -0.51052406077E+02 -0.33093249611E+02  0.79679934953E+02  0.41800000000E+01 0. -1.
         -5    1    3    3    0  502  0.30003597365E+02  0.10399507395E+02 -0.18448592647E+03  0.18724554754E+03  0.41800000000E+01 0. -1.
        -11    1    1    2    0    0 -0.68398441084E+02  0.24463120377E+02 -0.24802616009E+03  0.25844490146E+03  0.00000000000E+00 0.  1.
         11    1    1    2    0    0 -0.12887787824E+02  0.16189778305E+02 -0.19772766138E+01  0.20787342768E+02  0.00000000000E+00 0. -1.
</event>
<event>
 7    1  0.2808229E-009  0.9922877E+02  0.7561462E-02  0.1281926E+00
          1   -1    0    0  501    0  0.00000000000E+00  0.00000000000E+00  0.19945715721E+03  0.19945715721E+03  0.00000000000E+00 0. -1.
         -1   -1    0    0    0  501 -0.00000000000E+00 -0.00000000000E+00 -0.90249691172E+02  0.90249691172E+02  0.00000000000E+00 0.  1.
         25    2    1    2    0    0  0.62124434174E+01 -0.73506400237E+02  0.31515541671E+02  0.14860249225E+03  0.12509071111E+03 0.  0.
          5    1    3    3  502    0  0.52494683111E+02 -0.32025042808E+02 -0.23038583611E+02  0.65799269423E+02  0.41800000000E+01 0.  1.
         -5    1    3    3    0  502 -0.46282239694E+02 -0.41481357429E+02  0.54554125282E+02  0.82803222827E+02  0.41800000000E+01 0.  1.
        -11    1    1    2    0    0 -0.56295756330E+00  0.58416228553E+02 -0.33126274080E+01  0.58512786465E+02  0.00000000000E+00 0.  1.
         11    1    1    2    0    0 -0.56494858541E+01  0.15090171684E+02  0.81004551775E+02  0.82591569667E+02  0.00000000000E+00 0. -1.
</event>
<event>
 7    1  0.2686828E-009  0.1858949E+03  0.7561462E-02  0.1162217E+00
          1   -1    0    0  501    0  0.00000000000E+00  0.00000000000E+00  0.66595035165E+03  0.66595035165E+03  0.00000000000E+00 0. -1.
         -1   -1    0    0    0  501 -0.00000000000E+00 -0.00000000000E+00 -0.53723564955E+02  0.53723564955E+02  0.00000000000E+00 0.  1.
         25    2    1    2    0    0 -0.77203989313E+02 -0.13358144605E+03  0.32237386309E+03  0.37864960425E+03  0.12508459736E+03 0.  0.
          5    1    3    3  502    0 -0.69414496301E+02 -0.15642524462E+03  0.30035261473E+03  0.34571143317E+03  0.41800000000E+01 0. -1.
         -5    1    3    3    0  502 -0.77894930120E+01  0.22843798568E+02  0.22021248364E+02  0.32938171077E+02  0.41800000000E+01 0. -1.
        -11    1    1    2    0    0  0.76631425413E+02  0.47782399871E+02  0.11470048550E+03  0.14598539130E+03  0.00000000000E+00 0.  1.
         11    1    1    2    0    0  0.57256390053E+00  0.85799046180E+02  0.17515243810E+03  0.19503892105E+03  0.00000000000E+00 0. -1.
</event>
<event>
 7    1  0.2686828E-009  0.1461460E+03  0.7561462E-02  0.1205290E+00
         -1   -1    0    0    0  501 -0.00000000000E+00  0.00000000000E+00  0.25500401655E+03  0.25500401655E+03  0.00000000000E+00 0.  1.
          1   -1    0    0  501    0  0.00000000000E+00 -0.00000000000E+00 -0.14759199768E+03  0.14759199768E+03  0.00000000000E+00 0. -1.
         25    2    1    2    0    0 -0.32621206388E+01  0.11211073226E+03 -0.60775367209E+02  0.17865336339E+03  0.12507566219E+03 0.  0.
          5    1    3    3  502    0  0.27796469374E+02  0.11921126459E+03 -0.15970573472E+02  0.12351720905E+03  0.41800000000E+01 0.  1.
         -5    1    3    3    0  502 -0.31058590013E+02 -0.71005323363E+01 -0.44804793737E+02  0.55136154335E+02  0.41800000000E+01 0.  1.
        -11    1    1    2    0    0  0.21729552179E+02  0.22415170341E+01  0.65844984682E+02  0.69374057430E+02  0.00000000000E+00 0.  1.
         11    1    1    2    0    0 -0.18467431541E+02 -0.11435224929E+03  0.10234240139E+03  0.15456859341E+03  0.00000000000E+00 0. -1.
</event>
<event>
 7    1  0.2686828E-009  0.1323136E+03  0.7561462E-02  0.1224063E+00
          2   -1    0    0  501    0  0.00000000000E+00  0.00000000000E+00  0.76595954502E+03  0.76595954502E+03  0.00000000000E+00 0. -1.
         -2   -1    0    0    0  501 -0.00000000000E+00 -0.00000000000E+00 -0.43851320641E+02  0.43851320641E+02  0.00000000000E+00 0.  1.
         25    2    1    2    0    0  0.50678740211E+02  0.10483901921E+03  0.58091117566E+03  0.60552870620E+03  0.12509062863E+03 0.  0.
          5    1    3    3  502    0  0.14572854822E+02  0.64189570020E+02  0.89903562008E+02  0.11150242983E+03  0.41800000000E+01 0.  1.
         -5    1    3    3    0  502  0.36105885390E+02  0.40649449186E+02  0.49100761365E+03  0.49402627637E+03  0.41800000000E+01 0.  1.
        -11    1    1    2    0    0 -0.68444919084E+02 -0.45470993307E+02  0.58167327889E+02  0.10067649286E+03  0.00000000000E+00 0.  1.
         11    1    1    2    0    0  0.17766178872E+02 -0.59368025899E+02  0.83029720838E+02  0.10360566661E+03  0.00000000000E+00 0. -1.
</event>
<event>
 7    1  0.2686828E-009  0.1024812E+03  0.7561462E-02  0.1275163E+00
         -1   -1    0    0    0  501 -0.00000000000E+00  0.00000000000E+00  0.10891910038E+03  0.10891910038E+03  0.00000000000E+00 0.  1.
          1   -1    0    0  501    0  0.00000000000E+00 -0.00000000000E+00 -0.18006945336E+03  0.18006945336E+03  0.00000000000E+00 0. -1.
         25    2    1    2    0    0  0.69879040452E+02  0.16802505895E+01 -0.11857075306E+03  0.18598861111E+03  0.12508731529E+03 0.  0.
          5    1    3    3  502    0 -0.24208829625E+02  0.14798830341E+02  0.59714383362E+01  0.29295106880E+02  0.41800000000E+01 0. -1.
         -5    1    3    3    0  502  0.94087870077E+02 -0.13118579752E+02 -0.12454219140E+03  0.15669350423E+03  0.41800000000E+01 0. -1.
        -11    1    1    2    0    0 -0.23584378344E+02  0.19195391133E+02 -0.40696061786E+01  0.30679759404E+02  0.00000000000E+00 0. -1.
         11    1    1    2    0    0 -0.46294662108E+02 -0.20875641722E+02  0.51490006259E+02  0.72320183224E+02  0.00000000000E+00 0.  1.
</event>
<event>
 7    1  0.3095003E-009  0.8643173E+02  0.7561462E-02  0.1311730E+00
         -2   -1    0    0    0  501 -0.00000000000E+00  0.00000000000E+00  0.51631288853E+02  0.51631288853E+02  0.00000000000E+00 0.  1.
          2   -1    0    0  501    0  0.00000000000E+00 -0.00000000000E+00 -0.30035063979E+03  0.30035063979E+03  0.00000000000E+00 0. -1.
         25    2    1    2    0    0 -0.66358887547E+01  0.15203927603E+02 -0.22254256011E+03  0.25582726580E+03  0.12508878620E+03 0.  0.
          5    1    3    3  502    0 -0.52259353542E+02  0.59798316237E+01 -0.36889608195E+02  0.64382559841E+02  0.41800000000E+01 0. -1.
         -5    1    3    3    0  502  0.45623464787E+02  0.92240959788E+01 -0.18565295192E+03  0.19144470596E+03  0.41800000000E+01 0. -1.
        -11    1    1    2    0    0  0.41274140784E+01  0.28897444006E+02 -0.40316004287E+02  0.49774270650E+02  0.00000000000E+00 0. -1.
         11    1    1    2    0    0  0.25084746763E+01 -0.44101371609E+02  0.14139213456E+02  0.46380392195E+02  0.00000000000E+00 0.  1.
</event>
<event>
 7    1  0.2686828E-009  0.1129225E+03  0.7561462E-02  0.1255252E+00
         -2   -1    0    0    0  501 -0.00000000000E+00  0.00000000000E+00  0.16127661402E+03  0.16127661402E+03  0.00000000000E+00 0.  1.
          2   -1    0    0  501    0  0.00000000000E+00 -0.00000000000E+00 -0.97837257295E+02  0.97837257295E+02  0.00000000000E+00 0. -1.
         25    2    1    2    0    0 -0.59584611464E+02 -0.11413548423E+02  0.17310197646E+02  0.14009877979E+03  0.12508968840E+03 0.  0.
          5    1    3    3  502    0 -0.55327116950E+02  0.44558897166E+02  0.37325000714E+02  0.80356787298E+02  0.41800000000E+01 0. -1.
         -5    1    3    3    0  502 -0.42574945142E+01 -0.55972445589E+02 -0.20014803068E+02  0.59741992489E+02  0.41800000000E+01 0. -1.
        -11    1    1    2    0    0  0.41487933078E+02 -0.31322096989E+02 -0.21747357746E+01  0.52029336211E+02  0.00000000000E+00 0.  1.
         11    1    1    2    0    0  0.18096678385E+02  0.42735645412E+02  0.48303894858E+02  0.66985755320E+02  0.00000000000E+00 0. -1.
</event>
<event>
 7    1  0.2686828E-009  0.1293957E+03  0.7561462E-02  0.1228355E+00
         -1   -1    0    0    0  501 -0.00000000000E+00  0.00000000000E+00  0.56247312167E+03  0.56247312167E+03  0.00000000000E+00 0.  1.
          1   -1    0    0  501    0  0.00000000000E+00 -0.00000000000E+00 -0.82427181739E+02  0.82427181739E+02  0.00000000000E+00 0. -1.
         25    2    1    2    0    0 -0.36896306311E+02  0.90525172055E+02  0.12928711938E+02  0.15928239131E+03  0.12509030496E+03 0.  0.
          5    1    3    3  502    0  0.33238988404E+02  0.79864502708E+01 -0.27007446141E+02  0.43766291653E+02  0.41800000000E+01 0.  1.
         -5    1    3    3    0  502 -0.70135294715E+02  0.82538721784E+02  0.39936158079E+02  0.11551609966E+03  0.41800000000E+01 0.  1.
        -11    1    1    2    0    0  0.54559075467E+02 -0.72337218254E+02  0.43679391858E+03  0.44609224738E+03  0.00000000000E+00 0.  1.
         11    1    1    2    0    0 -0.17662769156E+02 -0.18187953801E+02  0.30323309411E+02  0.39525664718E+02  0.00000000000E+00 0. -1.
</event>
<event>
 7    1  0.2686828E-009  0.1001916E+03  0.7561462E-02  0.1279894E+00
          2   -1    0    0  501    0  0.00000000000E+00  0.00000000000E+00  0.75556102394E+02  0.75556102394E+02  0.00000000000E+00 0. -1.
         -2   -1    0    0    0  501 -0.00000000000E+00 -0.00000000000E+00 -0.18552560325E+03  0.18552560325E+03  0.00000000000E+00 0.  1.
         25    2    1    2    0    0  0.41309474690E+02  0.12718456938E+02 -0.34780489116E+02  0.13684060322E+03  0.12508971349E+03 0.  0.
          5    1    3    3  502    0  0.39645798120E+02 -0.35408226371E+02 -0.61673216802E+02  0.81526620647E+02  0.41800000000E+01 0.  1.
         -5    1    3    3    0  502  0.16636765703E+01  0.48126683309E+02  0.26892727686E+02  0.55313982577E+02  0.41800000000E+01 0.  1.
        -11    1    1    2    0    0 -0.66103574317E+02  0.77754862442E+01 -0.47135520092E+02  0.81559168572E+02  0.00000000000E+00 0.  1.
         11    1    1    2    0    0  0.24794099627E+02 -0.20493943182E+02 -0.28053491651E+02  0.42681933851E+02  0.00000000000E+00 0. -1.
</event>
<event>
 7    1  0.2932090E-009  0.1183503E+03  0.7561462E-02  0.1245844E+00
         -1   -1    0    0    0  501 -0.00000000000E+00  0.00000000000E+00  0.18819368339E+02  0.18819368339E+02  0.00000000000E+00 0.  1.
          1   -1    0    0  501    0  0.00000000000E+00 -0.00000000000E+00 -0.84428823235E+03  0.84428823235E+03  0.00000000000E+00 0. -1.
         25    2    1    2    0    0 -0.47344080211E+02  0.34417997798E+02 -0.55075536386E+03  0.56780767279E+03  0.12509205392E+03 0.  0.
          5    1    3    3  502    0 -0.81613973280E+02  0.20428326418E+01 -0.24171038999E+03  0.25515955563E+03  0.41800000000E+01 0.  1.
         -5    1    3    3    0  502  0.34269893068E+02  0.32375165156E+02 -0.30904497387E+03  0.31264811716E+03  0.41800000000E+01 0.  1.
        -11    1    1    2    0    0  0.72419101467E+02 -0.38818247167E+02 -0.22308720318E+03  0.23773784468E+03  0.00000000000E+00 0.  1.
         11    1    1    2    0    0 -0.25075021256E+02  0.44002493684E+01 -0.51626296960E+02  0.57562083209E+02  0.00000000000E+00 0. -1.
</event>
<event>
 7    1  0.2686828E-009  0.1372741E+03  0.7561462E-02  0.1217045E+00
         -2   -1    0    0    0  501 -0.00000000000E+00  0.00000000000E+00  0.76144045276E+02  0.76144045276E+02  0.00000000000E+00 0.  1.
          2   -1    0    0  501    0  0.00000000000E+00 -0.00000000000E+00 -0.27362564023E+03  0.27362564023E+03  0.00000000000E+00 0. -1.
         25    2    1    2    0    0 -0.55182259300E+02 -0.71253949368E+02 -0.75183597020E+02  0.17152574716E+03  0.12508517752E+03 0.  0.
          5    1    3    3  502    0 -0.80596618277E+02 -0.10577357543E+02 -0.66365876684E+02  0.10502188990E+03  0.41800000000E+01 0.  1.
         -5    1    3    3    0  502  0.25414358978E+02 -0.60676591826E+02 -0.88177203365E+01  0.66503857255E+02  0.41800000000E+01 0.  1.
        -11    1    1    2    0    0  0.79607229787E+02  0.62778682879E+02 -0.82131839582E+02  0.13047648498E+03  0.00000000000E+00 0.  1.
         11    1    1    2    0    0 -0.24424970487E+02  0.84752664894E+01 -0.40166158355E+02  0.47767453380E+02  0.00000000000E+00 0. -1.
</event>
<event>
 7    1  0.2686828E-009  0.1088920E+03  0.7561462E-02  0.1262636E+00
          1   -1    0    0  501    0  0.00000000000E+00  0.00000000000E+00  0.15388683871E+03  0.15388683871E+03  0.00000000000E+00 0.  1.
         -1   -1    0    0    0  501 -0.00000000000E+00 -0.00000000000E+00 -0.13359753064E+03  0.13359753064E+03  0.00000000000E+00 0. -1.
         25    2    1    2    0    0  0.59414633740E+02  0.62392301584E+02  0.44556589965E+02  0.15828928517E+03  0.12508920854E+03 0.  0.
          5    1    3    3  502    0  0.33267059008E+02 -0.85295709325E+00 -0.38190111171E+02  0.50826978487E+02  0.41800000000E+01 0. -1.
         -5    1    3    3    0  502  0.26147574732E+02  0.63245258678E+02  0.82746701136E+02  0.10746230669E+03  0.41800000000E+01 0. -1.
        -11    1    1    2    0    0 -0.77296658382E+02 -0.59545011738E+02 -0.39761995550E+02  0.10536317246E+03  0.00000000000E+00 0. -1.
         11    1    1    2    0    0  0.17882024642E+02 -0.28472898463E+01  0.15494713661E+02  0.23831911719E+02  0.00000000000E+00 0.  1.
</event>
<event>
 7    1  0.2686828E-009  0.1217849E+03  0.7561462E-02  0.1240181E+00
          4   -1    0    0  501    0  0.00000000000E+00  0.00000000000E+00  0.18405086991E+03  0.18405086991E+03  0.00000000000E+00 0. -1.
         -4   -1    0    0    0  501 -0.00000000000E+00 -0.00000000000E+00 -0.86971963059E+02  0.86971963059E+02  0.00000000000E+00 0.  1.
         25    2    1    2    0    0  0.47378266742E+02 -0.32917015416E+02  0.88124243114E+02  0.16352724375E+03  0.12508815756E+03 0.  0.
          5    1    3    3  502    0  0.86600130139E+02 -0.26682316396E+01  0.44996363371E+02  0.97718202587E+02  0.41800000000E+01 0. -1.
         -5    1    3    3    0  502 -0.39221863396E+02 -0.30248783776E+02  0.43127879743E+02  0.65809041167E+02  0.41800000000E+01 0. -1.
        -11    1    1    2    0    0 -0.18642680656E+02  0.62891823144E+02  0.57580737957E+01  0.65848966387E+02  0.00000000000E+00 0. -1.
         11    1    1    2    0    0 -0.28735586087E+02 -0.29974807728E+02  0.31965899443E+01  0.41646622832E+02  0.00000000000E+00 0.  1.
</event>
<event>
 7    1  0.2686828E-009  0.1028148E+03  0.7561462E-02  0.1274486E+00
         -2   -1    0    0    0  501 -0.00000000000E+00  0.00000000000E+00  0.32526038825E+02  0.32526038825E+02  0.00000000000E+00 0. -1.
          2   -1    0    0  501    0  0.00000000000E+00 -0.00000000000E+00 -0.66988473525E+03  0.66988473525E+03  0.00000000000E+00 0.  1.
         25    2    1    2    0    0 -0.25984113837E+02 -0.10952750315E+02 -0.57179117588E+03  0.58599002079E+03  0.12507605181E+03 0.  0.
          5    1    3    3  502    0 -0.63279318106E+02 -0.33164466488E+02 -0.46753666604E+03  0.47298219885E+03  0.41800000000E+01 0.  1.
         -5    1    3    3    0  502  0.37295204269E+02  0.22211716173E+02 -0.10425450984E+03  0.11300782193E+03  0.41800000000E+01 0.  1.
        -11    1    1    2    0    0  0.46843300473E+02  0.35108068120E+02 -0.22271635514E+02  0.62633034373E+02  0.00000000000E+00 0.  1.
         11    1    1    2    0    0 -0.20859186636E+02 -0.24155317805E+02 -0.43295885028E+02  0.53787718912E+02  0.00000000000E+00 0. -1.
</event>
<event>
 7    1  0.2686828E-009  0.1168453E+03  0.7561462E-02  0.1248394E+00
          3   -1    0    0  501    0  0.00000000000E+00  0.00000000000E+00  0.78799443012E+02  0.78799443012E+02  0.00000000000E+00 0. -1.
         -3   -1    0    0    0  501 -0.00000000000E+00 -0.00000000000E+00 -0.20267548908E+03  0.20267548908E+03  0.00000000000E+00 0.  1.
         25    2    1    2    0    0  0.52338339766E+02  0.17878378512E+02 -0.28130229943E+02  0.13963533982E+03  0.12509108706E+03 0.  0.
          5    1    3    3  502    0  0.89939055907E+02  0.52636104512E+01  0.10893830400E+01  0.90196444098E+02  0.41800000000E+01 0.  1.
         -5    1    3    3    0  502 -0.37600716141E+02  0.12614768061E+02 -0.29219612982E+02  0.49438895724E+02  0.41800000000E+01 0.  1.
        -11    1    1    2    0    0 -0.31890034048E+02 -0.53652761722E+02 -0.67186864345E+02  0.91704241192E+02  0.00000000000E+00 0. -1.
         11    1    1    2    0    0 -0.20448305718E+02  0.35774383210E+02 -0.28558951776E+02  0.50135351075E+02  0.00000000000E+00 0.  1.
</event>
<event>
 7    1  0.2686828E-009  0.1294515E+03  0.7561462E-02  0.1228272E+00
          1   -1    0    0  501    0  0.00000000000E+00  0.00000000000E+00  0.10145029205E+04  0.10145029205E+04  0.00000000000E+00 0. -1.
         -1   -1    0    0    0  501 -0.00000000000E+00 -0.00000000000E+00 -0.20806149232E+02  0.20806149232E+02  0.00000000000E+00 0.  1.
         25    2    1    2    0    0 -0.67591734507E+02  0.48768070624E+02  0.70655983537E+03  0.72237174430E+03  0.12508864347E+03 0.  0.
          5    1    3    3  502    0  0.37468944369E+00  0.67273021264E+02  0.48977762759E+03  0.49439396909E+03  0.41800000000E+01 0. -1.
         -5    1    3    3    0  502 -0.67966423951E+02 -0.18504950640E+02  0.21678220778E+03  0.22797777521E+03  0.41800000000E+01 0. -1.
        -11    1    1    2    0    0  0.83915482712E+02 -0.17585961417E+02  0.16661108173E+03  0.18737749821E+03  0.00000000000E+00 0.  1.
         11    1    1    2    0    0 -0.16323748205E+02 -0.31182109207E+02  0.12052585417E+03  0.12555982722E+03  0.00000000000E+00 0. -1.
</event>
<event>
 7    1  0.2686828E-009  0.1290326E+03  0.7561462E-02  0.1228898E+00
         -1   -1    0    0    0  501 -0.00000000000E+00  0.00000000000E+00  0.57224443178E+02  0.57224443178E+02  0.00000000000E+00 0.  1.
          1   -1    0    0  501    0  0.00000000000E+00 -0.00000000000E+00 -0.39658057839E+03  0.39658057839E+03  0.00000000000E+00 0. -1.
         25    2    1    2    0    0 -0.11457576419E+02 -0.97391241104E+02 -0.12799059661E+03  0.20407195757E+03  0.12508973236E+03 0.  0.
          5    1    3    3  502    0 -0.38615520349E+02 -0.93161243639E+01  0.70129836243E+01  0.40553704199E+02  0.41800000000E+01 0.  1.
         -5    1    3    3    0  502  0.27157943929E+02 -0.88075116740E+02 -0.13500358024E+03  0.16351825337E+03  0.41800000000E+01 0.  1.
        -11    1    1    2    0    0  0.45239821173E+02  0.63874787841E+02 -0.89460433548E+02  0.11886883154E+03  0.00000000000E+00 0.  1.
         11    1    1    2    0    0 -0.33782244753E+02  0.33516453263E+02 -0.12190510505E+03  0.13086423246E+03  0.00000000000E+00 0. -1.
</event>
<event>
 7    1  0.2686828E-009  0.9874314E+02  0.7561462E-02  0.1282961E+00
          2   -1    0    0  501    0  0.00000000000E+00  0.00000000000E+00  0.10651800483E+04  0.10651800483E+04  0.00000000000E+00 0. -1.
         -2   -1    0    0    0  501 -0.00000000000E+00 -0.00000000000E+00 -0.17617046412E+02  0.17617046412E+02  0.00000000000E+00 0.  1.
         25    2    1    2    0    0  0.46655607267E+02 -0.20388394564E+02  0.86035773210E+03  0.87089385154E+03  0.12509293003E+03 0.  0.
          5    1    3    3  502    0  0.76713574008E+02  0.23771143598E+02  0.46175158245E+03  0.46870250266E+03  0.41800000000E+01 0. -1.
         -5    1    3    3    0  502 -0.30057966741E+02 -0.44159538162E+02  0.39860614965E+03  0.40219134888E+03  0.41800000000E+01 0. -1.
        -11    1    1    2    0    0  0.32306599027E+01  0.12582050473E+02 -0.44320365903E+01  0.13725454668E+02  0.00000000000E+00 0.  1.
         11    1    1    2    0    0 -0.49886267170E+02  0.78063440907E+01  0.19163730639E+03  0.19817778851E+03  0.00000000000E+00 0. -1.
</event>
<event>
 7    1  0.2686828E-009  0.1119221E+03  0.7561462E-02  0.1257051E+00
          1   -1    0    0  501    0  0.00000000000E+00  0.00000000000E+00  0.21862104833E+03  0.21862104833E+03  0.00000000000E+00 0.  1.
         -1   -1    0    0    0  501 -0.00000000000E+00 -0.00000000000E+00 -0.75574276433E+02  0.75574276433E+02  0.00000000000E+00 0. -1.
         25    2    1    2    0    0 -0.29747275784E+02  0.55125214719E+02  0.49556645038E+02  0.14841555409E+03  0.12509047092E+03 0.  0.
          5    1    3    3  502    0  0.40453575964E+02  0.14988212106E+02 -0.13924773018E+02  0.45524828545E+02  0.41800000000E+01 0. -1.
         -5    1    3    3    0  502 -0.70200851748E+02  0.40137002613E+02  0.63481418056E+02  0.10289072555E+03  0.41800000000E+01 0. -1.
        -11    1    1    2    0    0 -0.20134633766E+02 -0.44047294326E+02  0.12500370236E+02  0.50018265367E+02  0.00000000000E+00 0.  1.
         11    1    1    2    0    0  0.49881909550E+02 -0.11077920393E+02  0.80989756624E+02  0.95761505307E+02  0.00000000000E+00 0. -1.
</event>
<event>
 7    1  0.2686828E-009  0.8634757E+02  0.7561462E-02  0.1311946E+00
         -2   -1    0    0    0  501 -0.00000000000E+00  0.00000000000E+00  0.59375079158E+02  0.59375079158E+02  0.00000000000E+00 0. -1.
          2   -1    0    0  501    0  0.00000000000E+00 -0.00000000000E+00 -0.30495354521E+03  0.30495354521E+03  0.00000000000E+00 0.  1.
         25    2    1    2    0    0 -0.92282030773E+01  0.98932136202E+01 -0.29944712517E+02  0.12933278689E+03  0.12508896254E+03 0.  0.
          5    1    3    3  502    0 -0.52719793167E+02  0.14361822457E+02 -0.55929194651E+02  0.78301888548E+02  0.41800000000E+01 0. -1.
         -5    1    3    3    0  502  0.43491590090E+02 -0.44686088371E+01  0.25984482135E+02  0.51030898339E+02  0.41800000000E+01 0. -1.
        -11    1    1    2    0    0 -0.54522987319E+01 -0.40057876597E+02 -0.18565388887E+03  0.19000454597E+03  0.00000000000E+00 0.  1.
         11    1    1    2    0    0  0.14680501809E+02  0.30164662977E+02 -0.29979864664E+02  0.44991291503E+02  0.00000000000E+00 0. -1.
</event>
<event>
 7    1  0.2686828E-009  0.1088635E+03  0.7561462E-02  0.1262689E+00
         -2   -1    0    0    0  501 -0.00000000000E+00  0.00000000000E+00  0.30053616472E+03  0.30053616472E+03  0.00000000000E+00 0.  1.
          2   -1    0    0  501    0  0.00000000000E+00 -0.00000000000E+00 -0.43979096542E+02  0.43979096542E+02  0.00000000000E+00 0. -1.
         25    2    1    2    0    0 -0.86132594390E+01 -0.35236520096E+02  0.14086030436E+03  0.19184159784E+03  0.12508306333E+03 0.  0.
          5    1    3    3  502    0  0.45466005939E+02 -0.46906675366E+02  0.11092490737E+03  0.12879907362E+03  0.41800000000E+01 0. -1.
         -5    1    3    3    0  502 -0.54079265378E+02  0.11670155270E+02  0.29935396988E+02  0.63042524225E+02  0.41800000000E+01 0. -1.
        -11    1    1    2    0    0 -0.29512635082E+02  0.48199267741E+02  0.49189340848E+02  0.74925004460E+02  0.00000000000E+00 0.  1.
         11    1    1    2    0    0  0.38125894521E+02 -0.12962747645E+02  0.66507422966E+02  0.77748658953E+02  0.00000000000E+00 0. -1.
</event>
<event>
 7    1  0.2686828E-009  0.1217337E+03  0.7561462E-02  0.1240264E+00
         -2   -1    0    0    0  501 -0.00000000000E+00  0.00000000000E+00  0.32386972291E+03  0.32386972291E+03  0.00000000000E+00 0.  1.
          2   -1    0    0  501    0  0.00000000000E+00 -0.00000000000E+00 -0.53026205471E+02  0.53026205471E+02  0.00000000000E+00 0. -1.
         25    2    1    2    0    0 -0.55442807705E+02 -0.48071466367E+02  0.16411797462E+03  0.21900959286E+03  0.12508285802E+03 0.  0.
          5    1    3    3  502    0 -0.39245857082E+01 -0.72070998136E+02  0.13911085260E+03  0.15677669743E+03  0.41800000000E+01 0. -1.
         -5    1    3    3    0  502 -0.51518221997E+02  0.23999531770E+02  0.25007122017E+02  0.62232895437E+02  0.41800000000E+01 0. -1.
        -11    1    1    2    0    0  0.26529734852E+02  0.71948312182E+02  0.85290204414E+02  0.11469440015E+03  0.00000000000E+00 0.  1.
         11    1    1    2    0    0  0.28913072853E+02 -0.23876845815E+02  0.21435338409E+02  0.43191935366E+02  0.00000000000E+00 0. -1.
</event>
<event>
 7    1  0.2686828E-009  0.1035340E+03  0.7561462E-02  0.1273035E+00
         -1   -1    0    0    0  501 -0.00000000000E+00  0.00000000000E+00  0.28247105451E+03  0.28247105451E+03  0.00000000000E+00 0.  1.
          1   -1    0    0  501    0  0.00000000000E+00 -0.00000000000E+00 -0.70013679623E+02  0.70013679623E+02  0.00000000000E+00 0. -1.
         25    2    1    2    0    0 -0.30287098818E+02 -0.76037830186E+02  0.14630792384E+03  0.20916892937E+03  0.12508626008E+03 0.  0.
          5    1    3    3  502    0  0.20349372640E+02 -0.63842003712E+02  0.14159464931E+03  0.15670486756E+03  0.41800000000E+01 0. -1.
         -5    1    3    3    0  502 -0.50636471458E+02 -0.12195826474E+02  0.47132745365E+01  0.52464061813E+02  0.41800000000E+01 0. -1.
        -11    1    1    2    0    0  0.11469357020E+01  0.45334631508E+02  0.85492532820E+02  0.96775603555E+02  0.00000000000E+00 0.  1.
         11    1    1    2    0    0  0.29140163116E+02  0.30703198678E+02 -0.19343081777E+02  0.46540201204E+02  0.00000000000E+00 0. -1.
</event>
<event>
 7    1  0.2686828E-009  0.1331375E+03  0.7561462E-02  0.1222873E+00
          1   -1    0    0  501    0  0.00000000000E+00  0.00000000000E+00  0.34253931674E+03  0.34253931674E+03  0.00000000000E+00 0. -1.
         -1   -1    0    0    0  501 -0.00000000000E+00 -0.00000000000E+00 -0.59663941162E+02  0.59663941162E+02  0.00000000000E+00 0.  1.
         25    2    1    2    0    0 -0.87123071240E+02  0.27535173948E+02  0.16334577448E+03  0.22511745120E+03  0.12508960567E+03 0.  0.
          5    1    3    3  502    0  0.12274558381E+02  0.44953478432E+02  0.22801289515E+02  0.52046625349E+02  0.41800000000E+01 0. -1.
         -5    1    3    3    0  502 -0.99397629621E+02 -0.17418304485E+02  0.14054448497E+03  0.17307082585E+03  0.41800000000E+01 0. -1.
        -11    1    1    2    0    0  0.79194363592E+02 -0.50681599117E+02  0.57028533429E+02  0.10996647370E+03  0.00000000000E+00 0.  1.
         11    1    1    2    0    0  0.79287076480E+01  0.23146425169E+02  0.62501067664E+02  0.67119332999E+02  0.00000000000E+00 0. -1.
</event>
<event>
 7    1  0.2686828E-009  0.9647981E+02  0.7561462E-02  0.1287878E+00
         -2   -1    0    0    0  501 -0.00000000000E+00  0.00000000000E+00  0.25943855315E+02  0.25943855315E+02  0.00000000000E+00 0.  1.
          2   -1    0    0  501    0  0.00000000000E+00 -0.00000000000E+00 -0.61566574437E+03  0.61566574437E+03  0.00000000000E+00 0. -1.
         25    2    1    2    0    0  0.28872844757E+01 -0.53026679808E+02 -0.42647477447E+03  0.44760331409E+03  0.12509128004E+03 0.  0.
          5    1    3    3  502    0 -0.34383533543E+02 -0.19902717267E+02 -0.36999945156E+03  0.37214971731E+03  0.41800000000E+01 0. -1.
         -5    1    3    3    0  502  0.37270818019E+02 -0.33123962541E+02 -0.56475322908E+02  0.75453596785E+02  0.41800000000E+01 0. -1.
        -11    1    1    2    0    0  0.34324459477E+02 -0.43375443618E+01 -0.72978314002E+02  0.80763959314E+02  0.00000000000E+00 0.  1.
         11    1    1    2    0    0 -0.37211743953E+02  0.57364224170E+02 -0.90268800577E+02  0.11324232628E+03  0.00000000000E+00 0. -1.
</event>
<event>
 7    1  0.2686828E-009  0.1241702E+03  0.7561462E-02  0.1236372E+00
         -1   -1    0    0    0  501 -0.00000000000E+00  0.00000000000E+00  0.15162635751E+03  0.15162635751E+03  0.00000000000E+00 0.  1.
          1   -1    0    0  501    0  0.00000000000E+00 -0.00000000000E+00 -0.15932525515E+03  0.15932525515E+03  0.00000000000E+00 0. -1.
         25    2    1    2    0    0 -0.43861413792E+01  0.10753675297E+03 -0.38773539472E+02  0.16950894740E+03  0.12508598806E+03 0.  0.
          5    1    3    3  502    0  0.12976221902E+02  0.97800079505E+02  0.25590212626E+02  0.10200769220E+03  0.41800000000E+01 0. -1.
         -5    1    3    3    0  502 -0.17362363281E+02  0.97366734662E+01 -0.64363752099E+02  0.67501255196E+02  0.41800000000E+01 0. -1.
        -11    1    1    2    0    0 -0.26579958271E+02 -0.12638372943E+02 -0.13182219071E+02  0.32248931021E+02  0.00000000000E+00 0. -1.
         11    1    1    2    0    0  0.30966099651E+02 -0.94898380028E+02  0.44256860902E+02  0.10919373424E+03  0.00000000000E+00 0.  1.
</event>
<event>
 7    1  0.2686828E-009  0.1252466E+03  0.7561462E-02  0.1234684E+00
          1   -1    0    0  501    0  0.00000000000E+00  0.00000000000E+00  0.15693453882E+02  0.15693453882E+02  0.00000000000E+00 0.  1.
         -1   -1    0    0    0  501 -0.00000000000E+00 -0.00000000000E+00 -0.15992388286E+04  0.15992388286E+04  0.00000000000E+00 0. -1.
         25    2    1    2    0    0  0.68079590954E+02 -0.68246466344E+02 -0.11434825834E+04  0.11543370676E+04  0.12509690779E+03 0.  0.
          5    1    3    3  502    0  0.77562797502E+02 -0.40757843590E+02 -0.10882337716E+04  0.10917634374E+04  0.41800000000E+01 0. -1.
         -5    1    3    3    0  502 -0.94832065483E+01 -0.27488622754E+02 -0.55248811810E+02  0.62573630179E+02  0.41800000000E+01 0. -1.
        -11    1    1    2    0    0 -0.58497315718E+02 -0.57528990814E+01 -0.15045599617E+03  0.16153030235E+03  0.00000000000E+00 0.  1.
         11    1    1    2    0    0 -0.95822752363E+01  0.73999365426E+02 -0.28960679521E+03  0.29906491255E+03  0.00000000000E+00 0. -1.
</event>
<event>
 7    1  0.2686828E-009  0.1058297E+03  0.7561462E-02  0.1268494E+00
         -4   -1    0    0    0  501 -0.00000000000E+00  0.00000000000E+00  0.47738869793E+03  0.47738869793E+03  0.00000000000E+00 0. -1.
          4   -1    0    0  501    0  0.00000000000E+00 -0.00000000000E+00 -0.24874738867E+02  0.24874738867E+02  0.00000000000E+00 0.  1.
         25    2    1    2    0    0 -0.45825225937E+00 -0.99138843848E+01  0.28003478236E+03  0.30686719230E+03  0.12509795874E+03 0.  0.
          5    1    3    3  502    0  0.10198515720E+02  0.54256746640E+02  0.86987925316E+02  0.10311244265E+03  0.41800000000E+01 0.  1.
         -5    1    3    3    0  502 -0.10656767979E+02 -0.64170631025E+02  0.19304685705E+03  0.20375474965E+03  0.41800000000E+01 0.  1.
        -11    1    1    2    0    0  0.31403687800E+01 -0.40502005471E+02  0.89083129828E+02  0.97908520484E+02  0.00000000000E+00 0. -1.
         11    1    1    2    0    0 -0.26821165206E+01  0.50415889856E+02  0.83396046876E+02  0.97487724015E+02  0.00000000000E+00 0.  1.
</event>
<event>
 7    1  0.2686828E-009  0.3061687E+03  0.7561462E-02  0.1082197E+00
          1   -1    0    0  501    0  0.00000000000E+00  0.00000000000E+00  0.45055085962E+03  0.45055085962E+03  0.00000000000E+00 0. -1.
         -1   -1    0    0    0  501 -0.00000000000E+00 -0.00000000000E+00 -0.22628256907E+03  0.22628256907E+03  0.00000000000E+00 0.  1.
         25    2    1    2    0    0 -0.23692539400E+03  0.16503364472E+03  0.27497758258E+02  0.31587114331E+03  0.12509478909E+03 0.  0.
          5    1    3    3  502    0 -0.79820957713E+02 -0.30601801175E+01 -0.16269906722E+02  0.81626786396E+02  0.41800000000E+01 0. -1.
         -5    1    3    3    0  502 -0.15710443628E+03  0.16809382484E+03  0.43767664980E+02  0.23424435692E+03  0.41800000000E+01 0. -1.
        -11    1    1    2    0    0  0.43042578928E+02 -0.79317974499E+02  0.50528626270E+02  0.10342701171E+03  0.00000000000E+00 0.  1.
         11    1    1    2    0    0  0.19388281507E+03 -0.85715670223E+02  0.14624190602E+03  0.25753527366E+03  0.00000000000E+00 0. -1.
</event>
<event>
 7    1  0.2686828E-009  0.6722191E+02  0.7561462E-02  0.1369803E+00
          2   -1    0    0  501    0  0.00000000000E+00  0.00000000000E+00  0.54047355156E+03  0.54047355156E+03  0.00000000000E+00 0. -1.
         -2   -1    0    0    0  501 -0.00000000000E+00 -0.00000000000E+00 -0.31355715138E+02  0.31355715138E+02  0.00000000000E+00 0.  1.
         25    2    1    2    0    0 -0.72090806052E+01 -0.59430886443E+02  0.36386093578E+03  0.38939194888E+03  0.12508920080E+03 0.  0.
          5    1    3    3  502    0 -0.16201787147E+02 -0.47359238501E+02  0.36941303256E+03  0.37281209262E+03  0.41800000000E+01 0. -1.
         -5    1    3    3    0  502  0.89927065418E+01 -0.12071647942E+02 -0.55520967769E+01  0.16579856260E+02  0.41800000000E+01 0. -1.
        -11    1    1    2    0    0  0.17290397209E+02  0.14561915345E+02  0.13291334721E+03  0.13482197551E+03  0.00000000000E+00 0. -1.
         11    1    1    2    0    0 -0.10081316604E+02  0.44868971098E+02  0.12343553430E+02  0.47615342308E+02  0.00000000000E+00 0.  1.
</event>
<event>
 7    1  0.2686828E-009  0.2426370E+03  0.7561462E-02  0.1118048E+00
         -2   -1    0    0    0  501 -0.00000000000E+00  0.00000000000E+00  0.18753124227E+03  0.18753124227E+03  0.00000000000E+00 0.  1.
          2   -1    0    0  501    0  0.00000000000E+00 -0.00000000000E+00 -0.34378388662E+03  0.34378388662E+03  0.00000000000E+00 0. -1.
         25    2    1    2    0    0 -0.78130746622E+02  0.20506665244E+03 -0.10646050376E+02  0.25281900281E+03  0.12508942514E+03 0.  0.
          5    1    3    3  502    0 -0.42630505899E+02  0.21050158460E+03  0.10494394232E+01  0.21481818097E+03  0.41800000000E+01 0.  1.
         -5    1    3    3    0  502 -0.35500240723E+02 -0.54349321552E+01 -0.11695489799E+02  0.38000821841E+02  0.41800000000E+01 0.  1.
        -11    1    1    2    0    0  0.91893490425E+02 -0.13771774067E+03 -0.81635064768E+02  0.18459380671E+03  0.00000000000E+00 0.  1.
         11    1    1    2    0    0 -0.13762743802E+02 -0.67348911775E+02 -0.63971529211E+02  0.93902319374E+02  0.00000000000E+00 0. -1.
</event>
<event>
 7    1  0.2686828E-009  0.1636345E+03  0.7561462E-02  0.1184653E+00
         -1   -1    0    0    0  501 -0.00000000000E+00  0.00000000000E+00  0.26167293759E+03  0.26167293759E+03  0.00000000000E+00 0.  1.
          1   -1    0    0  501    0  0.00000000000E+00 -0.00000000000E+00 -0.11240582143E+03  0.11240582143E+03  0.00000000000E+00 0. -1.
         25    2    1    2    0    0  0.12862330614E+03  0.34220425790E+02  0.86020382695E+02  0.20189836212E+03  0.12509376469E+03 0.  0.
          5    1    3    3  502    0  0.14460912131E+03  0.50038979422E+02  0.91548048799E+02  0.17836539761E+03  0.41800000000E+01 0. -1.
         -5    1    3    3    0  502 -0.15985815171E+02 -0.15818553632E+02 -0.55276661038E+01  0.23532964502E+02  0.41800000000E+01 0. -1.
        -11    1    1    2    0    0 -0.27819200658E+02 -0.41817460484E+02  0.48861961494E+02  0.70072100065E+02  0.00000000000E+00 0.  1.
         11    1    1    2    0    0 -0.10080410548E+03  0.75970346938E+01  0.14384771970E+02  0.10210829683E+03  0.00000000000E+00 0. -1.
</event>
<event>
 7    1  0.2686828E-009  0.7895342E+02  0.7561462E-02  0.1332048E+00
         -2   -1    0    0    0  501 -0.00000000000E+00  0.00000000000E+00  0.50277891787E+02  0.50277891787E+02  0.00000000000E+00 0. -1.
          2   -1    0    0  501    0  0.00000000000E+00 -0.00000000000E+00 -0.33332447460E+03  0.33332447460E+03  0.00000000000E+00 0.  1.
         25    2    1    2    0    0  0.15449492045E+02  0.19087975875E+02 -0.25591145040E+03  0.28590405742E+03  0.12508965577E+03 0.  0.
          5    1    3    3  502    0  0.18763455076E+02 -0.26650043819E+02 -0.23143296605E+03  0.23375410639E+03  0.41800000000E+01 0.  1.
         -5    1    3    3    0  502 -0.33139630304E+01  0.45738019694E+02 -0.24478484348E+02  0.52149951030E+02  0.41800000000E+01 0.  1.
        -11    1    1    2    0    0  0.30061570293E+02 -0.11594467024E+01  0.14561862589E+02  0.33422898845E+02  0.00000000000E+00 0. -1.
         11    1    1    2    0    0 -0.45511062338E+02 -0.17928529173E+02 -0.41696995010E+02  0.64275410121E+02  0.00000000000E+00 0.  1.
</event>
<event>
 7    1  0.2686828E-009  0.8349222E+02  0.7561462E-02  0.1319423E+00
         -2   -1    0    0    0  501 -0.00000000000E+00  0.00000000000E+00  0.10905981193E+03  0.10905981193E+03  0.00000000000E+00 0.  1.
          2   -1    0    0  501    0  0.00000000000E+00 -0.00000000000E+00 -0.21997765122E+03  0.21997765122E+03  0.00000000000E+00 0. -1.
         25    2    1    2    0    0 -0.45039091801E+02 -0.35126782511E+02  0.40667886232E+02  0.14340470859E+03  0.12509445566E+03 0.  0.
          5    1    3    3  502    0  0.88968966136E+01  0.94357165003E+00  0.70981590166E+02  0.71665219174E+02  0.41800000000E+01 0.  1.
         -5    1    3    3    0  502 -0.53935988414E+02 -0.36070354161E+02 -0.30313703934E+02  0.71739489417E+02  0.41800000000E+01 0.  1.
        -11    1    1    2    0    0 -0.91897909965E+00  0.45060356505E+02 -0.27163535755E+02  0.52622599001E+02  0.00000000000E+00 0.  1.
         11    1    1    2    0    0  0.45958070900E+02 -0.99335739934E+01 -0.12442218977E+03  0.13301015555E+03  0.00000000000E+00 0. -1.
</event>
<event>
 7    1  0.2686828E-009  0.9846446E+02  0.7561462E-02  0.1283559E+00
         -2   -1    0    0    0  501 -0.00000000000E+00  0.00000000000E+00  0.24797062531E+02  0.24797062531E+02  0.00000000000E+00 0.  1.
          2   -1    0    0  501    0  0.00000000000E+00 -0.00000000000E+00 -0.57108230063E+03  0.57108230063E+03  0.00000000000E+00 0. -1.
         25    2    1    2    0    0 -0.28055557039E+02 -0.37258048825E+02 -0.35329049844E+03  0.37767581684E+03  0.12509824082E+03 0.  0.
          5    1    3    3  502    0 -0.42923786049E+02  0.10993963466E+02 -0.38539691326E+02  0.58873583626E+02  0.41800000000E+01 0. -1.
         -5    1    3    3    0  502  0.14868229009E+02 -0.48252012291E+02 -0.31475080711E+03  0.31880223321E+03  0.41800000000E+01 0. -1.
        -11    1    1    2    0    0  0.46978761222E+02 -0.12425382071E+02 -0.88639254158E+02  0.10108566418E+03  0.00000000000E+00 0.  1.
         11    1    1    2    0    0 -0.18923204183E+02  0.49683430896E+02 -0.10435548550E+03  0.11711788214E+03  0.00000000000E+00 0. -1.
</event>
<event>
 7    1  0.2686828E-009  0.1619145E+03  0.7561462E-02  0.1186552E+00
          2   -1    0    0  501    0  0.00000000000E+00  0.00000000000E+00  0.13184680401E+04  0.13184680401E+04  0.00000000000E+00 0. -1.
         -2   -1    0    0    0  501 -0.00000000000E+00 -0.00000000000E+00 -0.21007650652E+02  0.21007650652E+02  0.00000000000E+00 0.  1.
         25    2    1    2    0    0  0.45417615355E+02  0.11751728463E+03  0.68323680196E+03  0.70592860767E+03  0.12509835974E+03 0.  0.
          5    1    3    3  502    0  0.13075999426E+00  0.12273661909E+03  0.58210459222E+03  0.59491808129E+03  0.41800000000E+01 0.  1.
         -5    1    3    3    0  502  0.45286855360E+02 -0.52193344654E+01  0.10113220974E+03  0.11101052638E+03  0.41800000000E+01 0.  1.
        -11    1    1    2    0    0 -0.60268871969E+02 -0.31597758298E+02  0.26259722486E+03  0.27127118859E+03  0.00000000000E+00 0.  1.
         11    1    1    2    0    0  0.14851256614E+02 -0.85919526329E+02  0.35162636260E+03  0.36227589445E+03  0.00000000000E+00 0. -1.
</event>
<event>
 7    1  0.2686828E-009  0.1744084E+03  0.7561462E-02  0.1173327E+00
         -2   -1    0    0    0  501 -0.00000000000E+00  0.00000000000E+00  0.38835839898E+03  0.38835839898E+03  0.00000000000E+00 0.  1.
          2   -1    0    0  501    0  0.00000000000E+00 -0.00000000000E+00 -0.18447046880E+03  0.18447046880E+03  0.00000000000E+00 0. -1.
         25    2    1    2    0    0 -0.30957136967E+02 -0.14346495939E+03  0.31228794708E+03  0.36703059925E+03  0.12508860855E+03 0.  0.
          5    1    3    3  502    0 -0.67953423320E+02 -0.68275022045E+02  0.23052725361E+03  0.24987883751E+03  0.41800000000E+01 0.  1.
         -5    1    3    3    0  502  0.36996286353E+02 -0.75189937345E+02  0.81760693469E+02  0.11715176174E+03  0.41800000000E+01 0.  1.
        -11    1    1    2    0    0 -0.16952836876E+02  0.10687302379E+03 -0.41895723822E+02  0.11603660442E+03  0.00000000000E+00 0.  1.
         11    1    1    2    0    0  0.47909973844E+02  0.36591935602E+02 -0.66504293088E+02  0.89761664110E+02  0.00000000000E+00 0. -1.
</event>
<event>
 7    1  0.2686828E-009  0.1452180E+03  0.7561462E-02  0.1206475E+00
          2   -1    0    0  501    0  0.00000000000E+00  0.00000000000E+00  0.61924145927E+03  0.61924145927E+03  0.00000000000E+00 0. -1.
         -2   -1    0    0    0  501 -0.00000000000E+00 -0.00000000000E+00 -0.45788300474E+02  0.45788300474E+02  0.00000000000E+00 0.  1.
         25    2    1    2    0    0 -0.78426558508E+02  0.10758638683E+03  0.28595151412E+03  0.33932358685E+03  0.12508665976E+03 0.  0.
          5    1    3    3  502    0  0.10757738281E+02  0.13321577661E+02 -0.69415224916E+01  0.18943349725E+02  0.41800000000E+01 0.  1.
         -5    1    3    3    0  502 -0.89184296788E+02  0.94264809174E+02  0.29289303661E+03  0.32038023712E+03  0.41800000000E+01 0.  1.
        -11    1    1    2    0    0  0.39509586253E+02 -0.93641435469E+02  0.14321397432E+03  0.17561312105E+03  0.00000000000E+00 0.  1.
         11    1    1    2    0    0  0.38916972255E+02 -0.13944951366E+02  0.14428767035E+03  0.15009305185E+03  0.00000000000E+00 0. -1.
</event>
<event>
 7    1  0.2686828E-009  0.8661586E+02  0.7561462E-02  0.1311260E+00
         -2   -1    0    0    0  501 -0.00000000000E+00  0.00000000000E+00  0.32338112387E+02  0.32338112387E+02  0.00000000000E+00 0.  1.
          2   -1    0    0  501    0  0.00000000000E+00 -0.00000000000E+00 -0.53365759004E+03  0.53365759004E+03  0.00000000000E+00 0. -1.
         25    2    1    2    0    0 -0.12252954430E+02  0.48474619315E+02 -0.21878318022E+03  0.25693274534E+03  0.12509369318E+03 0.  0.
          5    1    3    3  502    0  0.61712512914E+01  0.14944969773E+01 -0.20405672199E+03  0.20419827632E+03  0.41800000000E+01 0.  1.
         -5    1    3    3    0  502 -0.18424205721E+02  0.46980122338E+02 -0.14726458236E+02  0.52734469027E+02  0.41800000000E+01 0.  1.
        -11    1    1    2    0    0  0.57239630193E+02 -0.15761758108E+02 -0.83870829584E+02  0.10275759991E+03  0.00000000000E+00 0.  1.
         11    1    1    2    0    0 -0.44986675764E+02 -0.32712861207E+02 -0.19866546785E+03  0.20630535718E+03  0.00000000000E+00 0. -1.
</event>
<event>
 7    1  0.2686828E-009  0.1013069E+03  0.7561462E-02  0.1277572E+00
         -1   -1    0    0    0  501 -0.00000000000E+00  0.00000000000E+00  0.31799301765E+02  0.31799301765E+02  0.00000000000E+00 0.  1.
          1   -1    0    0  501    0  0.00000000000E+00 -0.00000000000E+00 -0.44461565230E+03  0.44461565230E+03  0.00000000000E+00 0. -1.
         25    2    1    2    0    0  0.10060884450E+02  0.11510966537E+02 -0.31077223666E+03  0.33535051828E+03  0.12508742255E+03 0.  0.
          5    1    3    3  502    0  0.63470934362E+02  0.12980607705E+02 -0.11174888005E+03  0.12923753432E+03  0.41800000000E+01 0. -1.
         -5    1    3    3    0  502 -0.53410049911E+02 -0.14696411680E+01 -0.19902335662E+03  0.20611298396E+03  0.41800000000E+01 0. -1.
        -11    1    1    2    0    0  0.34777011740E+02 -0.17384059342E+02 -0.12654516831E+02  0.40887441360E+02  0.00000000000E+00 0.  1.
         11    1    1    2    0    0 -0.44837896190E+02  0.58730928054E+01 -0.89389597042E+02  0.10017699443E+03  0.00000000000E+00 0. -1.
</event>
<event>
 7    1  0.2686828E-009  0.1638510E+03  0.7561462E-02  0.1184416E+00
         -4   -1    0    0    0  501 -0.00000000000E+00  0.00000000000E+00  0.26402299611E+03  0.26402299611E+03  0.00000000000E+00 0.  1.
          4   -1    0    0  501    0  0.00000000000E+00 -0.00000000000E+00 -0.13102146104E+03  0.13102146104E+03  0.00000000000E+00 0. -1.
         25    2    1    2    0    0  0.83586852739E+02  0.12467718762E+03  0.76592473529E+02  0.20987176860E+03  0.12509432118E+03 0.  0.
          5    1    3    3  502    0  0.50603929538E+02  0.34668217853E+02 -0.28325000742E+02  0.67693582272E+02  0.41800000000E+01 0.  1.
         -5    1    3    3    0  502  0.32982923201E+02  0.90008969766E+02  0.10491747427E+03  0.14217818633E+03  0.41800000000E+01 0.  1.
        -11    1    1    2    0    0 -0.26818609486E+02 -0.10773661476E+03  0.59283781246E+02  0.12586096572E+03  0.00000000000E+00 0.  1.
         11    1    1    2    0    0 -0.56768243253E+02 -0.16940572861E+02 -0.28747197051E+01  0.59311722823E+02  0.00000000000E+00 0. -1.
</event>
<event>
 7    1  0.2686828E-009  0.1118124E+03  0.7561462E-02  0.1257250E+00
          1   -1    0    0  501    0  0.00000000000E+00  0.00000000000E+00  0.42894247357E+03  0.42894247357E+03  0.00000000000E+00 0. -1.
         -1   -1    0    0    0  501 -0.00000000000E+00 -0.00000000000E+00 -0.50035952517E+02  0.50035952517E+02  0.00000000000E+00 0.  1.
         25    2    1    2    0    0  0.53634975526E+02  0.77447990352E+02  0.25214056761E+03  0.29681144387E+03  0.12508903056E+03 0.  0.
          5    1    3    3  502    0  0.20828503163E+01  0.77442074495E+02  0.60698735334E+02  0.98505949255E+02  0.41800000000E+01 0. -1.
         -5    1    3    3    0  502  0.51552125210E+02  0.59158575743E-02  0.19144183228E+03  0.19830549461E+03  0.41800000000E+01 0. -1.
        -11    1    1    2    0    0 -0.11939486157E+02 -0.14014477131E+02  0.99993387503E+02  0.10167415819E+03  0.00000000000E+00 0. -1.
         11    1    1    2    0    0 -0.41695489369E+02 -0.63433513221E+02  0.26772565939E+02  0.80492824029E+02  0.00000000000E+00 0.  1.
</event>
<event>
 7    1  0.2686828E-009  0.1094041E+03  0.7561462E-02  0.1261677E+00
         -1   -1    0    0    0  501 -0.00000000000E+00  0.00000000000E+00  0.31489460903E+02  0.31489460903E+02  0.00000000000E+00 0.  1.
          1   -1    0    0  501    0  0.00000000000E+00 -0.00000000000E+00 -0.68928796909E+03  0.68928796909E+03  0.00000000000E+00 0. -1.
         25    2    1    2    0    0  0.99509143415E+02  0.11173367556E+02 -0.38332230604E+03  0.41546392476E+03  0.12508944283E+03 0.  0.
          5    1    3    3  502    0  0.18125441552E+02 -0.17516208892E+02 -0.27831117399E+03  0.27948153995E+03  0.41800000000E+01 0. -1.
         -5    1    3    3    0  502  0.81383701862E+02  0.28689576448E+02 -0.10501113205E+03  0.13598238481E+03  0.41800000000E+01 0. -1.
        -11    1    1    2    0    0 -0.49877464536E+02  0.13165657513E+02 -0.42488690718E+02  0.66831017089E+02  0.00000000000E+00 0.  1.
         11    1    1    2    0    0 -0.49631678879E+02 -0.24339025069E+02 -0.23198751143E+03  0.23848248814E+03  0.00000000000E+00 0. -1.
</event>
<event>
 7    1  0.2686828E-009  0.1111251E+03  0.7561462E-02  0.1258501E+00
          2   -1    0    0  501    0  0.00000000000E+00  0.00000000000E+00  0.59398969063E+02  0.59398969063E+02  0.00000000000E+00 0. -1.
         -2   -1    0    0    0  501 -0.00000000000E+00 -0.00000000000E+00 -0.29092725644E+03  0.29092725644E+03  0.00000000000E+00 0.  1.
         25    2    1    2    0    0  0.73848132635E+02 -0.63665784480E+00 -0.12519412910E+03  0.19176634180E+03  0.12508720101E+03 0.  0.
          5    1    3    3  502    0  0.28220847770E+01 -0.28359087964E+02 -0.11026043371E+03  0.11396068478E+03  0.41800000000E+01 0. -1.
         -5    1    3    3    0  502  0.71026047858E+02  0.27722430119E+02 -0.14933695390E+02  0.77805657018E+02  0.41800000000E+01 0. -1.
        -11    1    1    2    0    0  0.51501626857E+01  0.31762957093E+02 -0.36172816844E+02  0.48413658170E+02  0.00000000000E+00 0.  1.
         11    1    1    2    0    0 -0.78998295320E+02 -0.31126299249E+02 -0.70161341428E+02  0.11014622553E+03  0.00000000000E+00 0. -1.
</event>
<event>
 7    1  0.2686828E-009  0.1060262E+03  0.7561462E-02  0.1268111E+00
         -1   -1    0    0    0  501 -0.00000000000E+00  0.00000000000E+00  0.64280763677E+02  0.64280763677E+02  0.00000000000E+00 0.  1.
          1   -1    0    0  501    0  0.00000000000E+00 -0.00000000000E+00 -0.34987263075E+03  0.34987263075E+03  0.00000000000E+00 0. -1.
         25    2    1    2    0    0 -0.33630293095E+02 -0.48574199960E+02 -0.26794648739E+03  0.30155093359E+03  0.12508875220E+03 0.  0.
          5    1    3    3  502    0 -0.19188055702E+02  0.42058732340E+02 -0.93789186910E+02  0.10464703736E+03  0.41800000000E+01 0.  1.
         -5    1    3    3    0  502 -0.14442237394E+02 -0.90632932300E+02 -0.17415730048E+03  0.19690389623E+03  0.41800000000E+01 0.  1.
        -11    1    1    2    0    0  0.22244624585E+01  0.41514084072E+02  0.32667930554E+02  0.52873065887E+02  0.00000000000E+00 0.  1.
         11    1    1    2    0    0  0.31405830637E+02  0.70601158882E+01 -0.50313310236E+02  0.59729394951E+02  0.00000000000E+00 0. -1.
</event>
<event>
 7    1  0.2686828E-009  0.5258450E+02  0.7561462E-02  0.1431880E+00
          1   -1    0    0  501    0  0.00000000000E+00  0.00000000000E+00  0.94354548602E+02  0.94354548602E+02  0.00000000000E+00 0. -1.
         -1   -1    0    0    0  501 -0.00000000000E+00 -0.00000000000E+00 -0.12950545104E+03  0.12950545104E+03  0.00000000000E+00 0.  1.
         25    2    1    2    0    0 -0.62542841560E+00  0.20112525973E+02 -0.19428872589E+02  0.12818193100E+03  0.12509285145E+03 0.  0.
          5    1    3    3  502    0 -0.26661674288E+02 -0.81012786823E+01 -0.63568290632E+02  0.69533269491E+02  0.41800000000E+01 0.  1.
         -5    1    3    3    0  502  0.26036245873E+02  0.28213804655E+02  0.44139418043E+02  0.58648661514E+02  0.41800000000E+01 0.  1.
        -11    1    1    2    0    0 -0.15873367399E+02 -0.72365795164E+01 -0.51419380582E+02  0.54298108394E+02  0.00000000000E+00 0.  1.
         11    1    1    2    0    0  0.16498795815E+02 -0.12875946456E+02  0.35697350733E+02  0.41379960244E+02  0.00000000000E+00 0. -1.
</event>
<event>
 7    1  0.2686828E-009  0.1123537E+03  0.7561462E-02  0.1256272E+00
         -1   -1    0    0    0  501 -0.00000000000E+00  0.00000000000E+00  0.13596191598E+03  0.13596191598E+03  0.00000000000E+00 0.  1.
          1   -1    0    0  501    0  0.00000000000E+00 -0.00000000000E+00 -0.20116538382E+03  0.20116538382E+03  0.00000000000E+00 0. -1.
         25    2    1    2    0    0  0.38128862918E+02 -0.54589623226E+02  0.71502949761E+02  0.15872880841E+03  0.12509326778E+03 0.  0.
          5    1    3    3  502    0 -0.14883718122E+02  0.17771537518E+02  0.64488734121E+02  0.68655821599E+02  0.41800000000E+01 0.  1.
         -5    1    3    3    0  502  0.53012581040E+02 -0.72361160744E+02  0.70142156397E+01  0.90072986815E+02  0.41800000000E+01 0.  1.
        -11    1    1    2    0    0 -0.63690588363E+02  0.17043201820E+02 -0.10103373108E+03  0.12064317880E+03  0.00000000000E+00 0. -1.
         11    1    1    2    0    0  0.25561725445E+02  0.37546421407E+02 -0.35672686520E+02  0.57755312585E+02  0.00000000000E+00 0.  1.
</event>
<event>
 7    1  0.2874490E-009  0.1013493E+03  0.7561462E-02  0.1277484E+00
          4   -1    0    0  501    0  0.00000000000E+00  0.00000000000E+00  0.21737405918E+03  0.21737405918E+03  0.00000000000E+00 0. -1.
         -4   -1    0    0    0  501 -0.00000000000E+00 -0.00000000000E+00 -0.92216075270E+02  0.92216075270E+02  0.00000000000E+00 0.  1.
         25    2    1    2    0    0  0.81771801333E+02 -0.38415444851E+02  0.72115742754E+02  0.17031785996E+03  0.12508045080E+03 0.  0.
          5    1    3    3  502    0  0.54692912649E+02 -0.18390860071E+02 -0.28240975924E+02  0.64378284765E+02  0.41800000000E+01 0. -1.
         -5    1    3    3    0  502  0.27078888684E+02 -0.20024584780E+02  0.10035671868E+03  0.10593957519E+03  0.41800000000E+01 0. -1.
        -11    1    1    2    0    0 -0.81798784938E+02  0.99034599071E+01  0.39374905812E+01  0.82490142245E+02  0.00000000000E+00 0.  1.
         11    1    1    2    0    0  0.26983605706E-01  0.28511984944E+02  0.49104750570E+02  0.56782132243E+02  0.00000000000E+00 0. -1.
</event>
<event>
 7    1  0.2686828E-009  0.1375902E+03  0.7561462E-02  0.1216609E+00
          2   -1    0    0  501    0  0.00000000000E+00  0.00000000000E+00  0.27879936785E+03  0.27879936785E+03  0.00000000000E+00 0. -1.
         -2   -1    0    0    0  501 -0.00000000000E+00 -0.00000000000E+00 -0.97296042581E+02  0.97296042581E+02  0.00000000000E+00 0.  1.
         25    2    1    2    0    0 -0.11363421612E+03 -0.18266959711E+02  0.44847666582E+02  0.17579873650E+03  0.12508983039E+03 0.  0.
          5    1    3    3  502    0 -0.92971854328E+02 -0.54501838155E+02  0.68402939678E+02  0.12771315757E+03  0.41800000000E+01 0.  1.
         -5    1    3    3    0  502 -0.20662361789E+02  0.36234878444E+02 -0.23555273096E+02  0.48085578932E+02  0.41800000000E+01 0.  1.
        -11    1    1    2    0    0  0.55557507458E+02 -0.16204612059E+02  0.12870812607E+02  0.59286456329E+02  0.00000000000E+00 0.  1.
         11    1    1    2    0    0  0.58076708659E+02  0.34471571770E+02  0.12378484608E+03  0.14101021760E+03  0.00000000000E+00 0. -1.
</event>
<event>
 7    1  0.2686828E-009  0.1800620E+03  0.7561462E-02  0.1167743E+00
          1   -1    0    0  501    0  0.00000000000E+00  0.00000000000E+00  0.74974518645E+03  0.74974518645E+03  0.00000000000E+00 0. -1.
         -1   -1    0    0    0  501 -0.00000000000E+00 -0.00000000000E+00 -0.48416207071E+02  0.48416207071E+02  0.00000000000E+00 0.  1.
         25    2    1    2    0    0  0.87502289046E+02 -0.13008836702E+03  0.31510594139E+03  0.37352822706E+03  0.12510774673E+03 0.  0.
          5    1    3    3  502    0  0.55719665282E+02  0.22537483781E+01  0.47922162213E+02  0.73646225376E+02  0.41800000000E+01 0.  1.
         -5    1    3    3    0  502  0.31782623764E+02 -0.13234211540E+03  0.26718377917E+03  0.29988200168E+03  0.41800000000E+01 0.  1.
        -11    1    1    2    0    0  0.47295487451E+01  0.35887835171E+02  0.38927655173E+02  0.53157009715E+02  0.00000000000E+00 0.  1.
         11    1    1    2    0    0 -0.92231837791E+02  0.94200531846E+02  0.34729538282E+03  0.37147615674E+03  0.00000000000E+00 0. -1.
</event>
<event>
 7    1  0.2686828E-009  0.1073732E+03  0.7561462E-02  0.1265513E+00
          1   -1    0    0  501    0  0.00000000000E+00  0.00000000000E+00  0.37708909929E+03  0.37708909929E+03  0.00000000000E+00 0. -1.
         -1   -1    0    0    0  501 -0.00000000000E+00 -0.00000000000E+00 -0.40980264672E+02  0.40980264672E+02  0.00000000000E+00 0.  1.
         25    2    1    2    0    0 -0.17744016899E+02 -0.51780300388E+02  0.22721445861E+03  0.26508691736E+03  0.12509441999E+03 0.  0.
          5    1    3    3  502    0 -0.36263500437E+02  0.28510190849E+02  0.42829762439E+02  0.63085128174E+02  0.41800000000E+01 0.  1.
         -5    1    3    3    0  502  0.18519483537E+02 -0.80290491236E+02  0.18438469617E+03  0.20200178919E+03  0.41800000000E+01 0.  1.
        -11    1    1    2    0    0  0.13948822707E+01 -0.16070696737E+02 -0.70883462051E+01  0.17619808231E+02  0.00000000000E+00 0.  1.
         11    1    1    2    0    0  0.16349134629E+02  0.67850997125E+02  0.11598272221E+03  0.13536263837E+03  0.00000000000E+00 0. -1.
</event>
<event>
 7    1  0.2686828E-009  0.1626745E+03  0.7561462E-02  0.1185710E+00
          1   -1    0    0  501    0  0.00000000000E+00  0.00000000000E+00  0.17138073759E+03  0.17138073759E+03  0.00000000000E+00 0. -1.
         -1   -1    0    0    0  501 -0.00000000000E+00 -0.00000000000E+00 -0.16407951691E+03  0.16407951691E+03  0.00000000000E+00 0.  1.
         25    2    1    2    0    0  0.13541481357E+02  0.12600355112E+03  0.18711924273E+02  0.17904820846E+03  0.12509139951E+03 0.  0.
          5    1    3    3  502    0  0.10224038354E+02  0.15073605914E+03  0.24447248985E+02  0.15310464026E+03  0.41800000000E+01 0.  1.
         -5    1    3    3    0  502  0.33174430030E+01 -0.24732508027E+02 -0.57353247123E+01  0.25943568200E+02  0.41800000000E+01 0.  1.
        -11    1    1    2    0    0 -0.46158990732E+02 -0.82481349858E+02  0.15415510434E+02  0.95767757945E+02  0.00000000000E+00 0.  1.
         11    1    1    2    0    0  0.32617509375E+02 -0.43522201258E+02 -0.26826214021E+02  0.60644288098E+02  0.00000000000E+00 0. -1.
</event>
<event>
 7    1  0.2686828E-009  0.1036123E+03  0.7561462E-02  0.1272878E+00
          1   -1    0    0  501    0  0.00000000000E+00  0.00000000000E+00  0.46122779523E+03  0.46122779523E+03  0.00000000000E+00 0. -1.
         -1   -1    0    0    0  501 -0.00000000000E+00 -0.00000000000E+00 -0.30163075696E+02  0.30163075696E+02  0.00000000000E+00 0.  1.
         25    2    1    2    0    0 -0.22869352511E+01 -0.38893813115E+02  0.29719591824E+03  0.32479220886E+03  0.12508639554E+03 0.  0.
          5    1    3    3  502    0  0.17780382374E+01 -0.84337247793E+02  0.17573254928E+03  0.19497521397E+03  0.41800000000E+01 0.  1.
         -5    1    3    3    0  502 -0.40649734886E+01  0.45443434678E+02  0.12146336895E+03  0.12981699489E+03  0.41800000000E+01 0.  1.
        -11    1    1    2    0    0 -0.25172517864E+02  0.42356716169E+02  0.12952848312E+03  0.13858345860E+03  0.00000000000E+00 0. -1.
         11    1    1    2    0    0  0.27459453115E+02 -0.34629030539E+01  0.43403181793E+01  0.28015203459E+02  0.00000000000E+00 0.  1.
</event>
<event>
 7    1  0.2686828E-009  0.1337769E+03  0.7561462E-02  0.1221957E+00
          2   -1    0    0  501    0  0.00000000000E+00  0.00000000000E+00  0.22621603061E+03  0.22621603061E+03  0.00000000000E+00 0. -1.
         -2   -1    0    0    0  501 -0.00000000000E+00 -0.00000000000E+00 -0.10872503950E+03  0.10872503950E+03  0.00000000000E+00 0.  1.
         25    2    1    2    0    0  0.16052728133E+01  0.90235046732E+02  0.13877399996E+03  0.20748677629E+03  0.12509036218E+03 0.  0.
          5    1    3    3  502    0 -0.29169934685E+02 -0.14408803244E+02  0.73037813166E+02  0.80065555968E+02  0.41800000000E+01 0. -1.
         -5    1    3    3    0  502  0.30775207498E+02  0.10464384998E+03  0.65736186798E+02  0.12742122033E+03  0.41800000000E+01 0. -1.
        -11    1    1    2    0    0 -0.96502489726E+01 -0.10677151551E+03 -0.19646362533E+02  0.10899203361E+03  0.00000000000E+00 0.  1.
         11    1    1    2    0    0  0.80449761593E+01  0.16536468775E+02 -0.16366463279E+01  0.18462260212E+02  0.00000000000E+00 0. -1.
</event>
<event>
 7    1  0.2686828E-009  0.2427945E+03  0.7561462E-02  0.1117945E+00
          2   -1    0    0  501    0  0.00000000000E+00  0.00000000000E+00  0.16850266484E+03  0.16850266484E+03  0.00000000000E+00 0. -1.
         -2   -1    0    0    0  501 -0.00000000000E+00 -0.00000000000E+00 -0.43972501853E+03  0.43972501853E+03  0.00000000000E+00 0.  1.
         25    2    1    2    0    0  0.17853246439E+03 -0.14277231891E+03 -0.28111301140E+02  0.26209936843E+03  0.12509219716E+03 0.  0.
          5    1    3    3  502    0  0.45451133738E+02 -0.14867919624E+01  0.35459810223E+02  0.57817701869E+02  0.41800000000E+01 0.  1.
         -5    1    3    3    0  502  0.13308133065E+03 -0.14128552695E+03 -0.63571111363E+02  0.20428166656E+03  0.41800000000E+01 0.  1.
        -11    1    1    2    0    0 -0.13390685811E+03  0.50183607039E+02 -0.15319995165E+03  0.20957019409E+03  0.00000000000E+00 0.  1.
         11    1    1    2    0    0 -0.44625606279E+02  0.92588711872E+02 -0.89911100897E+02  0.13655812084E+03  0.00000000000E+00 0. -1.
</event>
<event>
 7    1  0.2686828E-009  0.9630516E+02  0.7561462E-02  0.1288263E+00
         -1   -1    0    0    0  501 -0.00000000000E+00  0.00000000000E+00  0.20127888381E+02  0.20127888381E+02  0.00000000000E+00 0.  1.
          1   -1    0    0  501    0  0.00000000000E+00 -0.00000000000E+00 -0.12554263031E+04  0.12554263031E+04  0.00000000000E+00 0. -1.
         25    2    1    2    0    0  0.64175256483E+02  0.35294375051E+02 -0.10376713177E+04  0.10477471193E+04  0.12509238964E+03 0.  0.
          5    1    3    3  502    0  0.96776513670E+01  0.47897657563E+02 -0.14031118234E+03  0.14863560416E+03  0.41800000000E+01 0. -1.
         -5    1    3    3    0  502  0.54497605116E+02 -0.12603282512E+02 -0.89736013536E+03  0.89911151513E+03  0.41800000000E+01 0. -1.
        -11    1    1    2    0    0 -0.39202572750E+02 -0.45882876520E+02 -0.51960429609E+02  0.79636463464E+02  0.00000000000E+00 0.  1.
         11    1    1    2    0    0 -0.24972683733E+02  0.10588501468E+02 -0.14566666736E+03  0.14817060868E+03  0.00000000000E+00 0. -1.
</event>
<event>
 7    1  0.2686828E-009  0.1166983E+03  0.7561462E-02  0.1248645E+00
         -2   -1    0    0    0  501 -0.00000000000E+00  0.00000000000E+00  0.41391873403E+02  0.41391873403E+02  0.00000000000E+00 0.  1.
          2   -1    0    0  501    0  0.00000000000E+00 -0.00000000000E+00 -0.35104215166E+03  0.35104215166E+03  0.00000000000E+00 0. -1.
         25    2    1    2    0    0 -0.22746255126E+02 -0.38023140187E+02 -0.22096739714E+03  0.25775415489E+03  0.12508981754E+03 0.  0.
          5    1    3    3  502    0  0.12396466949E+02 -0.77909456458E+02 -0.14137698736E+03  0.16195209400E+03  0.41800000000E+01 0. -1.
         -5    1    3    3    0  502 -0.35142722075E+02  0.39886316271E+02 -0.79590409779E+02  0.95802060882E+02  0.41800000000E+01 0. -1.
        -11    1    1    2    0    0  0.57634695069E+02  0.15998014530E+02 -0.47449025053E+02  0.76348572502E+02  0.00000000000E+00 0.  1.
         11    1    1    2    0    0 -0.34888439943E+02  0.22025125657E+02 -0.41233856064E+02  0.58331297669E+02  0.00000000000E+00 0. -1.
</event>
<event>
 7    1  0.2686828E-009  0.9229064E+02  0.7561462E-02  0.1297398E+00
         -1   -1    0    0    0  501 -0.00000000000E+00  0.00000000000E+00  0.18305494545E+02  0.18305494545E+02  0.00000000000E+00 0.  1.
          1   -1    0    0  501    0  0.00000000000E+00 -0.00000000000E+00 -0.74063962084E+03  0.74063962084E+03  0.00000000000E+00 0. -1.
         25    2    1    2    0    0 -0.44035665502E+02  0.40005980072E+01 -0.37712363263E+03  0.39978187153E+03  0.12509262926E+03 0.  0.
          5    1    3    3  502    0  0.45730803719E+01 -0.29044448318E+02 -0.30591844890E+03  0.30735657276E+03  0.41800000000E+01 0.  1.
         -5    1    3    3    0  502 -0.48608745874E+02  0.33045046325E+02 -0.71205183727E+02  0.92425298764E+02  0.41800000000E+01 0.  1.
        -11    1    1    2    0    0  0.60063422043E+02  0.23198095272E+02 -0.18534638747E+03  0.19621174695E+03  0.00000000000E+00 0.  1.
         11    1    1    2    0    0 -0.16027756541E+02 -0.27198693280E+02 -0.15986410619E+03  0.16295149691E+03  0.00000000000E+00 0. -1.
</event>
<event>
 7    1  0.2686828E-009  0.1139418E+03  0.7561462E-02  0.1253440E+00
         -2   -1    0    0    0  501 -0.00000000000E+00  0.00000000000E+00  0.39692322334E+02  0.39692322334E+02  0.00000000000E+00 0.  1.
          2   -1    0    0  501    0  0.00000000000E+00 -0.00000000000E+00 -0.52673062454E+03  0.52673062454E+03  0.00000000000E+00 0. -1.
         25    2    1    2    0    0  0.67375868933E+02  0.75283687444E+01 -0.38521159800E+03  0.41064856065E+03  0.12509229027E+03 0.  0.
          5    1    3    3  502    0 -0.25967895921E+02  0.26281067319E+02 -0.50999860239E+02  0.63114849777E+02  0.41800000000E+01 0. -1.
         -5    1    3    3    0  502  0.93343764854E+02 -0.18752698575E+02 -0.33421173776E+03  0.34753371088E+03  0.41800000000E+01 0. -1.
        -11    1    1    2    0    0 -0.81036251805E+02 -0.33085330374E+01 -0.11196067332E+03  0.13824982050E+03  0.00000000000E+00 0.  1.
         11    1    1    2    0    0  0.13660382872E+02 -0.42198357070E+01  0.10133969115E+02  0.17524565718E+02  0.00000000000E+00 0. -1.
</event>
<event>
 7    1  0.2686828E-009  0.4034206E+03  0.7561462E-02  0.1042602E+00
         -2   -1    0    0    0  501 -0.00000000000E+00  0.00000000000E+00  0.12411075215E+03  0.12411075215E+03  0.00000000000E+00 0.  1.
          2   -1    0    0  501    0  0.00000000000E+00 -0.00000000000E+00 -0.13550385103E+04  0.13550385103E+04  0.00000000000E+00 0. -1.
         25    2    1    2    0    0 -0.37563368849E+03  0.11354027272E+03 -0.53264271248E+03  0.67331121370E+03  0.12509064667E+03 0.  0.
          5    1    3    3  502    0 -0.11351790911E+03 -0.22040169086E+02 -0.17197065660E+03  0.20727629839E+03  0.41800000000E+01 0.  1.
         -5    1    3    3    0  502 -0.26211577938E+03  0.13558044181E+03 -0.36067205587E+03  0.46603491531E+03  0.41800000000E+01 0.  1.
        -11    1    1    2    0    0  0.97281879183E+02 -0.55902623295E+01 -0.23837651778E+03  0.25752355092E+03  0.00000000000E+00 0. -1.
         11    1    1    2    0    0  0.27835180931E+03 -0.10795001039E+03 -0.45990852786E+03  0.54831449779E+03  0.00000000000E+00 0.  1.
</event>
<event>
 7    1  0.2686828E-009  0.9191791E+02  0.7561462E-02  0.1298273E+00
         -2   -1    0    0    0  501 -0.00000000000E+00  0.00000000000E+00  0.44485655857E+02  0.44485655857E+02  0.00000000000E+00 0.  1.
          2   -1    0    0  501    0  0.00000000000E+00 -0.00000000000E+00 -0.31414575042E+03  0.31414575042E+03  0.00000000000E+00 0. -1.
         25    2    1    2    0    0  0.46310546577E+02 -0.10202908623E+02 -0.16044118465E+03  0.20889626622E+03  0.12509000855E+03 0.  0.
          5    1    3    3  502    0  0.11763006712E+02 -0.39279768144E+02 -0.15821283344E+03  0.16349324628E+03  0.41800000000E+01 0. -1.
         -5    1    3    3    0  502  0.34547539866E+02  0.29076859521E+02 -0.22283512033E+01  0.45403019938E+02  0.41800000000E+01 0. -1.
        -11    1    1    2    0    0 -0.66742556888E+02  0.25811675469E+02 -0.98799220963E+02  0.12199220284E+03  0.00000000000E+00 0. -1.
         11    1    1    2    0    0  0.20432010310E+02 -0.15608766846E+02 -0.10419688949E+02  0.27742937219E+02  0.00000000000E+00 0.  1.
</event>
<event>
 7    1  0.2686828E-009  0.1085286E+03  0.7561462E-02  0.1263319E+00
         -1   -1    0    0    0  501 -0.00000000000E+00  0.00000000000E+00  0.25817701026E+02  0.25817701026E+02  0.00000000000E+00 0. -1.
          1   -1    0    0  501    0  0.00000000000E+00 -0.00000000000E+00 -0.47565309422E+03  0.47565309422E+03  0.00000000000E+00 0.  1.
         25    2    1    2    0    0 -0.54070873577E+01  0.11559576256E+02 -0.25012430351E+03  0.27995135695E+03  0.12509090557E+03 0.  0.
          5    1    3    3  502    0 -0.22201975280E+02  0.65383758820E+02 -0.14040744393E+03  0.15652375646E+03  0.41800000000E+01 0. -1.
         -5    1    3    3    0  502  0.16794887922E+02 -0.53824182564E+02 -0.10971685957E+03  0.12342760049E+03  0.41800000000E+01 0. -1.
        -11    1    1    2    0    0  0.44681983370E+02  0.11044734966E+02 -0.13411300233E+03  0.14179126631E+03  0.00000000000E+00 0.  1.
         11    1    1    2    0    0 -0.39274896013E+02 -0.22604311221E+02 -0.65598087356E+02  0.79728171981E+02  0.00000000000E+00 0. -1.
</event>
<event>
 7    1  0.2686828E-009  0.6995389E+02  0.7561462E-02  0.1360250E+00
          2   -1    0    0  501    0  0.00000000000E+00  0.00000000000E+00  0.10608605556E+04  0.10608605556E+04  0.00000000000E+00 0.  1.
         -2   -1    0    0    0  501 -0.00000000000E+00 -0.00000000000E+00 -0.12029460923E+02  0.12029460923E+02  0.00000000000E+00 0. -1.
         25    2    1    2    0    0  0.97525523345E+01 -0.29268392335E+02  0.54165146611E+03  0.55676354685E+03  0.12509030856E+03 0.  0.
          5    1    3    3  502    0  0.17618344505E+02 -0.49967907794E+01  0.52642202364E+03  0.52675705344E+03  0.41800000000E+01 0. -1.
         -5    1    3    3    0  502 -0.78657921704E+01 -0.24271601556E+02  0.15229442473E+02  0.30006493407E+02  0.41800000000E+01 0. -1.
        -11    1    1    2    0    0  0.31942158134E+00 -0.32592281133E+02  0.15143183148E+03  0.15489983346E+03  0.00000000000E+00 0.  1.
         11    1    1    2    0    0 -0.10071973916E+02  0.61860673468E+02  0.35574779707E+03  0.36122663620E+03  0.00000000000E+00 0. -1.
</event>
<event>
 7    1  0.2686828E-009  0.3451183E+03  0.7561462E-02  0.1064637E+00
          1   -1    0    0  501    0  0.00000000000E+00  0.00000000000E+00  0.25096345186E+03  0.25096345186E+03  0.00000000000E+00 0. -1.
         -1   -1    0    0    0  501 -0.00000000000E+00 -0.00000000000E+00 -0.52432309310E+03  0.52432309310E+03  0.00000000000E+00 0.  1.
         25    2    1    2    0    0 -0.32466616682E+03 -0.11233443370E+03 -0.20080891786E+03  0.41713234290E+03  0.12509206662E+03 0.  0.
          5    1    3    3  502    0 -0.25170866296E+03 -0.96143785173E+02 -0.91372485863E+02  0.28454750396E+03  0.41800000000E+01 0. -1.
         -5    1    3    3    0  502 -0.72957503858E+02 -0.16190648528E+02 -0.10943643200E+03  0.13258483894E+03  0.41800000000E+01 0. -1.
        -11    1    1    2    0    0  0.25631834462E+03  0.70743584161E+02 -0.80325793876E+02  0.27776965574E+03  0.00000000000E+00 0.  1.
         11    1    1    2    0    0  0.68347822202E+02  0.41590849540E+02  0.77750704913E+01  0.80384546315E+02  0.00000000000E+00 0. -1.
</event>
<event>
 7    1  0.2686828E-009  0.1030900E+03  0.7561462E-02  0.1273929E+00
          1   -1    0    0  501    0  0.00000000000E+00  0.00000000000E+00  0.48848071309E+02  0.48848071309E+02  0.00000000000E+00 0. -1.
         -1   -1    0    0    0  501 -0.00000000000E+00 -0.00000000000E+00 -0.28695738515E+03  0.28695738515E+03  0.00000000000E+00 0.  1.
         25    2    1    2    0    0 -0.38601705735E+02  0.75656242229E+01 -0.18219624381E+03  0.22447843354E+03  0.12509102891E+03 0.  0.
          5    1    3    3  502    0  0.37236588418E+02  0.14166587992E+02 -0.11864403468E+03  0.12522433908E+03  0.41800000000E+01 0.  1.
         -5    1    3    3    0  502 -0.75838294153E+02 -0.66009637692E+01 -0.63552209123E+02  0.99254094461E+02  0.41800000000E+01 0.  1.
        -11    1    1    2    0    0  0.38540286818E+02  0.32135523172E+02 -0.50615508561E+02  0.71273945200E+02  0.00000000000E+00 0. -1.
         11    1    1    2    0    0  0.61418917428E-01 -0.39701147395E+02 -0.52975614684E+01  0.40053077713E+02  0.00000000000E+00 0.  1.
</event>
<event>
 7    1  0.2686828E-009  0.2200912E+03  0.7561462E-02  0.1133815E+00
          2   -1    0    0  501    0  0.00000000000E+00  0.00000000000E+00  0.13095432526E+03  0.13095432526E+03  0.00000000000E+00 0. -1.
         -2   -1    0    0    0  501 -0.00000000000E+00 -0.00000000000E+00 -0.45702387370E+03  0.45702387370E+03  0.00000000000E+00 0.  1.
         25    2    1    2    0    0  0.51135050977E+01  0.20281492021E+03 -0.68114446885E+02  0.24788392412E+03  0.12508725822E+03 0.  0.
          5    1    3    3  502    0  0.52885632653E+02  0.47752512485E+02 -0.43853826052E+02  0.83772448031E+02  0.41800000000E+01 0.  1.
         -5    1    3    3    0  502 -0.47772127555E+02  0.15506240773E+03 -0.24260620834E+02  0.16411147609E+03  0.41800000000E+01 0.  1.
        -11    1    1    2    0    0 -0.19255408685E+02 -0.60714656321E+02 -0.28384635054E+02  0.69733261525E+02  0.00000000000E+00 0. -1.
         11    1    1    2    0    0  0.14141903588E+02 -0.14210026389E+03 -0.22957046650E+03  0.27036101332E+03  0.00000000000E+00 0.  1.
</event>
<event>
 7    1  0.2686828E-009  0.1173774E+03  0.7561462E-02  0.1247487E+00
          4   -1    0    0  501    0  0.00000000000E+00  0.00000000000E+00  0.29829328555E+03  0.29829328555E+03  0.00000000000E+00 0. -1.
         -4   -1    0    0    0  501 -0.00000000000E+00 -0.00000000000E+00 -0.52191136862E+02  0.52191136862E+02  0.00000000000E+00 0.  1.
         25    2    1    2    0    0 -0.56585144990E+02  0.88374736777E+01  0.10361645376E+03  0.17223054861E+03  0.12508802026E+03 0.  0.
          5    1    3    3  502    0  0.36382787098E+02  0.22016497972E+02  0.41517130116E+02  0.59578333923E+02  0.41800000000E+01 0. -1.
         -5    1    3    3    0  502 -0.92967932088E+02 -0.13179024294E+02  0.62099323641E+02  0.11265221469E+03  0.41800000000E+01 0. -1.
        -11    1    1    2    0    0 -0.16954776747E+02  0.12949601328E+02  0.68025230025E+01  0.22392653891E+02  0.00000000000E+00 0. -1.
         11    1    1    2    0    0  0.73539921737E+02 -0.21787075005E+02  0.13568317193E+03  0.15586121991E+03  0.00000000000E+00 0.  1.
</event>
<event>
 7    1  0.2686828E-009  0.1000521E+03  0.7561462E-02  0.1280186E+00
          2   -1    0    0  501    0  0.00000000000E+00  0.00000000000E+00  0.28654855641E+03  0.28654855641E+03  0.00000000000E+00 0. -1.
         -2   -1    0    0    0  501 -0.00000000000E+00 -0.00000000000E+00 -0.83001702686E+02  0.83001702686E+02  0.00000000000E+00 0.  1.
         25    2    1    2    0    0  0.19943199868E+01  0.41246525674E+02  0.16834224234E+03  0.21375649505E+03  0.12508986941E+03 0.  0.
          5    1    3    3  502    0 -0.47314456107E+02  0.86145568491E+01  0.13992987536E+03  0.14802266976E+03  0.41800000000E+01 0. -1.
         -5    1    3    3    0  502  0.49308776094E+02  0.32631968825E+02  0.28412366979E+02  0.65733825285E+02  0.41800000000E+01 0. -1.
        -11    1    1    2    0    0  0.39375922944E+02 -0.30512000431E+02  0.79769761619E+02  0.94046054392E+02  0.00000000000E+00 0. -1.
         11    1    1    2    0    0 -0.41370242931E+02 -0.10734525243E+02 -0.44565150232E+02  0.61747709654E+02  0.00000000000E+00 0.  1.
</event>
<event>
 7    1  0.2686828E-009  0.9663828E+02  0.7561462E-02  0.1287528E+00
         -2   -1    0    0    0  501 -0.00000000000E+00  0.00000000000E+00  0.23203797388E+02  0.23203797388E+02  0.00000000000E+00 0.  1.
          2   -1    0    0  501    0  0.00000000000E+00 -0.00000000000E+00 -0.72919580185E+03  0.72919580185E+03  0.00000000000E+00 0. -1.
         25    2    1    2    0    0  0.68507976294E+02  0.15995462913E+02 -0.36824587558E+03  0.39522582011E+03  0.12509686785E+03 0.  0.
          5    1    3    3  502    0  0.37722753495E+02 -0.26650025514E+02 -0.32121423682E+03  0.32454474010E+03  0.41800000000E+01 0.  1.
         -5    1    3    3    0  502  0.30785222799E+02  0.42645488427E+02 -0.47031638760E+02  0.70681080003E+02  0.41800000000E+01 0.  1.
        -11    1    1    2    0    0 -0.21195996385E+02 -0.36789647429E+02 -0.53665050222E+02  0.68430154435E+02  0.00000000000E+00 0.  1.
         11    1    1    2    0    0 -0.47311979909E+02  0.20794184516E+02 -0.28408107865E+03  0.28874362469E+03  0.00000000000E+00 0. -1.
</event>
<event>
 7    1  0.2686828E-009  0.8045800E+02  0.7561462E-02  0.1327757E+00
          2   -1    0    0  501    0  0.00000000000E+00  0.00000000000E+00  0.33022813133E+03  0.33022813133E+03  0.00000000000E+00 0.  1.
         -2   -1    0    0    0  501 -0.00000000000E+00 -0.00000000000E+00 -0.36995821726E+02  0.36995821726E+02  0.00000000000E+00 0. -1.
         25    2    1    2    0    0  0.79829422750E+01  0.25750038141E+01  0.20740435970E+03  0.24235134873E+03  0.12508896752E+03 0.  0.
          5    1    3    3  502    0  0.56908008893E+02 -0.12817396690E+02  0.50652664273E+02  0.77369063146E+02  0.41800000000E+01 0. -1.
         -5    1    3    3    0  502 -0.48925066618E+02  0.15392400504E+02  0.15675169543E+03  0.16498228558E+03  0.41800000000E+01 0. -1.
        -11    1    1    2    0    0 -0.19292756659E+02 -0.21524687750E+02 -0.67647330909E+01  0.29686432188E+02  0.00000000000E+00 0. -1.
         11    1    1    2    0    0  0.11309814384E+02  0.18949683936E+02  0.92592682995E+02  0.95186172141E+02  0.00000000000E+00 0.  1.
</event>
<event>
 7    1  0.2686828E-009  0.9416115E+02  0.7561462E-02  0.1293077E+00
          1   -1    0    0  501    0  0.00000000000E+00  0.00000000000E+00  0.10976903096E+03  0.10976903096E+03  0.00000000000E+00 0. -1.
         -1   -1    0    0    0  501 -0.00000000000E+00 -0.00000000000E+00 -0.21947325070E+03  0.21947325070E+03  0.00000000000E+00 0.  1.
         25    2    1    2    0    0 -0.43781552806E+02 -0.82653520754E+02  0.19832917868E+01  0.15620483559E+03  0.12509032079E+03 0.  0.
          5    1    3    3  502    0 -0.53772803324E+01 -0.20063810168E+02  0.59290977908E+02  0.62963196262E+02  0.41800000000E+01 0. -1.
         -5    1    3    3    0  502 -0.38404272474E+02 -0.62589710586E+02 -0.57307686122E+02  0.93241639325E+02  0.41800000000E+01 0. -1.
        -11    1    1    2    0    0  0.36151777352E+02  0.70583820953E+02 -0.12848675232E+03  0.15098964305E+03  0.00000000000E+00 0. -1.
         11    1    1    2    0    0  0.76297754544E+01  0.12069699800E+02  0.16799240794E+02  0.22047803020E+02  0.00000000000E+00 0.  1.
</event>
<event>
 7    1  0.2686828E-009  0.1408882E+03  0.7561462E-02  0.1212139E+00
         -4   -1    0    0    0  501 -0.00000000000E+00  0.00000000000E+00  0.60750661037E+03  0.60750661037E+03  0.00000000000E+00 0.  1.
          4   -1    0    0  501    0  0.00000000000E+00 -0.00000000000E+00 -0.36999510469E+02  0.36999510469E+02  0.00000000000E+00 0. -1.
         25    2    1    2    0    0  0.88583301450E+02 -0.55402596052E+02  0.28221577404E+03  0.32589810662E+03  0.12508950330E+03 0.  0.
          5    1    3    3  502    0 -0.11282786741E+02  0.18535639496E+02  0.11732339707E+03  0.11938644441E+03  0.41800000000E+01 0. -1.
         -5    1    3    3    0  502  0.99866088191E+02 -0.73938235547E+02  0.16489237696E+03  0.20651166221E+03  0.41800000000E+01 0. -1.
        -11    1    1    2    0    0  0.76173285150E+01 -0.14537079523E+02  0.28564007636E+02  0.32943176941E+02  0.00000000000E+00 0.  1.
         11    1    1    2    0    0 -0.96200629965E+02  0.69939675574E+02  0.25972731823E+03  0.28566483729E+03  0.00000000000E+00 0. -1.
</event>
<event>
 7    1  0.2686828E-009  0.3129985E+03  0.7561462E-02  0.1078917E+00
          1   -1    0    0  501    0  0.00000000000E+00  0.00000000000E+00  0.12442608075E+03  0.12442608075E+03  0.00000000000E+00 0. -1.
         -1   -1    0    0    0  501 -0.00000000000E+00 -0.00000000000E+00 -0.91386494699E+03  0.91386494699E+03  0.00000000000E+00 0.  1.
         25    2    1    2    0    0 -0.17206543556E+03 -0.25520274940E+03 -0.52472512531E+03  0.62105927408E+03  0.12507280830E+03 0.  0.
          5    1    3    3  502    0 -0.11996733127E+03 -0.18950627501E+03 -0.47015886369E+03  0.52093341066E+03  0.41800000000E+01 0.  1.
         -5    1    3    3    0  502 -0.52098104289E+02 -0.65696474390E+02 -0.54566261621E+02  0.10012586342E+03  0.41800000000E+01 0.  1.
        -11    1    1    2    0    0  0.16235048719E+03  0.18205366570E+03 -0.17073336599E+03  0.29774334610E+03  0.00000000000E+00 0.  1.
         11    1    1    2    0    0  0.97149483667E+01  0.73149083701E+02 -0.93980374941E+02  0.11948840756E+03  0.00000000000E+00 0. -1.
</event>
<event>
 7    1  0.2686828E-009  0.1728250E+03  0.7561462E-02  0.1174933E+00
         -2   -1    0    0    0  501 -0.00000000000E+00  0.00000000000E+00  0.98514313259E+02  0.98514313259E+02  0.00000000000E+00 0.  1.
          2   -1    0    0  501    0  0.00000000000E+00 -0.00000000000E+00 -0.35274670642E+03  0.35274670642E+03  0.00000000000E+00 0. -1.
         25    2    1    2    0    0 -0.14134351353E+03  0.54660169911E+02 -0.13482649679E+03  0.23830901148E+03  0.12508907914E+03 0.  0.
          5    1    3    3  502    0 -0.11460881947E+03  0.92353795615E+02 -0.11887291182E+03  0.18924229609E+03  0.41800000000E+01 0.  1.
         -5    1    3    3    0  502 -0.26734694058E+02 -0.37693625704E+02 -0.15953584973E+02  0.49066715384E+02  0.41800000000E+01 0.  1.
        -11    1    1    2    0    0  0.47388926825E+02 -0.12425745898E+02  0.74342669672E+01  0.49551769616E+02  0.00000000000E+00 0.  1.
         11    1    1    2    0    0  0.93954586707E+02 -0.42234424013E+02 -0.12684016333E+03  0.16340023858E+03  0.00000000000E+00 0. -1.
</event>
<event>
 7    1  0.2954263E-009  0.1476971E+03  0.7561462E-02  0.1203332E+00
         -2   -1    0    0    0  501 -0.00000000000E+00  0.00000000000E+00  0.10689693626E+03  0.10689693626E+03  0.00000000000E+00 0.  1.
          2   -1    0    0  501    0  0.00000000000E+00 -0.00000000000E+00 -0.23251015811E+03  0.23251015811E+03  0.00000000000E+00 0. -1.
         25    2    1    2    0    0 -0.11305973822E+03 -0.10588726019E+02 -0.81011506356E+02  0.18735647602E+03  0.12507981220E+03 0.  0.
          5    1    3    3  502    0 -0.36441053896E+02 -0.51392472988E+02  0.71717780993E+01  0.63545601657E+02  0.41800000000E+01 0. -1.
         -5    1    3    3    0  502 -0.76618684320E+02  0.40803746969E+02 -0.88183284455E+02  0.12381087436E+03  0.41800000000E+01 0. -1.
        -11    1    1    2    0    0  0.54237363301E+02  0.50625008885E+02 -0.23837399887E+02  0.77928202442E+02  0.00000000000E+00 0. -1.
         11    1    1    2    0    0  0.58822374916E+02 -0.40036282866E+02 -0.20764315609E+02  0.74122415903E+02  0.00000000000E+00 0.  1.
</event>
<event>
 7    1  0.2686828E-009  0.1637974E+03  0.7561462E-02  0.1184475E+00
          2   -1    0    0  501    0  0.00000000000E+00  0.00000000000E+00  0.37913458060E+02  0.37913458060E+02  0.00000000000E+00 0. -1.
         -2   -1    0    0    0  501 -0.00000000000E+00 -0.00000000000E+00 -0.81863848108E+03  0.81863848108E+03  0.00000000000E+00 0.  1.
         25    2    1    2    0    0  0.11387067361E+03 -0.75228508851E+02 -0.43755135669E+03  0.47510464864E+03  0.12508948223E+03 0.  0.
          5    1    3    3  502    0  0.44902780281E+02  0.26336290669E+02 -0.68437458111E+02  0.86087269418E+02  0.41800000000E+01 0.  1.
         -5    1    3    3    0  502  0.68967893330E+02 -0.10156479952E+03 -0.36911389858E+03  0.38901737922E+03  0.41800000000E+01 0.  1.
        -11    1    1    2    0    0 -0.10988359412E+03  0.39784178940E+02 -0.18137570067E+03  0.21576452430E+03  0.00000000000E+00 0. -1.
         11    1    1    2    0    0 -0.39870794880E+01  0.35444329910E+02 -0.16179796566E+03  0.16568276620E+03  0.00000000000E+00 0.  1.
</event>
<event>
 7    1  0.2686828E-009  0.1173149E+03  0.7561462E-02  0.1247594E+00
          2   -1    0    0  501    0  0.00000000000E+00  0.00000000000E+00  0.84402491706E+03  0.84402491706E+03  0.00000000000E+00 0. -1.
         -2   -1    0    0    0  501 -0.00000000000E+00 -0.00000000000E+00 -0.40303085993E+02  0.40303085993E+02  0.00000000000E+00 0.  1.
         25    2    1    2    0    0 -0.68517164898E+02  0.28563010259E+01  0.73935854442E+03  0.75299516477E+03  0.12509156894E+03 0.  0.
          5    1    3    3  502    0  0.63009624385E+01  0.50652385139E+02  0.34233397610E+03  0.34614359714E+03  0.41800000000E+01 0.  1.
         -5    1    3    3    0  502 -0.74818127336E+02 -0.47796084113E+02  0.39702456832E+03  0.40685156763E+03  0.41800000000E+01 0.  1.
        -11    1    1    2    0    0  0.30437617152E+02 -0.33788276329E+02  0.68366606967E+02  0.82110225327E+02  0.00000000000E+00 0. -1.
         11    1    1    2    0    0  0.38079547746E+02  0.30931975303E+02 -0.40033203188E+01  0.49222612957E+02  0.00000000000E+00 0.  1.
</event>
<event>
 7    1  0.2686828E-009  0.1240224E+03  0.7561462E-02  0.1236605E+00
         -2   -1    0    0    0  501 -0.00000000000E+00  0.00000000000E+00  0.33374834347E+02  0.33374834347E+02  0.00000000000E+00 0.  1.
          2   -1    0    0  501    0  0.00000000000E+00 -0.00000000000E+00 -0.84476178850E+03  0.84476178850E+03  0.00000000000E+00 0. -1.
         25    2    1    2    0    0  0.10331626180E+03  0.16859987346E+02 -0.62028638058E+03  0.64137489790E+03  0.12509219237E+03 0.  0.
          5    1    3    3  502    0  0.93093960049E+02  0.22897194596E+02 -0.62137562149E+03  0.62874152265E+03  0.41800000000E+01 0.  1.
         -5    1    3    3    0  502  0.10222301754E+02 -0.60372072502E+01  0.10892409071E+01  0.12633375253E+02  0.41800000000E+01 0.  1.
        -11    1    1    2    0    0 -0.94359583195E+02  0.24248949827E+02 -0.14012766034E+03  0.17066781683E+03  0.00000000000E+00 0. -1.
         11    1    1    2    0    0 -0.89566786087E+01 -0.41108937173E+02 -0.50972913225E+02  0.66093908114E+02  0.00000000000E+00 0.  1.
</event>
<event>
 7    1  0.2686828E-009  0.1083310E+03  0.7561462E-02  0.1263692E+00
         -1   -1    0    0    0  501 -0.00000000000E+00  0.00000000000E+00  0.13761417269E+02  0.13761417269E+02  0.00000000000E+00 0.  1.
          1   -1    0    0  501    0  0.00000000000E+00 -0.00000000000E+00 -0.88039136059E+03  0.88039136059E+03  0.00000000000E+00 0. -1.
         25    2    1    2    0    0 -0.71399514259E+01 -0.14274162629E+02 -0.56641954318E+03  0.58028988301E+03  0.12510203359E+03 0.  0.
          5    1    3    3  502    0  0.48820523555E+02  0.26527331616E+02 -0.21624932208E+03  0.22331230271E+03  0.41800000000E+01 0. -1.
         -5    1    3    3    0  502 -0.55960474981E+02 -0.40801494245E+02 -0.35017022110E+03  0.35697758030E+03  0.41800000000E+01 0. -1.
        -11    1    1    2    0    0 -0.25682360036E+02  0.41575791032E+02 -0.16087905279E+03  0.16813744272E+03  0.00000000000E+00 0.  1.
         11    1    1    2    0    0  0.32822311462E+02 -0.27301628403E+02 -0.13933134736E+03  0.14572545213E+03  0.00000000000E+00 0. -1.
</event>
<event>
 7    1  0.2686828E-009  0.1364763E+03  0.7561462E-02  0.1218151E+00
          1   -1    0    0  501    0  0.00000000000E+00  0.00000000000E+00  0.15090107101E+04  0.15090107101E+04  0.00000000000E+00 0. -1.
         -1   -1    0    0    0  501 -0.00000000000E+00 -0.00000000000E+00 -0.16012624914E+02  0.16012624914E+02  0.00000000000E+00 0.  1.
         25    2    1    2    0    0 -0.10933727920E+03  0.36331514863E+02  0.96313109274E+03  0.97803031071E+03  0.12508863770E+03 0.  0.
          5    1    3    3  502    0 -0.18918016708E+02  0.43480842833E+02  0.10716081910E+03  0.11725778695E+03  0.41800000000E+01 0. -1.
         -5    1    3    3    0  502 -0.90419262496E+02 -0.71493279699E+01  0.85597027363E+03  0.86077252376E+03  0.41800000000E+01 0. -1.
        -11    1    1    2    0    0  0.33809454185E+01  0.16017340106E+02  0.92634649306E+02  0.94069996429E+02  0.00000000000E+00 0. -1.
         11    1    1    2    0    0  0.10595633378E+03 -0.52348854969E+02  0.43723234310E+03  0.45292302783E+03  0.00000000000E+00 0.  1.
</event>
<event>
 7    1  0.2686828E-009  0.1616116E+03  0.7561462E-02  0.1186889E+00
         -2   -1    0    0    0  501 -0.00000000000E+00  0.00000000000E+00  0.31018977103E+02  0.31018977103E+02  0.00000000000E+00 0.  1.
          2   -1    0    0  501    0  0.00000000000E+00 -0.00000000000E+00 -0.85927003714E+03  0.85927003714E+03  0.00000000000E+00 0. -1.
         25    2    1    2    0    0  0.28892885373E+02  0.11377879232E+03 -0.49136805046E+03  0.52045375427E+03  0.12509651038E+03 0.  0.
          5    1    3    3  502    0 -0.21617675094E+02 -0.18736321069E+02 -0.10306540274E+03  0.10704355770E+03  0.41800000000E+01 0.  1.
         -5    1    3    3    0  502  0.50510560467E+02  0.13251511339E+03 -0.38830264773E+03  0.41341019657E+03  0.41800000000E+01 0.  1.
        -11    1    1    2    0    0 -0.35197800350E+01  0.17946647777E+02 -0.35046288161E+02  0.39531169117E+02  0.00000000000E+00 0. -1.
         11    1    1    2    0    0 -0.25373105338E+02 -0.13172544010E+03 -0.30183672141E+03  0.33030409085E+03  0.00000000000E+00 0.  1.
</event>
<event>
 7    1  0.2686828E-009  0.1235341E+03  0.7561462E-02  0.1237378E+00
         -2   -1    0    0    0  501 -0.00000000000E+00  0.00000000000E+00  0.29681916728E+02  0.29681916728E+02  0.00000000000E+00 0. -1.
          2   -1    0    0  501    0  0.00000000000E+00 -0.00000000000E+00 -0.12263660699E+04  0.12263660699E+04  0.00000000000E+00 0.  1.
         25    2    1    2    0    0 -0.76873923680E+01  0.11963584950E+03 -0.95325540323E+03  0.96887343305E+03  0.12509209809E+03 0.  0.
          5    1    3    3  502    0 -0.15894330736E+02  0.11387408674E+03 -0.95079950827E+03  0.95773540955E+03  0.41800000000E+01 0.  1.
         -5    1    3    3    0  502  0.82069383679E+01  0.57617627598E+01 -0.24558949566E+01  0.11138023501E+02  0.41800000000E+01 0.  1.
        -11    1    1    2    0    0 -0.47271776294E+01 -0.62642459473E+02 -0.37539679145E+02  0.73182316494E+02  0.00000000000E+00 0.  1.
         11    1    1    2    0    0  0.12414569997E+02 -0.56993390031E+02 -0.20588907076E+03  0.21399223705E+03  0.00000000000E+00 0. -1.
</event>
<event>
 7    1  0.2686828E-009  0.1373313E+03  0.7561462E-02  0.1216966E+00
         -1   -1    0    0    0  501 -0.00000000000E+00  0.00000000000E+00  0.43599166514E+03  0.43599166514E+03  0.00000000000E+00 0.  1.
          1   -1    0    0  501    0  0.00000000000E+00 -0.00000000000E+00 -0.52545845086E+02  0.52545845086E+02  0.00000000000E+00 0. -1.
         25    2    1    2    0    0 -0.97373992037E+02 -0.31103739642E+02  0.16501493633E+03  0.23092482575E+03  0.12508880441E+03 0.  0.
          5    1    3    3  502    0 -0.15265188022E+02 -0.68758467039E+02  0.81919238001E+02  0.10811561733E+03  0.41800000000E+01 0. -1.
         -5    1    3    3    0  502 -0.82108804014E+02  0.37654727397E+02  0.83095698332E+02  0.12280920842E+03  0.41800000000E+01 0. -1.
        -11    1    1    2    0    0  0.90283342762E+02  0.93125418213E+01  0.92418980199E+02  0.12953406238E+03  0.00000000000E+00 0. -1.
         11    1    1    2    0    0  0.70906492747E+01  0.21791197820E+02  0.12601190353E+03  0.12807862210E+03  0.00000000000E+00 0.  1.
</event>
<event>
 7    1  0.2686828E-009  0.9810805E+02  0.7561462E-02  0.1284326E+00
          2   -1    0    0  501    0  0.00000000000E+00  0.00000000000E+00  0.49220594263E+03  0.49220594263E+03  0.00000000000E+00 0. -1.
         -2   -1    0    0    0  501 -0.00000000000E+00 -0.00000000000E+00 -0.42690114127E+02  0.42690114127E+02  0.00000000000E+00 0.  1.
         25    2    1    2    0    0 -0.88085860275E+02 -0.23128071596E+02  0.18612205309E+03  0.24204063996E+03  0.12509287058E+03 0.  0.
          5    1    3    3  502    0 -0.28077673164E+02  0.14219174171E+02  0.16518067541E+03  0.16820424659E+03  0.41800000000E+01 0.  1.
         -5    1    3    3    0  502 -0.60008187110E+02 -0.37347245766E+02  0.20941377689E+02  0.73836393372E+02  0.41800000000E+01 0.  1.
        -11    1    1    2    0    0  0.27487784091E+02 -0.30405107944E+01  0.75975781429E+01  0.28680065790E+02  0.00000000000E+00 0.  1.
         11    1    1    2    0    0  0.60598076184E+02  0.26168582390E+02  0.25579619726E+03  0.26417535100E+03  0.00000000000E+00 0. -1.
</event>
<event>
 7    1  0.2686828E-009  0.1053664E+03  0.7561462E-02  0.1269399E+00
         -4   -1    0    0    0  501 -0.00000000000E+00  0.00000000000E+00  0.88988532698E+02  0.88988532698E+02  0.00000000000E+00 0. -1.
          4   -1    0    0  501    0  0.00000000000E+00 -0.00000000000E+00 -0.15404495189E+03  0.15404495189E+03  0.00000000000E+00 0.  1.
         25    2    1    2    0    0 -0.37770600195E+02  0.61486012421E+01 -0.62542359559E+02  0.14499692955E+03  0.12509252297E+03 0.  0.
          5    1    3    3  502    0  0.15326950997E+02  0.55272400276E+02 -0.35909417769E+02  0.67800533506E+02  0.41800000000E+01 0. -1.
         -5    1    3    3    0  502 -0.53097551192E+02 -0.49123799034E+02 -0.26632941791E+02  0.77196396047E+02  0.41800000000E+01 0. -1.
        -11    1    1    2    0    0  0.53370810250E+02  0.14102682050E+02 -0.28035842462E+02  0.61913952307E+02  0.00000000000E+00 0.  1.
         11    1    1    2    0    0 -0.15600210055E+02 -0.20251283292E+02  0.25521782833E+02  0.36122602726E+02  0.00000000000E+00 0. -1.
</event>
<event>
 7    1  0.2686828E-009  0.3467269E+03  0.7561462E-02  0.1063967E+00
          1   -1    0    0  501    0  0.00000000000E+00  0.00000000000E+00  0.58099996577E+03  0.58099996577E+03  0.00000000000E+00 0. -1.
         -1   -1    0    0    0  501 -0.00000000000E+00 -0.00000000000E+00 -0.29148475832E+03  0.29148475832E+03  0.00000000000E+00 0.  1.
         25    2    1    2    0    0 -0.64702892405E+02 -0.33206468404E+03 -0.73037553129E+02  0.36801608629E+03  0.12509171409E+03 0.  0.
          5    1    3    3  502    0  0.27433086497E+02 -0.69641821360E+02  0.14606012501E+02  0.76376472282E+02  0.41800000000E+01 0. -1.
         -5    1    3    3    0  502 -0.92135978902E+02 -0.26242286268E+03 -0.87643565630E+02  0.29163961401E+03  0.41800000000E+01 0. -1.
        -11    1    1    2    0    0  0.54003824871E+02  0.18098969346E+03  0.13928414206E+03  0.23467798036E+03  0.00000000000E+00 0.  1.
         11    1    1    2    0    0  0.10699067534E+02  0.15107499058E+03  0.22326861852E+03  0.26979065743E+03  0.00000000000E+00 0. -1.
</event>
<event>
 7    1  0.2686828E-009  0.1403932E+03  0.7561462E-02  0.1212801E+00
         -2   -1    0    0    0  501 -0.00000000000E+00  0.00000000000E+00  0.54700658157E+02  0.54700658157E+02  0.00000000000E+00 0.  1.
          2   -1    0    0  501    0  0.00000000000E+00 -0.00000000000E+00 -0.38459923610E+03  0.38459923610E+03  0.00000000000E+00 0. -1.
         25    2    1    2    0    0  0.89237924537E+02 -0.32245640697E+02 -0.14971862914E+03  0.21694869882E+03  0.12509149246E+03 0.  0.
          5    1    3    3  502    0  0.11935790394E+03 -0.21417123161E+02 -0.97936424283E+02  0.15592952895E+03  0.41800000000E+01 0. -1.
         -5    1    3    3    0  502 -0.30119979402E+02 -0.10828517535E+02 -0.51782204860E+02  0.61019169868E+02  0.41800000000E+01 0. -1.
        -11    1    1    2    0    0 -0.46357519431E+02  0.60202074849E+02 -0.83088759062E+02  0.11259241230E+03  0.00000000000E+00 0. -1.
         11    1    1    2    0    0 -0.42880405106E+02 -0.27956434152E+02 -0.97091189734E+02  0.10975878314E+03  0.00000000000E+00 0.  1.
</event>
<event>
 7    1  0.2754786E-009  0.1439552E+03  0.7561462E-02  0.1208104E+00
          3   -1    0    0  501    0  0.00000000000E+00  0.00000000000E+00  0.47671924148E+03  0.47671924148E+03  0.00000000000E+00 0. -1.
         -3   -1    0    0    0  501 -0.00000000000E+00 -0.00000000000E+00 -0.57989333921E+02  0.57989333921E+02  0.00000000000E+00 0.  1.
         25    2    1    2    0    0  0.11607252263E+03  0.42734088099E+02  0.25846826983E+03  0.31265383899E+03  0.12509014241E+03 0.  0.
          5    1    3    3  502    0  0.12673616909E+03  0.90275328401E+01  0.14070956400E+03  0.18963176608E+03  0.41800000000E+01 0. -1.
         -5    1    3    3    0  502 -0.10663646464E+02  0.33706555259E+02  0.11775870584E+03  0.12302207291E+03  0.41800000000E+01 0. -1.
        -11    1    1    2    0    0 -0.29323083830E+02 -0.20037834519E+02  0.11742590444E+03  0.12267926105E+03  0.00000000000E+00 0. -1.
         11    1    1    2    0    0 -0.86749438798E+02 -0.22696253580E+02  0.42835733287E+02  0.99375475367E+02  0.00000000000E+00 0.  1.
</event>
<event>
 7    1  0.2686828E-009  0.1312915E+03  0.7561462E-02  0.1225552E+00
         -2   -1    0    0    0  501 -0.00000000000E+00  0.00000000000E+00  0.11161815144E+03  0.11161815144E+03  0.00000000000E+00 0.  1.
          2   -1    0    0  501    0  0.00000000000E+00 -0.00000000000E+00 -0.32640207757E+03  0.32640207757E+03  0.00000000000E+00 0. -1.
         25    2    1    2    0    0  0.19217266994E+02  0.12086779623E+03 -0.78519642992E+00  0.17499948103E+03  0.12508346938E+03 0.  0.
          5    1    3    3  502    0  0.40134046870E+02  0.59559744904E+02  0.54084009106E+02  0.90003651993E+02  0.41800000000E+01 0.  1.
         -5    1    3    3    0  502 -0.20916779876E+02  0.61308051323E+02 -0.54869205536E+02  0.84995829037E+02  0.41800000000E+01 0.  1.
        -11    1    1    2    0    0  0.75291597317E+01 -0.34603913164E+02 -0.14528197697E+03  0.14953585485E+03  0.00000000000E+00 0.  1.
         11    1    1    2    0    0 -0.26746426725E+02 -0.86263883063E+02 -0.68716752731E+02  0.11348489313E+03  0.00000000000E+00 0. -1.
</event>
<event>
 7    1  0.2686828E-009  0.9134880E+02  0.7561462E-02  0.1299618E+00
         -2   -1    0    0    0  501 -0.00000000000E+00  0.00000000000E+00  0.24820734444E+03  0.24820734444E+03  0.00000000000E+00 0.  1.
          2   -1    0    0  501    0  0.00000000000E+00 -0.00000000000E+00 -0.67440074263E+02  0.67440074263E+02  0.00000000000E+00 0. -1.
         25    2    1    2    0    0 -0.83754166610E+01  0.49191531968E+02  0.16240893672E+03  0.21098392785E+03  0.12509036998E+03 0.  0.
          5    1    3    3  502    0  0.46024916060E+02  0.24290955882E+02  0.13557478671E+03  0.14528020728E+03  0.41800000000E+01 0. -1.
         -5    1    3    3    0  502 -0.54400332721E+02  0.24900576086E+02  0.26834150016E+02  0.65703720569E+02  0.41800000000E+01 0. -1.
        -11    1    1    2    0    0  0.29427312720E+02 -0.30091989939E+02  0.47833990379E+02  0.63714874464E+02  0.00000000000E+00 0.  1.
         11    1    1    2    0    0 -0.21051896059E+02 -0.19099542029E+02 -0.29475656924E+02  0.40948616393E+02  0.00000000000E+00 0. -1.
</event>
<event>
 7    1  0.2686828E-009  0.8255123E+02  0.7561462E-02  0.1321963E+00
         -2   -1    0    0    0  501 -0.00000000000E+00  0.00000000000E+00  0.47967374750E+02  0.47967374750E+02  0.00000000000E+00 0.  1.
          2   -1    0    0  501    0  0.00000000000E+00 -0.00000000000E+00 -0.32148466938E+03  0.32148466938E+03  0.00000000000E+00 0. -1.
         25    2    1    2    0    0  0.78528174504E+01 -0.35696477223E+02 -0.22557757721E+03  0.26051505562E+03  0.12508775174E+03 0.  0.
          5    1    3    3  502    0  0.11538716384E+02  0.23209563407E+02 -0.18929606797E+03  0.19110808344E+03  0.41800000000E+01 0.  1.
         -5    1    3    3    0  502 -0.36858989341E+01 -0.58906040631E+02 -0.36281509243E+02  0.69406972176E+02  0.41800000000E+01 0.  1.
        -11    1    1    2    0    0 -0.37308998449E+02  0.58862716005E+01 -0.54713768732E+02  0.66484630159E+02  0.00000000000E+00 0. -1.
         11    1    1    2    0    0  0.29456180998E+02  0.29810205623E+02  0.67740513128E+01  0.42452358350E+02  0.00000000000E+00 0.  1.
</event>
<event>
 7    1  0.2686828E-009  0.9594155E+02  0.7561462E-02  0.1289069E+00
         -4   -1    0    0    0  501 -0.00000000000E+00  0.00000000000E+00  0.16858527433E+03  0.16858527433E+03  0.00000000000E+00 0.  1.
          4   -1    0    0  501    0  0.00000000000E+00 -0.00000000000E+00 -0.87829004363E+02  0.87829004363E+02  0.00000000000E+00 0. -1.
         25    2    1    2    0    0  0.20993702984E+02 -0.33095161417E+02  0.84332887004E+02  0.15586909444E+03  0.12508842272E+03 0.  0.
          5    1    3    3  502    0  0.40245130494E+02 -0.57730950262E+02  0.98631334058E+02  0.12123590889E+03  0.41800000000E+01 0. -1.
         -5    1    3    3    0  502 -0.19251427511E+02  0.24635788845E+02 -0.14298447054E+02  0.34633185550E+02  0.41800000000E+01 0. -1.
        -11    1    1    2    0    0  0.20517242601E+02  0.42575481094E+02 -0.24353330789E+02  0.53166846388E+02  0.00000000000E+00 0. -1.
         11    1    1    2    0    0 -0.41510945584E+02 -0.94803196770E+01  0.20776713754E+02  0.47378337866E+02  0.00000000000E+00 0.  1.
</event>
<event>
 7    1  0.2686828E-009  0.1076758E+03  0.7561462E-02  0.1264935E+00
         -1   -1    0    0    0  501 -0.00000000000E+00  0.00000000000E+00  0.14126438765E+02  0.14126438765E+02  0.00000000000E+00 0.  1.
          1   -1    0    0  501    0  0.00000000000E+00 -0.00000000000E+00 -0.10994768942E+04  0.10994768942E+04  0.00000000000E+00 0. -1.
         25    2    1    2    0    0  0.59483578584E+02 -0.18503782102E+02 -0.63257712194E+03  0.64782928918E+03  0.12509311187E+03 0.  0.
          5    1    3    3  502    0 -0.32404085221E+02 -0.99418453664E+01 -0.32194885595E+03  0.32375515946E+03  0.41800000000E+01 0. -1.
         -5    1    3    3    0  502  0.91887663804E+02 -0.85619367351E+01 -0.31062826599E+03  0.32407412972E+03  0.41800000000E+01 0. -1.
        -11    1    1    2    0    0 -0.73174286224E+02  0.15960719906E+02 -0.44164043694E+03  0.44794586311E+03  0.00000000000E+00 0. -1.
         11    1    1    2    0    0  0.13690707640E+02  0.25430621959E+01 -0.11132896604E+02  0.17828180721E+02  0.00000000000E+00 0.  1.
</event>
<event>
 7    1  0.2686828E-009  0.7018643E+02  0.7561462E-02  0.1359460E+00
          1   -1    0    0  501    0  0.00000000000E+00  0.00000000000E+00  0.36214736369E+02  0.36214736369E+02  0.00000000000E+00 0. -1.
         -1   -1    0    0    0  501 -0.00000000000E+00 -0.00000000000E+00 -0.41603218682E+03  0.41603218682E+03  0.00000000000E+00 0.  1.
         25    2    1    2    0    0 -0.57328967308E+02 -0.68883250602E+01 -0.22457388173E+03  0.26346748356E+03  0.12509047535E+03 0.  0.
          5    1    3    3  502    0 -0.48709262409E+02 -0.29505162655E+02 -0.24910323469E+02  0.62298824090E+02  0.41800000000E+01 0.  1.
         -5    1    3    3    0  502 -0.86197048989E+01  0.22616837595E+02 -0.19966355826E+03  0.20116865947E+03  0.41800000000E+01 0.  1.
        -11    1    1    2    0    0  0.28197400580E+02 -0.19540571358E+01 -0.15578725528E+03  0.15833060552E+03  0.00000000000E+00 0.  1.
         11    1    1    2    0    0  0.29131566728E+02  0.88423821960E+01  0.54368656158E+00  0.30448834099E+02  0.00000000000E+00 0. -1.
</event>
<event>
 7    1  0.2686828E-009  0.8656811E+02  0.7561462E-02  0.1311382E+00
          2   -1    0    0  501    0  0.00000000000E+00  0.00000000000E+00  0.12654666306E+03  0.12654666306E+03  0.00000000000E+00 0. -1.
         -2   -1    0    0    0  501 -0.00000000000E+00 -0.00000000000E+00 -0.11471781618E+03  0.11471781618E+03  0.00000000000E+00 0.  1.
         25    2    1    2    0    0 -0.40250232049E+02  0.16891557481E+01  0.41149240698E+02  0.13770685846E+03  0.12508790681E+03 0.  0.
          5    1    3    3  502    0 -0.33719356513E+02 -0.52203455182E+02 -0.99021595515E+01  0.63069175517E+02  0.41800000000E+01 0.  1.
         -5    1    3    3    0  502 -0.65308755361E+01  0.53892610930E+02  0.51051400250E+02  0.74637682946E+02  0.41800000000E+01 0.  1.
        -11    1    1    2    0    0  0.27313050949E+02  0.18094855025E+02  0.27014531325E+02  0.42464237109E+02  0.00000000000E+00 0. -1.
         11    1    1    2    0    0  0.12937181101E+02 -0.19784010774E+02 -0.56334925144E+02  0.61093383668E+02  0.00000000000E+00 0.  1.
</event>
<event>
 7    1  0.2686828E-009  0.1467388E+03  0.7561462E-02  0.1204539E+00
         -1   -1    0    0    0  501 -0.00000000000E+00  0.00000000000E+00  0.88416974384E+02  0.88416974384E+02  0.00000000000E+00 0.  1.
          1   -1    0    0  501    0  0.00000000000E+00 -0.00000000000E+00 -0.72655640055E+03  0.72655640055E+03  0.00000000000E+00 0. -1.
         25    2    1    2    0    0  0.11975976887E+03  0.43478431026E+02 -0.63604464839E+03  0.66062867634E+03  0.12507868344E+03 0.  0.
          5    1    3    3  502    0  0.87887091991E+02 -0.17853932492E+02 -0.49976927553E+03  0.50776934233E+03  0.41800000000E+01 0.  1.
         -5    1    3    3    0  502  0.31872676881E+02  0.61332363518E+02 -0.13627537285E+03  0.15285933401E+03  0.41800000000E+01 0.  1.
        -11    1    1    2    0    0 -0.89703058189E+02 -0.11287350436E+02 -0.37457701709E+02  0.97862773033E+02  0.00000000000E+00 0.  1.
         11    1    1    2    0    0 -0.30056710682E+02 -0.32191080590E+02  0.35362923931E+02  0.56481925565E+02  0.00000000000E+00 0. -1.
</event>
<event>
 7    1  0.2686828E-009  0.1156703E+03  0.7561462E-02  0.1250415E+00
          2   -1    0    0  501    0  0.00000000000E+00  0.00000000000E+00  0.55914993900E+03  0.55914993900E+03  0.00000000000E+00 0.  1.
         -2   -1    0    0    0  501 -0.00000000000E+00 -0.00000000000E+00 -0.24128598315E+02  0.24128598315E+02  0.00000000000E+00 0. -1.
         25    2    1    2    0    0 -0.31232183165E+02 -0.26534043255E+02  0.28905967431E+03  0.31761871801E+03  0.12508657003E+03 0.  0.
          5    1    3    3  502    0  0.45409103457E+02 -0.30137765789E+02  0.11327574511E+03  0.12577415646E+03  0.41800000000E+01 0. -1.
         -5    1    3    3    0  502 -0.76641286622E+02  0.36037225343E+01  0.17578392920E+03  0.19184456155E+03  0.41800000000E+01 0. -1.
        -11    1    1    2    0    0  0.18032841724E+02  0.60642754861E+02  0.16887047584E+03  0.18033292741E+03  0.00000000000E+00 0.  1.
         11    1    1    2    0    0  0.13199341441E+02 -0.34108711606E+02  0.77091190529E+02  0.85326891887E+02  0.00000000000E+00 0. -1.
</event>
<event>
 7    1  0.2686828E-009  0.1208069E+03  0.7561462E-02  0.1241772E+00
          2   -1    0    0  501    0  0.00000000000E+00  0.00000000000E+00  0.39572756682E+03  0.39572756682E+03  0.00000000000E+00 0. -1.
         -2   -1    0    0    0  501 -0.00000000000E+00 -0.00000000000E+00 -0.39622198452E+02  0.39622198452E+02  0.00000000000E+00 0.  1.
         25    2    1    2    0    0 -0.46886136780E+02 -0.40047842634E+02  0.21349619600E+03  0.25501040494E+03  0.12509013310E+03 0.  0.
          5    1    3    3  502    0 -0.84540048962E+02 -0.44314192007E+02  0.11572105853E+03  0.15006533004E+03  0.41800000000E+01 0.  1.
         -5    1    3    3    0  502  0.37653912182E+02  0.42663493723E+01  0.97775137469E+02  0.10494507490E+03  0.41800000000E+01 0.  1.
        -11    1    1    2    0    0 -0.35346605447E+01 -0.25223129367E+02  0.19154307191E+02  0.31868284613E+02  0.00000000000E+00 0.  1.
         11    1    1    2    0    0  0.50420797324E+02  0.65270972001E+02  0.12345486518E+03  0.14847107572E+03  0.00000000000E+00 0. -1.
</event>
<event>
 7    1  0.2686828E-009  0.9062733E+02  0.7561462E-02  0.1301340E+00
          1   -1    0    0  501    0  0.00000000000E+00  0.00000000000E+00  0.37250942043E+03  0.37250942043E+03  0.00000000000E+00 0. -1.
         -1   -1    0    0    0  501 -0.00000000000E+00 -0.00000000000E+00 -0.36995334416E+02  0.36995334416E+02  0.00000000000E+00 0.  1.
         25    2    1    2    0    0  0.23816968517E+01  0.17419345511E+01  0.27205623246E+03  0.29945081577E+03  0.12508993016E+03 0.  0.
          5    1    3    3  502    0 -0.34732872660E+02 -0.48334358796E+02  0.10053620823E+03  0.11690844387E+03  0.41800000000E+01 0.  1.
         -5    1    3    3    0  502  0.37114569511E+02  0.50076293347E+02  0.17152002424E+03  0.18254237190E+03  0.41800000000E+01 0.  1.
        -11    1    1    2    0    0 -0.25511715954E+01 -0.30376081832E+02 -0.92950846180E+01  0.31868690309E+02  0.00000000000E+00 0.  1.
         11    1    1    2    0    0  0.16947474369E+00  0.28634147281E+02  0.72752938166E+02  0.78185248762E+02  0.00000000000E+00 0. -1.
</event>
<event>
 7    1  0.2686828E-009  0.1182681E+03  0.7561462E-02  0.1245982E+00
          2   -1    0    0  501    0  0.00000000000E+00  0.00000000000E+00  0.13152474104E+04  0.13152474104E+04  0.00000000000E+00 0. -1.
         -2   -1    0    0    0  501 -0.00000000000E+00 -0.00000000000E+00 -0.12619983611E+02  0.12619983611E+02  0.00000000000E+00 0.  1.
         25    2    1    2    0    0 -0.25251886688E+02  0.51828402661E+02  0.92027616816E+03  0.93052641566E+03  0.12508934191E+03 0.  0.
          5    1    3    3  502    0 -0.69346257799E+02  0.48476210224E+02  0.74112459206E+03  0.74595038694E+03  0.41800000000E+01 0. -1.
         -5    1    3    3    0  502  0.44094371111E+02  0.33521924371E+01  0.17915157610E+03  0.18457602872E+03  0.41800000000E+01 0. -1.
        -11    1    1    2    0    0 -0.30516877380E+02 -0.40140969238E+02  0.20224954041E+03  0.20844052823E+03  0.00000000000E+00 0.  1.
         11    1    1    2    0    0  0.55768764067E+02 -0.11687433423E+02  0.18010171821E+03  0.18890045010E+03  0.00000000000E+00 0. -1.
</event>
<event>
 7    1  0.2686828E-009  0.1569466E+03  0.7561462E-02  0.1192188E+00
         -2   -1    0    0    0  501 -0.00000000000E+00  0.00000000000E+00  0.17530007616E+03  0.17530007616E+03  0.00000000000E+00 0.  1.
          2   -1    0    0  501    0  0.00000000000E+00 -0.00000000000E+00 -0.16409768477E+03  0.16409768477E+03  0.00000000000E+00 0. -1.
         25    2    1    2    0    0  0.63744511544E+02 -0.10104775421E+03  0.56247369193E+02  0.18188724506E+03  0.12508074189E+03 0.  0.
          5    1    3    3  502    0  0.93822457283E+02 -0.58118268088E+02  0.83505059130E+01  0.11075915278E+03  0.41800000000E+01 0. -1.
         -5    1    3    3    0  502 -0.30077945739E+02 -0.42929486120E+02  0.47896863280E+02  0.71128092274E+02  0.41800000000E+01 0. -1.
        -11    1    1    2    0    0  0.22033991259E+02  0.39706609781E+02 -0.11413894638E+02  0.46822949735E+02  0.00000000000E+00 0.  1.
         11    1    1    2    0    0 -0.85778502803E+02  0.61341144427E+02 -0.33631083168E+02  0.11068756614E+03  0.00000000000E+00 0. -1.
</event>
<event>
 7    1  0.2686828E-009  0.1106710E+03  0.7561462E-02  0.1259332E+00
         -1   -1    0    0    0  501 -0.00000000000E+00  0.00000000000E+00  0.12999830788E+03  0.12999830788E+03  0.00000000000E+00 0.  1.
          1   -1    0    0  501    0  0.00000000000E+00 -0.00000000000E+00 -0.12137075336E+03  0.12137075336E+03  0.00000000000E+00 0. -1.
         25    2    1    2    0    0 -0.57333786868E+02 -0.21509551771E+02  0.22278985618E+02  0.14104023170E+03  0.12508465063E+03 0.  0.
          5    1    3    3  502    0 -0.52149039606E+02  0.45779732182E+02 -0.10053665129E+01  0.69525458447E+02  0.41800000000E+01 0. -1.
         -5    1    3    3    0  502 -0.51847472621E+01 -0.67289283952E+02  0.23284352131E+02  0.71514773251E+02  0.41800000000E+01 0. -1.
        -11    1    1    2    0    0  0.67854056785E+02  0.99566492526E+01  0.21491137862E+02  0.71869165107E+02  0.00000000000E+00 0.  1.
         11    1    1    2    0    0 -0.10520269917E+02  0.11552902518E+02 -0.35142568962E+02  0.38459664442E+02  0.00000000000E+00 0. -1.
</event>
<event>
 7    1  0.2686828E-009  0.1054501E+03  0.7561462E-02  0.1269235E+00
         -1   -1    0    0    0  501 -0.00000000000E+00  0.00000000000E+00  0.12725155810E+03  0.12725155810E+03  0.00000000000E+00 0.  1.
          1   -1    0    0  501    0  0.00000000000E+00 -0.00000000000E+00 -0.11313277497E+03  0.11313277497E+03  0.00000000000E+00 0. -1.
         25    2    1    2    0    0  0.18009985786E+02 -0.44259223120E+02 -0.10352114384E+02  0.13430552341E+03  0.12509024313E+03 0.  0.
          5    1    3    3  502    0 -0.38113989217E+02 -0.15090032098E+01  0.33662895307E+02  0.51045236655E+02  0.41800000000E+01 0.  1.
         -5    1    3    3    0  502  0.56123975003E+02 -0.42750219910E+02 -0.44015009691E+02  0.83260286756E+02  0.41800000000E+01 0.  1.
        -11    1    1    2    0    0 -0.69898038107E+01  0.71825947643E+02  0.93698524670E+01  0.72770998670E+02  0.00000000000E+00 0.  1.
         11    1    1    2    0    0 -0.11020181975E+02 -0.27566724523E+02  0.15101045039E+02  0.33307810991E+02  0.00000000000E+00 0. -1.
</event>
<event>
 7    1  0.2686828E-009  0.8674940E+02  0.7561462E-02  0.1310920E+00
          2   -1    0    0  501    0  0.00000000000E+00  0.00000000000E+00  0.44526595172E+03  0.44526595172E+03  0.00000000000E+00 0. -1.
         -2   -1    0    0    0  501 -0.00000000000E+00 -0.00000000000E+00 -0.33763813858E+02  0.33763813858E+02  0.00000000000E+00 0.  1.
         25    2    1    2    0    0 -0.55255524532E+02 -0.15338169218E+01  0.26161019516E+03  0.29520441250E+03  0.12510086076E+03 0.  0.
          5    1    3    3  502    0 -0.68279461059E+02  0.36577496159E+02  0.89699879859E+02  0.11858979245E+03  0.41800000000E+01 0.  1.
         -5    1    3    3    0  502  0.13023936527E+02 -0.38111313081E+02  0.17191031530E+03  0.17661462005E+03  0.41800000000E+01 0.  1.
        -11    1    1    2    0    0  0.23170859856E+02  0.27090110310E+01 -0.64635488519E+01  0.24207539135E+02  0.00000000000E+00 0.  1.
         11    1    1    2    0    0  0.32084664676E+02 -0.11751941092E+01  0.15635549155E+03  0.15961781394E+03  0.00000000000E+00 0. -1.
</event>
<event>
 7    1  0.2686828E-009  0.1397054E+03  0.7561462E-02  0.1213726E+00
         -3   -1    0    0    0  501 -0.00000000000E+00  0.00000000000E+00  0.81353467244E+03  0.81353467244E+03  0.00000000000E+00 0.  1.
          3   -1    0    0  501    0  0.00000000000E+00 -0.00000000000E+00 -0.26684138303E+02  0.26684138303E+02  0.00000000000E+00 0. -1.
         25    2    1    2    0    0  0.75665992258E+02 -0.65416760584E+02  0.40360275261E+03  0.43422103856E+03  0.12509209993E+03 0.  0.
          5    1    3    3  502    0  0.88884801726E+02 -0.10331476794E+02  0.32578677364E+03  0.33787829416E+03  0.41800000000E+01 0. -1.
         -5    1    3    3    0  502 -0.13218809468E+02 -0.55085283790E+02  0.77815978970E+02  0.96342744392E+02  0.41800000000E+01 0. -1.
        -11    1    1    2    0    0 -0.14533908968E+00  0.57043297583E+02  0.14059120146E+03  0.15172292131E+03  0.00000000000E+00 0. -1.
         11    1    1    2    0    0 -0.75520653168E+02  0.83734630010E+01  0.24265658007E+03  0.25427485088E+03  0.00000000000E+00 0.  1.
</event>
<event>
 7    1  0.2686828E-009  0.1544628E+03  0.7561462E-02  0.1195094E+00
          1   -1    0    0  501    0  0.00000000000E+00  0.00000000000E+00  0.88879165187E+03  0.88879165187E+03  0.00000000000E+00 0. -1.
         -1   -1    0    0    0  501 -0.00000000000E+00 -0.00000000000E+00 -0.34258742167E+02  0.34258742167E+02  0.00000000000E+00 0.  1.
         25    2    1    2    0    0  0.66755441517E+02 -0.11370079192E+03  0.53353675721E+03  0.56364272220E+03  0.12508991938E+03 0.  0.
          5    1    3    3  502    0  0.18014931475E+02 -0.12013853329E+03  0.45445890199E+03  0.47043402399E+03  0.41800000000E+01 0.  1.
         -5    1    3    3    0  502  0.48740510042E+02  0.64377413670E+01  0.79077855226E+02  0.93208698201E+02  0.41800000000E+01 0.  1.
        -11    1    1    2    0    0 -0.83478735383E+01  0.53518851863E+02  0.22728231768E+03  0.23364761164E+03  0.00000000000E+00 0. -1.
         11    1    1    2    0    0 -0.58407567979E+02  0.60181940057E+02  0.93713834811E+02  0.12576006020E+03  0.00000000000E+00 0.  1.
</event>
<event>
 7    1  0.2686828E-009  0.1302273E+03  0.7561462E-02  0.1227119E+00
         -1   -1    0    0    0  501 -0.00000000000E+00  0.00000000000E+00  0.25953358320E+02  0.25953358320E+02  0.00000000000E+00 0. -1.
          1   -1    0    0  501    0  0.00000000000E+00 -0.00000000000E+00 -0.74838031420E+03  0.74838031420E+03  0.00000000000E+00 0.  1.
         25    2    1    2    0    0  0.18908218009E+02 -0.82374218484E+02 -0.32642368563E+03  0.35964225677E+03  0.12508835971E+03 0.  0.
          5    1    3    3  502    0 -0.47025020379E+02 -0.64149639983E+02 -0.14074152879E+03  0.16171635408E+03  0.41800000000E+01 0. -1.
         -5    1    3    3    0  502  0.65933238388E+02 -0.18224578501E+02 -0.18568215684E+03  0.19792590269E+03  0.41800000000E+01 0. -1.
        -11    1    1    2    0    0 -0.45600693288E+02  0.33497888471E+02 -0.11432490927E+03  0.12756063907E+03  0.00000000000E+00 0.  1.
         11    1    1    2    0    0  0.26692475279E+02  0.48876330013E+02 -0.28167836098E+03  0.28713077668E+03  0.00000000000E+00 0. -1.
</event>
<event>
 7    1  0.2686828E-009  0.1226119E+03  0.7561462E-02  0.1238849E+00
          1   -1    0    0  501    0  0.00000000000E+00  0.00000000000E+00  0.66582520878E+02  0.66582520878E+02  0.00000000000E+00 0. -1.
         -1   -1    0    0    0  501 -0.00000000000E+00 -0.00000000000E+00 -0.36400515973E+03  0.36400515973E+03  0.00000000000E+00 0.  1.
         25    2    1    2    0    0  0.57657575229E+02 -0.95740867915E+02 -0.13527697220E+03  0.21549450628E+03  0.12508922120E+03 0.  0.
          5    1    3    3  502    0 -0.11081500366E+02 -0.46590045873E+02  0.83581102243E+01  0.48793057204E+02  0.41800000000E+01 0.  1.
         -5    1    3    3    0  502  0.68739075594E+02 -0.49150822042E+02 -0.14363508243E+03  0.16670144908E+03  0.41800000000E+01 0.  1.
        -11    1    1    2    0    0 -0.26224243774E+02  0.31205346778E+02 -0.34374969632E+01  0.40906002181E+02  0.00000000000E+00 0. -1.
         11    1    1    2    0    0 -0.31433331455E+02  0.64535521138E+02 -0.15870816969E+03  0.17418717215E+03  0.00000000000E+00 0.  1.
</event>
<event>
 7    1  0.2686828E-009  0.1545290E+03  0.7561462E-02  0.1195016E+00
         -1   -1    0    0    0  501 -0.00000000000E+00  0.00000000000E+00  0.19723060312E+02  0.19723060312E+02  0.00000000000E+00 0.  1.
          1   -1    0    0  501    0  0.00000000000E+00 -0.00000000000E+00 -0.14312010530E+04  0.14312010530E+04  0.00000000000E+00 0. -1.
         25    2    1    2    0    0  0.98207017308E+01  0.12450292667E+03 -0.87816651593E+03  0.89578035829E+03  0.12509434705E+03 0.  0.
          5    1    3    3  502    0 -0.51344588394E+02  0.19704122602E+02 -0.29426529226E+03  0.29938946848E+03  0.41800000000E+01 0.  1.
         -5    1    3    3    0  502  0.61165290125E+02  0.10479880407E+03 -0.58390122366E+03  0.59639088981E+03  0.41800000000E+01 0.  1.
        -11    1    1    2    0    0  0.15473403657E+02 -0.78315381565E+02 -0.44672197285E+03  0.45379868471E+03  0.00000000000E+00 0. -1.
         11    1    1    2    0    0 -0.25294105388E+02 -0.46187545108E+02 -0.86589503880E+02  0.10134507029E+03  0.00000000000E+00 0.  1.
</event>
<event>
 7    1  0.2686828E-009  0.1433734E+03  0.7561462E-02  0.1208861E+00
          2   -1    0    0  501    0  0.00000000000E+00  0.00000000000E+00  0.69709085344E+03  0.69709085344E+03  0.00000000000E+00 0. -1.
         -2   -1    0    0    0  501 -0.00000000000E+00 -0.00000000000E+00 -0.31952346673E+02  0.31952346673E+02  0.00000000000E+00 0.  1.
         25    2    1    2    0    0  0.95556907673E+02  0.12315599085E+02  0.27321008639E+03  0.31555145613E+03  0.12508466563E+03 0.  0.
          5    1    3    3  502    0  0.11791809263E+03  0.35684474230E+02  0.23457099607E+03  0.26498883537E+03  0.41800000000E+01 0. -1.
         -5    1    3    3    0  502 -0.22361184955E+02 -0.23368875145E+02  0.38639090319E+02  0.50562620767E+02  0.41800000000E+01 0. -1.
        -11    1    1    2    0    0 -0.57621243135E+01 -0.37232684036E+02  0.13614070749E+03  0.14125780358E+03  0.00000000000E+00 0. -1.
         11    1    1    2    0    0 -0.89794783360E+02  0.24917084952E+02  0.25578771288E+03  0.27223394039E+03  0.00000000000E+00 0.  1.
</event>
<event>
 7    1  0.2686828E-009  0.9198139E+02  0.7561462E-02  0.1298123E+00
          1   -1    0    0  501    0  0.00000000000E+00  0.00000000000E+00  0.36848055019E+03  0.36848055019E+03  0.00000000000E+00 0. -1.
         -1   -1    0    0    0  501 -0.00000000000E+00 -0.00000000000E+00 -0.35440945919E+02  0.35440945919E+02  0.00000000000E+00 0.  1.
         25    2    1    2    0    0  0.54301832011E+01  0.34697443199E+02  0.21901586290E+03  0.25465371868E+03  0.12508864370E+03 0.  0.
          5    1    3    3  502    0 -0.46814167087E+02  0.51664738831E+02  0.86740340621E+02  0.11136503298E+03  0.41800000000E+01 0. -1.
         -5    1    3    3    0  502  0.52244350288E+02 -0.16967295633E+02  0.13227552228E+03  0.14328868571E+03  0.41800000000E+01 0. -1.
        -11    1    1    2    0    0 -0.22097996883E+01  0.12009398203E+02 -0.10581215273E+02  0.16157690940E+02  0.00000000000E+00 0.  1.
         11    1    1    2    0    0 -0.32203835128E+01 -0.46706841401E+02  0.12460495664E+03  0.13311008648E+03  0.00000000000E+00 0. -1.
</event>
<event>
 7    1  0.2686828E-009  0.1562446E+03  0.7561462E-02  0.1193003E+00
          2   -1    0    0  501    0  0.00000000000E+00  0.00000000000E+00  0.58578082710E+02  0.58578082710E+02  0.00000000000E+00 0. -1.
         -2   -1    0    0    0  501 -0.00000000000E+00 -0.00000000000E+00 -0.44066193640E+03  0.44066193640E+03  0.00000000000E+00 0.  1.
         25    2    1    2    0    0  0.61967044439E+01  0.11762811958E+03 -0.21668503482E+03  0.27654144947E+03  0.12509194738E+03 0.  0.
          5    1    3    3  502    0 -0.39713464525E+02  0.11168254415E+03 -0.11725143263E+03  0.16677985726E+03  0.41800000000E+01 0.  1.
         -5    1    3    3    0  502  0.45910168969E+02  0.59455754367E+01 -0.99433602187E+02  0.10976159222E+03  0.41800000000E+01 0.  1.
        -11    1    1    2    0    0 -0.40879949472E+02 -0.23654066561E+02 -0.69460407318E+02  0.83996626828E+02  0.00000000000E+00 0.  1.
         11    1    1    2    0    0  0.34683245028E+02 -0.93974053024E+02 -0.95938411548E+02  0.13870194280E+03  0.00000000000E+00 0. -1.
</event>
<event>
 7    1  0.2686828E-009  0.1156045E+03  0.7561462E-02  0.1250530E+00
         -3   -1    0    0    0  501 -0.00000000000E+00  0.00000000000E+00  0.12457773999E+03  0.12457773999E+03  0.00000000000E+00 0.  1.
          3   -1    0    0  501    0  0.00000000000E+00 -0.00000000000E+00 -0.11952601241E+03  0.11952601241E+03  0.00000000000E+00 0. -1.
         25    2    1    2    0    0 -0.31763185918E+02  0.40650819732E+02 -0.47276194703E+01  0.13539535121E+03  0.12509261216E+03 0.  0.
          5    1    3    3  502    0 -0.79463413788E+02  0.34762518507E+02  0.77706237419E+00  0.86838603453E+02  0.41800000000E+01 0.  1.
         -5    1    3    3    0  502  0.47700227871E+02  0.58883012254E+01 -0.55046818445E+01  0.48556747754E+02  0.41800000000E+01 0.  1.
        -11    1    1    2    0    0 -0.22616380359E+01 -0.57926534988E+02  0.30267569054E+02  0.65396668101E+02  0.00000000000E+00 0.  1.
         11    1    1    2    0    0  0.34024823953E+02  0.17275715256E+02 -0.20488221998E+02  0.43311733091E+02  0.00000000000E+00 0. -1.
</event>
<event>
 7    1  0.2686828E-009  0.1195820E+03  0.7561462E-02  0.1243788E+00
         -2   -1    0    0    0  501 -0.00000000000E+00  0.00000000000E+00  0.29544641835E+02  0.29544641835E+02  0.00000000000E+00 0.  1.
          2   -1    0    0  501    0  0.00000000000E+00 -0.00000000000E+00 -0.55245182723E+03  0.55245182723E+03  0.00000000000E+00 0. -1.
         25    2    1    2    0    0  0.83232682749E+01  0.45208336160E+02 -0.18646219564E+03  0.22918939736E+03  0.12508620630E+03 0.  0.
          5    1    3    3  502    0  0.55116280346E+02 -0.14382119106E+02 -0.72933415101E+02  0.92635873977E+02  0.41800000000E+01 0.  1.
         -5    1    3    3    0  502 -0.46793012072E+02  0.59590455266E+02 -0.11352878054E+03  0.13655352338E+03  0.41800000000E+01 0.  1.
        -11    1    1    2    0    0 -0.52183703687E+02 -0.25543517248E+02 -0.18821284623E+03  0.19697635820E+03  0.00000000000E+00 0.  1.
         11    1    1    2    0    0  0.43860435412E+02 -0.19664818912E+02 -0.14823214352E+03  0.15583071350E+03  0.00000000000E+00 0. -1.
</event>
<event>
 7    1  0.2686828E-009  0.1352625E+03  0.7561462E-02  0.1219850E+00
          2   -1    0    0  501    0  0.00000000000E+00  0.00000000000E+00  0.66002288754E+03  0.66002288754E+03  0.00000000000E+00 0. -1.
         -2   -1    0    0    0  501 -0.00000000000E+00 -0.00000000000E+00 -0.31652270024E+02  0.31652270024E+02  0.00000000000E+00 0.  1.
         25    2    1    2    0    0  0.91585298088E+02  0.26739487477E+02  0.29357065356E+03  0.33306704609E+03  0.12508821507E+03 0.  0.
          5    1    3    3  502    0  0.62597168225E+01  0.53550647531E+02  0.18282191255E+03  0.19065198665E+03  0.41800000000E+01 0. -1.
         -5    1    3    3    0  502  0.85325581265E+02 -0.26811160054E+02  0.11074874101E+03  0.14241505944E+03  0.41800000000E+01 0. -1.
        -11    1    1    2    0    0 -0.83200005115E+02 -0.53467575997E+02  0.23528104564E+03  0.25522185050E+03  0.00000000000E+00 0.  1.
         11    1    1    2    0    0 -0.83852929724E+01  0.26728088520E+02  0.99518918321E+02  0.10338626097E+03  0.00000000000E+00 0. -1.
</event>
<event>
 7    1  0.2686828E-009  0.9258974E+02  0.7561462E-02  0.1296699E+00
          1   -1    0    0  501    0  0.00000000000E+00  0.00000000000E+00  0.53271979067E+02  0.53271979067E+02  0.00000000000E+00 0. -1.
         -1   -1    0    0    0  501 -0.00000000000E+00 -0.00000000000E+00 -0.29496230693E+03  0.29496230693E+03  0.00000000000E+00 0.  1.
         25    2    1    2    0    0  0.80537850859E+01 -0.48441781554E+02 -0.17615162472E+03  0.22155834227E+03  0.12508890630E+03 0.  0.
          5    1    3    3  502    0  0.20838468569E+02  0.49031708105E+01  0.12437501234E+02  0.25108697562E+02  0.41800000000E+01 0.  1.
         -5    1    3    3    0  502 -0.12784683484E+02 -0.53344952364E+02 -0.18858912596E+03  0.19644964470E+03  0.41800000000E+01 0.  1.
        -11    1    1    2    0    0 -0.49211659252E+02  0.65841292400E+01 -0.31972341115E+02  0.59053947882E+02  0.00000000000E+00 0. -1.
         11    1    1    2    0    0  0.41157874166E+02  0.41857652314E+02 -0.33566362024E+02  0.67621995849E+02  0.00000000000E+00 0.  1.
</event>
<event>
 7    1  0.2686828E-009  0.9259360E+02  0.7561462E-02  0.1296690E+00
          2   -1    0    0  501    0  0.00000000000E+00  0.00000000000E+00  0.16346592842E+03  0.16346592842E+03  0.00000000000E+00 0. -1.
         -2   -1    0    0    0  501 -0.00000000000E+00 -0.00000000000E+00 -0.99126820281E+02  0.99126820281E+02  0.00000000000E+00 0.  1.
         25    2    1    2    0    0 -0.31213185511E+01  0.39597594795E+02  0.86705002514E+02  0.15729903772E+03  0.12509003823E+03 0.  0.
          5    1    3    3  502    0  0.38843050969E+02  0.61226422840E+01 -0.14941391826E+02  0.42272768383E+02  0.41800000000E+01 0. -1.
         -5    1    3    3    0  502 -0.41964369520E+02  0.33474952511E+02  0.10164639434E+03  0.11502626934E+03  0.41800000000E+01 0. -1.
        -11    1    1    2    0    0 -0.30672875218E+02 -0.48012635809E+02  0.98884753499E+01  0.57825776399E+02  0.00000000000E+00 0. -1.
         11    1    1    2    0    0  0.33794193769E+02  0.84150410133E+01 -0.32254369721E+02  0.47467934586E+02  0.00000000000E+00 0.  1.
</event>
<event>
 7    1  0.2686828E-009  0.1312487E+03  0.7561462E-02  0.1225615E+00
          2   -1    0    0  501    0  0.00000000000E+00  0.00000000000E+00  0.45358144154E+03  0.45358144154E+03  0.00000000000E+00 0.  1.
         -2   -1    0    0    0  501 -0.00000000000E+00 -0.00000000000E+00 -0.50797358588E+02  0.50797358588E+02  0.00000000000E+00 0. -1.
         25    2    1    2    0    0  0.68003360182E+02  0.64566380349E+02  0.30197182991E+03  0.34003972884E+03  0.12508699638E+03 0.  0.
          5    1    3    3  502    0  0.61009988518E+02  0.99705206241E+02  0.25718747007E+03  0.28253533232E+03  0.41800000000E+01 0.  1.
         -5    1    3    3    0  502  0.69933716641E+01 -0.35138825891E+02  0.44784359840E+02  0.57504396515E+02  0.41800000000E+01 0.  1.
        -11    1    1    2    0    0 -0.76269318466E+02 -0.45822850126E+02  0.35340978959E+02  0.95737805107E+02  0.00000000000E+00 0. -1.
         11    1    1    2    0    0  0.82659582843E+01 -0.18743530224E+02  0.65471274080E+02  0.68601266178E+02  0.00000000000E+00 0.  1.
</event>
<event>
 7    1  0.2686828E-009  0.1794269E+03  0.7561462E-02  0.1168359E+00
          2   -1    0    0  501    0  0.00000000000E+00  0.00000000000E+00  0.11950818836E+04  0.11950818836E+04  0.00000000000E+00 0. -1.
         -2   -1    0    0    0  501 -0.00000000000E+00 -0.00000000000E+00 -0.30415535807E+02  0.30415535807E+02  0.00000000000E+00 0.  1.
         25    2    1    2    0    0  0.11217539363E+03  0.10589165276E+03  0.65320645534E+03  0.68273135794E+03  0.12508825990E+03 0.  0.
          5    1    3    3  502    0 -0.18985273070E+02  0.27620731698E+02  0.49063019416E+02  0.59565071034E+02  0.41800000000E+01 0.  1.
         -5    1    3    3    0  502  0.13116066670E+03  0.78270921060E+02  0.60414343592E+03  0.62316628691E+03  0.41800000000E+01 0.  1.
        -11    1    1    2    0    0 -0.88350591453E+02 -0.30904272536E+02  0.18982229997E+03  0.21164452895E+03  0.00000000000E+00 0.  1.
         11    1    1    2    0    0 -0.23824802172E+02 -0.74987380222E+02  0.32163759250E+03  0.33112153253E+03  0.00000000000E+00 0. -1.
</event>
<event>
 7    1  0.2686828E-009  0.1819855E+03  0.7561462E-02  0.1165895E+00
          2   -1    0    0  501    0  0.00000000000E+00  0.00000000000E+00  0.55054573881E+03  0.55054573881E+03  0.00000000000E+00 0. -1.
         -2   -1    0    0    0  501 -0.00000000000E+00 -0.00000000000E+00 -0.10222452890E+03  0.10222452890E+03  0.00000000000E+00 0.  1.
         25    2    1    2    0    0 -0.35884940665E+02  0.17406507345E+03  0.76901771692E+02  0.23053722039E+03  0.12508856356E+03 0.  0.
          5    1    3    3  502    0 -0.87056171872E+01  0.30040796586E+02 -0.34229736260E+02  0.46555176668E+02  0.41800000000E+01 0. -1.
         -5    1    3    3    0  502 -0.27179323478E+02  0.14402427687E+03  0.11113150795E+03  0.18398204372E+03  0.41800000000E+01 0. -1.
        -11    1    1    2    0    0  0.44297572842E+02 -0.80798156594E+02  0.26455777978E+03  0.28014538352E+03  0.00000000000E+00 0. -1.
         11    1    1    2    0    0 -0.84126321763E+01 -0.93266916861E+02  0.10686165844E+03  0.14208766381E+03  0.00000000000E+00 0.  1.
</event>
<event>
 7    1  0.2686828E-009  0.1520998E+03  0.7561462E-02  0.1197916E+00
         -1   -1    0    0    0  501 -0.00000000000E+00  0.00000000000E+00  0.79856141122E+02  0.79856141122E+02  0.00000000000E+00 0.  1.
          1   -1    0    0  501    0  0.00000000000E+00 -0.00000000000E+00 -0.46172553338E+03  0.46172553338E+03  0.00000000000E+00 0. -1.
         25    2    1    2    0    0 -0.71007823521E+02  0.11743497205E+03 -0.31508753827E+03  0.36573218468E+03  0.12508713154E+03 0.  0.
          5    1    3    3  502    0 -0.25743021265E+01  0.30086974134E+02  0.12103999339E+01  0.30508859565E+02  0.41800000000E+01 0.  1.
         -5    1    3    3    0  502 -0.68433521394E+02  0.87347997915E+02 -0.31629793820E+03  0.33522332512E+03  0.41800000000E+01 0.  1.
        -11    1    1    2    0    0  0.59707965614E+02 -0.17666673837E+02 -0.26012920891E+02  0.67482031502E+02  0.00000000000E+00 0. -1.
         11    1    1    2    0    0  0.11299857906E+02 -0.99768298212E+02 -0.40768933096E+02  0.10836745832E+03  0.00000000000E+00 0.  1.
</event>
<event>
 7    1  0.2686828E-009  0.1435572E+03  0.7561462E-02  0.1208621E+00
          3   -1    0    0  501    0  0.00000000000E+00  0.00000000000E+00  0.40881500126E+02  0.40881500126E+02  0.00000000000E+00 0. -1.
         -3   -1    0    0    0  501 -0.00000000000E+00 -0.00000000000E+00 -0.14485123357E+04  0.14485123357E+04  0.00000000000E+00 0.  1.
         25    2    1    2    0    0 -0.76147408080E+02  0.84356891507E+02 -0.12942294725E+04  0.13052176042E+04  0.12509418075E+03 0.  0.
          5    1    3    3  502    0  0.23936870680E+02  0.59629480781E+02 -0.58252577009E+03  0.58607371036E+03  0.41800000000E+01 0.  1.
         -5    1    3    3    0  502 -0.10008427876E+03  0.24727410726E+02 -0.71170370237E+03  0.71914389385E+03  0.41800000000E+01 0.  1.
        -11    1    1    2    0    0  0.48485407495E+02 -0.76878175651E+02 -0.29565253749E+02  0.95578202853E+02  0.00000000000E+00 0. -1.
         11    1    1    2    0    0  0.27662000586E+02 -0.74787158557E+01 -0.83836109397E+02  0.88598028794E+02  0.00000000000E+00 0.  1.
</event>
<event>
 7    1  0.2686828E-009  0.1394749E+03  0.7561462E-02  0.1214037E+00
         -1   -1    0    0    0  501 -0.00000000000E+00  0.00000000000E+00  0.27442393545E+02  0.27442393545E+02  0.00000000000E+00 0.  1.
          1   -1    0    0  501    0  0.00000000000E+00 -0.00000000000E+00 -0.99612993199E+03  0.99612993199E+03  0.00000000000E+00 0. -1.
         25    2    1    2    0    0  0.79016802168E+02  0.95095562266E+02 -0.54204912814E+03  0.56986912333E+03  0.12508692743E+03 0.  0.
          5    1    3    3  502    0  0.63372633744E+02  0.87510396159E+02 -0.54127656105E+03  0.55197096671E+03  0.41800000000E+01 0. -1.
         -5    1    3    3    0  502  0.15644168424E+02  0.75851661074E+01 -0.77256709300E+00  0.17898156622E+02  0.41800000000E+01 0. -1.
        -11    1    1    2    0    0 -0.59043942868E+01 -0.77520819290E+02 -0.24747658603E+03  0.25940123347E+03  0.00000000000E+00 0. -1.
         11    1    1    2    0    0 -0.73112407882E+02 -0.17574742976E+02 -0.17916182427E+03  0.19430196873E+03  0.00000000000E+00 0.  1.
</event>
<event>
 7    1  0.2686828E-009  0.1417290E+03  0.7561462E-02  0.1211021E+00
          2   -1    0    0  501    0  0.00000000000E+00  0.00000000000E+00  0.93714817341E+03  0.93714817341E+03  0.00000000000E+00 0. -1.
         -2   -1    0    0    0  501 -0.00000000000E+00 -0.00000000000E+00 -0.39575783932E+02  0.39575783932E+02  0.00000000000E+00 0.  1.
         25    2    1    2    0    0 -0.12104257535E+03  0.50198543624E+02  0.24514217557E+03  0.30481742834E+03  0.12509108502E+03 0.  0.
          5    1    3    3  502    0 -0.68528703081E+01 -0.39027434940E+01 -0.13929354205E+02  0.16543655787E+02  0.41800000000E+01 0.  1.
         -5    1    3    3    0  502 -0.11418970505E+03  0.54101287118E+02  0.25907152977E+03  0.28827377256E+03  0.41800000000E+01 0.  1.
        -11    1    1    2    0    0  0.66872405159E+02 -0.63616721322E+02  0.52109738882E+03  0.52920836580E+03  0.00000000000E+00 0.  1.
         11    1    1    2    0    0  0.54170170195E+02  0.13418177698E+02  0.13133282509E+03  0.14269816319E+03  0.00000000000E+00 0. -1.
</event>
<event>
 7    1  0.2686828E-009  0.1116128E+03  0.7561462E-02  0.1257612E+00
         -3   -1    0    0    0  501 -0.00000000000E+00  0.00000000000E+00  0.23646143084E+03  0.23646143084E+03  0.00000000000E+00 0.  1.
          3   -1    0    0  501    0  0.00000000000E+00 -0.00000000000E+00 -0.69989530428E+02  0.69989530428E+02  0.00000000000E+00 0. -1.
         25    2    1    2    0    0  0.36158131139E+02 -0.42083962667E+02  0.41688854465E+02  0.14304758013E+03  0.12508468825E+03 0.  0.
          5    1    3    3  502    0 -0.32643681776E+02  0.19576205116E+02  0.32287377421E+02  0.50087772034E+02  0.41800000000E+01 0.  1.
         -5    1    3    3    0  502  0.68801812915E+02 -0.61660167783E+02  0.94014770441E+01  0.92959808101E+02  0.41800000000E+01 0.  1.
        -11    1    1    2    0    0 -0.24964082523E+02 -0.18353330484E+02  0.89149451135E+01  0.32241687339E+02  0.00000000000E+00 0. -1.
         11    1    1    2    0    0 -0.11194048617E+02  0.60437293151E+02  0.11586810083E+03  0.13116169379E+03  0.00000000000E+00 0.  1.
</event>
<event>
 7    1  0.2686828E-009  0.8349533E+02  0.7561462E-02  0.1319415E+00
         -1   -1    0    0    0  501 -0.00000000000E+00  0.00000000000E+00  0.12668596317E+03  0.12668596317E+03  0.00000000000E+00 0.  1.
          1   -1    0    0  501    0  0.00000000000E+00 -0.00000000000E+00 -0.10230906943E+03  0.10230906943E+03  0.00000000000E+00 0. -1.
         25    2    1    2    0    0 -0.83249926430E+01 -0.46474348160E+01  0.38901751011E+02  0.13134622925E+03  0.12509029360E+03 0.  0.
          5    1    3    3  502    0  0.54160402872E+02  0.16810989501E+02  0.53071252419E+01  0.57110389472E+02  0.41800000000E+01 0. -1.
         -5    1    3    3    0  502 -0.62485395516E+02 -0.21458424317E+02  0.33594625769E+02  0.74235839778E+02  0.41800000000E+01 0. -1.
        -11    1    1    2    0    0 -0.15056251021E+02  0.12177134176E+02 -0.50501213875E+02  0.54086466832E+02  0.00000000000E+00 0. -1.
         11    1    1    2    0    0  0.23381243664E+02 -0.75296993598E+01  0.35976356609E+02  0.43562336514E+02  0.00000000000E+00 0.  1.
</event>
<event>
 7    1  0.2686828E-009  0.1294335E+03  0.7561462E-02  0.1228299E+00
         -2   -1    0    0    0  501 -0.00000000000E+00  0.00000000000E+00  0.58656944279E+02  0.58656944279E+02  0.00000000000E+00 0.  1.
          2   -1    0    0  501    0  0.00000000000E+00 -0.00000000000E+00 -0.33011399780E+03  0.33011399780E+03  0.00000000000E+00 0. -1.
         25    2    1    2    0    0 -0.99593535715E+01 -0.78654309649E+02 -0.19899057877E+03  0.24805170056E+03  0.12508679612E+03 0.  0.
          5    1    3    3  502    0  0.38870042366E+02 -0.83165338521E+02 -0.90773364200E+02  0.12916899695E+03  0.41800000000E+01 0.  1.
         -5    1    3    3    0  502 -0.48829395937E+02  0.45110288723E+01 -0.10821721457E+03  0.11888270361E+03  0.41800000000E+01 0.  1.
        -11    1    1    2    0    0 -0.37744602939E+02  0.47956708777E+02 -0.22249260303E+02  0.64957913697E+02  0.00000000000E+00 0.  1.
         11    1    1    2    0    0  0.47703956510E+02  0.30697600871E+02 -0.50217214444E+02  0.75761327817E+02  0.00000000000E+00 0. -1.
</event>
<event>
 7    1  0.2686828E-009  0.1227603E+03  0.7561462E-02  0.1238612E+00
          1   -1    0    0  501    0  0.00000000000E+00  0.00000000000E+00  0.64641027952E+02  0.64641027952E+02  0.00000000000E+00 0. -1.
         -1   -1    0    0    0  501 -0.00000000000E+00 -0.00000000000E+00 -0.37625479193E+03  0.37625479193E+03  0.00000000000E+00 0.  1.
         25    2    1    2    0    0  0.68860139024E+02  0.65638231937E+02 -0.24933648870E+03  0.29472552687E+03  0.12507739744E+03 0.  0.
          5    1    3    3  502    0  0.46890402349E+02 -0.10022882690E+02 -0.19001157976E+03  0.19601285890E+03  0.41800000000E+01 0. -1.
         -5    1    3    3    0  502  0.21969736675E+02  0.75661114627E+02 -0.59324908939E+02  0.98712667965E+02  0.41800000000E+01 0. -1.
        -11    1    1    2    0    0 -0.83467753438E+02 -0.51017830624E+02 -0.21066321733E+02  0.10006735140E+03  0.00000000000E+00 0. -1.
         11    1    1    2    0    0  0.14607614414E+02 -0.14620401313E+02 -0.41210953544E+02  0.46102941614E+02  0.00000000000E+00 0.  1.
</event>
<event>
 7    1  0.2686828E-009  0.1037252E+03  0.7561462E-02  0.1272652E+00
          1   -1    0    0  501    0  0.00000000000E+00  0.00000000000E+00  0.28052057401E+02  0.28052057401E+02  0.00000000000E+00 0. -1.
         -1   -1    0    0    0  501 -0.00000000000E+00 -0.00000000000E+00 -0.53202688291E+03  0.53202688291E+03  0.00000000000E+00 0.  1.
         25    2    1    2    0    0  0.44647389978E+02  0.34208512541E+02 -0.26987566104E+03  0.30272506081E+03  0.12508388490E+03 0.  0.
          5    1    3    3  502    0  0.13907902779E+02 -0.44442911060E+02 -0.14136021548E+03  0.14889185681E+03  0.41800000000E+01 0.  1.
         -5    1    3    3    0  502  0.30739487199E+02  0.78651423601E+02 -0.12851544556E+03  0.15383320400E+03  0.41800000000E+01 0.  1.
        -11    1    1    2    0    0 -0.34887003262E+02  0.54451525220E+01 -0.20293477841E+03  0.20598368132E+03  0.00000000000E+00 0.  1.
         11    1    1    2    0    0 -0.97603867160E+01 -0.39653665063E+02 -0.31164386056E+02  0.51370198170E+02  0.00000000000E+00 0. -1.
</event>
<event>
 7    1  0.2686828E-009  0.1177967E+03  0.7561462E-02  0.1246777E+00
          2   -1    0    0  501    0  0.00000000000E+00  0.00000000000E+00  0.82753129076E+03  0.82753129076E+03  0.00000000000E+00 0. -1.
         -2   -1    0    0    0  501 -0.00000000000E+00 -0.00000000000E+00 -0.34948071444E+02  0.34948071444E+02  0.00000000000E+00 0.  1.
         25    2    1    2    0    0  0.99815456100E+02 -0.87683549151E+01  0.63254802076E+03  0.65253723397E+03  0.12509130197E+03 0.  0.
          5    1    3    3  502    0  0.33186748335E+02 -0.39920112120E+02  0.48329177709E+03  0.48608989891E+03  0.41800000000E+01 0.  1.
         -5    1    3    3    0  502  0.66628707765E+02  0.31151757205E+02  0.14925624367E+03  0.16644733506E+03  0.41800000000E+01 0.  1.
        -11    1    1    2    0    0 -0.83227662746E+02  0.24727746026E+02  0.55829192707E+02  0.10322404772E+03  0.00000000000E+00 0.  1.
         11    1    1    2    0    0 -0.16587793353E+02 -0.15959391111E+02  0.10420600585E+03  0.10671808051E+03  0.00000000000E+00 0. -1.
</event>
<event>
 7    1  0.2686828E-009  0.8156631E+02  0.7561462E-02  0.1324664E+00
          1   -1    0    0  501    0  0.00000000000E+00  0.00000000000E+00  0.20857586011E+03  0.20857586011E+03  0.00000000000E+00 0. -1.
         -1   -1    0    0    0  501 -0.00000000000E+00 -0.00000000000E+00 -0.70548254486E+02  0.70548254486E+02  0.00000000000E+00 0.  1.
         25    2    1    2    0    0 -0.50226401887E+02 -0.18829642139E+02  0.65886315678E+02  0.15121483168E+03  0.12509065455E+03 0.  0.
          5    1    3    3  502    0 -0.46849724713E+02  0.21756651693E+01 -0.28050590313E+02  0.54808195022E+02  0.41800000000E+01 0. -1.
         -5    1    3    3    0  502 -0.33766771731E+01 -0.21005307309E+02  0.93936905991E+02  0.96406636655E+02  0.41800000000E+01 0. -1.
        -11    1    1    2    0    0  0.28809896984E+02 -0.29664494355E+02  0.61069376085E+02  0.73752702221E+02  0.00000000000E+00 0. -1.
         11    1    1    2    0    0  0.21416504903E+02  0.48494136494E+02  0.11071913863E+02  0.54156580700E+02  0.00000000000E+00 0.  1.
</event>
<event>
 7    1  0.2686828E-009  0.3130616E+03  0.7561462E-02  0.1078888E+00
          1   -1    0    0  501    0  0.00000000000E+00  0.00000000000E+00  0.50706471525E+03  0.50706471525E+03  0.00000000000E+00 0. -1.
         -1   -1    0    0    0  501 -0.00000000000E+00 -0.00000000000E+00 -0.19586009305E+03  0.19586009305E+03  0.00000000000E+00 0.  1.
         25    2    1    2    0    0  0.33831532419E+01  0.29551238861E+03  0.16528248107E+03  0.36097724787E+03  0.12508899785E+03 0.  0.
          5    1    3    3  502    0  0.51556062452E+02  0.57940193692E+02  0.51258582304E+02  0.93059165483E+02  0.41800000000E+01 0. -1.
         -5    1    3    3    0  502 -0.48172909210E+02  0.23757219492E+03  0.11402389876E+03  0.26791808238E+03  0.41800000000E+01 0. -1.
        -11    1    1    2    0    0 -0.15087952536E+02 -0.59613259792E+01 -0.24134102511E+01  0.16401471525E+02  0.00000000000E+00 0.  1.
         11    1    1    2    0    0  0.11704799294E+02 -0.28955106263E+03  0.14833555138E+03  0.32554608890E+03  0.00000000000E+00 0. -1.
</event>
<event>
 7    1  0.2686828E-009  0.2378844E+03  0.7561462E-02  0.1121210E+00
         -1   -1    0    0    0  501 -0.00000000000E+00  0.00000000000E+00  0.18757269603E+03  0.18757269603E+03  0.00000000000E+00 0.  1.
          1   -1    0    0  501    0  0.00000000000E+00 -0.00000000000E+00 -0.48378148808E+03  0.48378148808E+03  0.00000000000E+00 0. -1.
         25    2    1    2    0    0  0.13152587590E+03 -0.18128737299E+03  0.38270060189E+02  0.25937586662E+03  0.12508826898E+03 0.  0.
          5    1    3    3  502    0  0.14836257484E+03 -0.14919895782E+03  0.57467064750E+02  0.21815526250E+03  0.41800000000E+01 0. -1.
         -5    1    3    3    0  502 -0.16836698932E+02 -0.32088415179E+02 -0.19197004561E+02  0.41220604117E+02  0.41800000000E+01 0. -1.
        -11    1    1    2    0    0 -0.39784496322E+02  0.23179419829E+02 -0.12893259978E+03  0.13690765843E+03  0.00000000000E+00 0. -1.
         11    1    1    2    0    0 -0.91741379581E+02  0.15810795316E+03 -0.20554625246E+03  0.27507065907E+03  0.00000000000E+00 0.  1.
</event>
<event>
 7    1  0.2686828E-009  0.1129273E+03  0.7561462E-02  0.1255243E+00
         -1   -1    0    0    0  501 -0.00000000000E+00  0.00000000000E+00  0.14038706225E+02  0.14038706225E+02  0.00000000000E+00 0.  1.
          1   -1    0    0  501    0  0.00000000000E+00 -0.00000000000E+00 -0.10655791093E+04  0.10655791093E+04  0.00000000000E+00 0. -1.
         25    2    1    2    0    0 -0.24526361472E+02  0.54174795426E+02 -0.61184266949E+03  0.62732298943E+03  0.12508489115E+03 0.  0.
          5    1    3    3  502    0 -0.50752560715E+02 -0.12831868368E+02 -0.13143523512E+03  0.14153859083E+03  0.41800000000E+01 0.  1.
         -5    1    3    3    0  502  0.26226199243E+02  0.67006663794E+02 -0.48040743438E+03  0.48578439860E+03  0.41800000000E+01 0.  1.
        -11    1    1    2    0    0  0.55033650854E+02 -0.34137292120E+02 -0.34030246344E+03  0.34640990757E+03  0.00000000000E+00 0. -1.
         11    1    1    2    0    0 -0.30507289382E+02 -0.20037503306E+02 -0.99395270191E+02  0.10588491857E+03  0.00000000000E+00 0.  1.
</event>
<event>
 7    1  0.2686828E-009  0.1044475E+03  0.7561462E-02  0.1271212E+00
          2   -1    0    0  501    0  0.00000000000E+00  0.00000000000E+00  0.14275870325E+03  0.14275870325E+03  0.00000000000E+00 0. -1.
         -2   -1    0    0    0  501 -0.00000000000E+00 -0.00000000000E+00 -0.12373848974E+03  0.12373848974E+03  0.00000000000E+00 0.  1.
         25    2    1    2    0    0  0.18798100090E+02 -0.73756523958E+02 -0.10970887956E+02  0.14683827171E+03  0.12509086403E+03 0.  0.
          5    1    3    3  502    0  0.26465270187E+02 -0.79255861231E+02  0.41480722769E+02  0.93381073173E+02  0.41800000000E+01 0. -1.
         -5    1    3    3    0  502 -0.76671700972E+01  0.54993372732E+01 -0.52451610724E+02  0.53457198536E+02  0.41800000000E+01 0. -1.
        -11    1    1    2    0    0  0.30761565210E+02  0.52794042767E+02  0.23469232541E+02  0.65454485881E+02  0.00000000000E+00 0.  1.
         11    1    1    2    0    0 -0.49559665300E+02  0.20962481191E+02  0.65218689289E+01  0.54204435397E+02  0.00000000000E+00 0. -1.
</event>
<event>
 7    1  0.2686828E-009  0.1163213E+03  0.7561462E-02  0.1249292E+00
         -1   -1    0    0    0  501 -0.00000000000E+00  0.00000000000E+00  0.10560248021E+03  0.10560248021E+03  0.00000000000E+00 0.  1.
          1   -1    0    0  501    0  0.00000000000E+00 -0.00000000000E+00 -0.13263923095E+03  0.13263923095E+03  0.00000000000E+00 0. -1.
         25    2    1    2    0    0 -0.40456789578E+02 -0.27701490141E+02 -0.17838759056E+02  0.13553341249E+03  0.12508780994E+03 0.  0.
          5    1    3    3  502    0  0.78197887141E+01 -0.69240133574E+02 -0.16334547820E+02  0.71691248039E+02  0.41800000000E+01 0. -1.
         -5    1    3    3    0  502 -0.48276578292E+02  0.41538643433E+02 -0.15042112365E+01  0.63842164447E+02  0.41800000000E+01 0. -1.
        -11    1    1    2    0    0 -0.26534813721E+02  0.16061401948E+02  0.90433652297E+01  0.32308627740E+02  0.00000000000E+00 0.  1.
         11    1    1    2    0    0  0.66991603299E+02  0.11640088193E+02 -0.18241356919E+02  0.70399670937E+02  0.00000000000E+00 0. -1.
</event>
<event>
 7    1  0.2686828E-009  0.8331155E+02  0.7561462E-02  0.1319908E+00
         -2   -1    0    0    0  501 -0.00000000000E+00  0.00000000000E+00  0.39107756257E+02  0.39107756257E+02  0.00000000000E+00 0.  1.
          2   -1    0    0  501    0  0.00000000000E+00 -0.00000000000E+00 -0.63663021738E+03  0.63663021738E+03  0.00000000000E+00 0. -1.
         25    2    1    2    0    0 -0.54113021035E+02  0.15637209770E+02 -0.53127263983E+03  0.54870009886E+03  0.12509372199E+03 0.  0.
          5    1    3    3  502    0 -0.13231182030E+02  0.23908861913E+02 -0.48680340647E+03  0.48758766064E+03  0.41800000000E+01 0.  1.
         -5    1    3    3    0  502 -0.40881839006E+02 -0.82716521439E+01 -0.44469233358E+02  0.61112438220E+02  0.41800000000E+01 0.  1.
        -11    1    1    2    0    0  0.66425262599E+02  0.11358528410E+02 -0.69957894442E+02  0.97136186222E+02  0.00000000000E+00 0. -1.
         11    1    1    2    0    0 -0.12312241563E+02 -0.26995738180E+02  0.37080731464E+01  0.29901688558E+02  0.00000000000E+00 0.  1.
</event>
<event>
 7    1  0.2686828E-009  0.8047343E+02  0.7561462E-02  0.1327713E+00
         -2   -1    0    0    0  501 -0.00000000000E+00  0.00000000000E+00  0.47662793271E+02  0.47662793271E+02  0.00000000000E+00 0.  1.
          2   -1    0    0  501    0  0.00000000000E+00 -0.00000000000E+00 -0.34898487653E+03  0.34898487653E+03  0.00000000000E+00 0. -1.
         25    2    1    2    0    0  0.41204566219E+02 -0.53422746280E+02 -0.14160407071E+03  0.20062656517E+03  0.12508996648E+03 0.  0.
          5    1    3    3  502    0  0.47295015729E+02 -0.47433362425E+02 -0.16350879238E+03  0.17674654160E+03  0.41800000000E+01 0.  1.
         -5    1    3    3    0  502 -0.60904495099E+01 -0.59893838553E+01  0.21904721671E+02  0.23880023569E+02  0.41800000000E+01 0.  1.
        -11    1    1    2    0    0 -0.31098625303E+02  0.11892613087E+01 -0.38926559166E+01  0.31363858313E+02  0.00000000000E+00 0.  1.
         11    1    1    2    0    0 -0.10105940917E+02  0.52233484971E+02 -0.15582535663E+03  0.16465724631E+03  0.00000000000E+00 0. -1.
</event>
<event>
 7    1  0.2686828E-009  0.1311568E+03  0.7561462E-02  0.1225749E+00
         -2   -1    0    0    0  501 -0.00000000000E+00  0.00000000000E+00  0.11121533024E+03  0.11121533024E+03  0.00000000000E+00 0.  1.
          2   -1    0    0  501    0  0.00000000000E+00 -0.00000000000E+00 -0.23144990461E+03  0.23144990461E+03  0.00000000000E+00 0. -1.
         25    2    1    2    0    0 -0.60984232561E+02 -0.66461943085E+02  0.16126711930E+02  0.15505827092E+03  0.12508688997E+03 0.  0.
          5    1    3    3  502    0  0.16333072526E+02 -0.64646435492E+02 -0.19798452811E+02  0.69680571279E+02  0.41800000000E+01 0. -1.
         -5    1    3    3    0  502 -0.77317305087E+02 -0.18155075927E+01  0.35925164741E+02  0.85377699638E+02  0.41800000000E+01 0. -1.
        -11    1    1    2    0    0  0.47068096249E+02  0.83622822931E+02 -0.73195893585E+02  0.12068894331E+03  0.00000000000E+00 0.  1.
         11    1    1    2    0    0  0.13916136312E+02 -0.17160879846E+02 -0.63165392714E+02  0.66918020619E+02  0.00000000000E+00 0. -1.
</event>
<event>
 7    1  0.2686828E-009  0.9315237E+02  0.7561462E-02  0.1295392E+00
         -4   -1    0    0    0  501 -0.00000000000E+00  0.00000000000E+00  0.60871350635E+02  0.60871350635E+02  0.00000000000E+00 0.  1.
          4   -1    0    0  501    0  0.00000000000E+00 -0.00000000000E+00 -0.49074331369E+03  0.49074331369E+03  0.00000000000E+00 0. -1.
         25    2    1    2    0    0 -0.19926874987E+02 -0.46328951428E+02 -0.42897976618E+03  0.44968148595E+03  0.12508535857E+03 0.  0.
          5    1    3    3  502    0 -0.12463127368E+02  0.27591669824E+02 -0.29369803821E+03  0.29528399861E+03  0.41800000000E+01 0. -1.
         -5    1    3    3    0  502 -0.74637476192E+01 -0.73920621251E+02 -0.13528172797E+03  0.15439748734E+03  0.41800000000E+01 0. -1.
        -11    1    1    2    0    0  0.33508785080E+02  0.55576308860E+02  0.26412699761E+02  0.70065651304E+02  0.00000000000E+00 0.  1.
         11    1    1    2    0    0 -0.13581910092E+02 -0.92473574327E+01 -0.27304896641E+02  0.31867527074E+02  0.00000000000E+00 0. -1.
</event>
<event>
 7    1  0.2686828E-009  0.9865378E+02  0.7561462E-02  0.1283153E+00
          2   -1    0    0  501    0  0.00000000000E+00  0.00000000000E+00  0.21461614523E+04  0.21461614523E+04  0.00000000000E+00 0. -1.
         -2   -1    0    0    0  501 -0.00000000000E+00 -0.00000000000E+00 -0.15287254353E+02  0.15287254353E+02  0.00000000000E+00 0.  1.
         25    2    1    2    0    0  0.87364816954E+01  0.85790596227E+02  0.18168022200E+04  0.18231437579E+04  0.12508598220E+03 0.  0.
          5    1    3    3  502    0  0.59848953424E+01  0.33519660003E+02  0.10350271351E+03  0.10903976652E+03  0.41800000000E+01 0. -1.
         -5    1    3    3    0  502  0.27515863530E+01  0.52270936224E+02  0.17132995065E+04  0.17141039914E+04  0.41800000000E+01 0. -1.
        -11    1    1    2    0    0  0.29209256847E+02 -0.23218058648E+02  0.40300028323E+02  0.54921318409E+02  0.00000000000E+00 0.  1.
         11    1    1    2    0    0 -0.37945738542E+02 -0.62572537580E+02  0.27377194958E+03  0.28338363028E+03  0.00000000000E+00 0. -1.
</event>
<event>
 7    1  0.2686828E-009  0.9853225E+02  0.7561462E-02  0.1283413E+00
          1   -1    0    0  501    0  0.00000000000E+00  0.00000000000E+00  0.23997360052E+03  0.23997360052E+03  0.00000000000E+00 0. -1.
         -1   -1    0    0    0  501 -0.00000000000E+00 -0.00000000000E+00 -0.49855717418E+02  0.49855717418E+02  0.00000000000E+00 0.  1.
         25    2    1    2    0    0  0.18261855982E+02 -0.40583665075E+01  0.11466285271E+03  0.17071917246E+03  0.12508996895E+03 0.  0.
          5    1    3    3  502    0  0.37664474607E+02 -0.55268292550E+02  0.40037056998E+02  0.78061739296E+02  0.41800000000E+01 0. -1.
         -5    1    3    3    0  502 -0.19402618625E+02  0.51209926043E+02  0.74625795716E+02  0.92657433167E+02  0.41800000000E+01 0. -1.
        -11    1    1    2    0    0 -0.18894140851E+02 -0.33021660347E+02  0.35567106930E+01  0.38210846648E+02  0.00000000000E+00 0.  1.
         11    1    1    2    0    0  0.63228486899E+00  0.37080026855E+02  0.71898319691E+02  0.80899298823E+02  0.00000000000E+00 0. -1.
</event>
<event>
 7    1  0.2686828E-009  0.9300985E+02  0.7561462E-02  0.1295722E+00
         -4   -1    0    0    0  501 -0.00000000000E+00  0.00000000000E+00  0.10252335324E+02  0.10252335324E+02  0.00000000000E+00 0.  1.
          4   -1    0    0  501    0  0.00000000000E+00 -0.00000000000E+00 -0.10329354092E+04  0.10329354092E+04  0.00000000000E+00 0. -1.
         25    2    1    2    0    0 -0.12588649544E+02 -0.13786217357E+02 -0.75133199930E+03  0.76190325578E+03  0.12509302183E+03 0.  0.
          5    1    3    3  502    0  0.17248697396E+02 -0.57220351159E+02 -0.56655604409E+03  0.56971476165E+03  0.41800000000E+01 0.  1.
         -5    1    3    3    0  502 -0.29837346940E+02  0.43434133802E+02 -0.18477595521E+03  0.19218849413E+03  0.41800000000E+01 0.  1.
        -11    1    1    2    0    0 -0.12695619358E+02 -0.24368502608E+02 -0.82064307306E+02  0.86542204755E+02  0.00000000000E+00 0.  1.
         11    1    1    2    0    0  0.25284268902E+02  0.38154719965E+02 -0.18928676724E+03  0.19474228396E+03  0.00000000000E+00 0. -1.
</event>
<event>
 7    1  0.2686828E-009  0.1774156E+03  0.7561462E-02  0.1170328E+00
          1   -1    0    0  501    0  0.00000000000E+00  0.00000000000E+00  0.10022295901E+04  0.10022295901E+04  0.00000000000E+00 0. -1.
         -1   -1    0    0    0  501 -0.00000000000E+00 -0.00000000000E+00 -0.39293207334E+02  0.39293207334E+02  0.00000000000E+00 0.  1.
         25    2    1    2    0    0  0.13694587649E+03 -0.90737343635E+02  0.45294925533E+03  0.49779316986E+03  0.12509026118E+03 0.  0.
          5    1    3    3  502    0  0.96433899318E+02 -0.15525204550E+02  0.12399379144E+03  0.15790016349E+03  0.41800000000E+01 0. -1.
         -5    1    3    3    0  502  0.40511977172E+02 -0.75212139085E+02  0.32895546389E+03  0.33989300637E+03  0.41800000000E+01 0. -1.
        -11    1    1    2    0    0 -0.95757364777E+02  0.34404263758E+02  0.18306096355E+03  0.20943839822E+03  0.00000000000E+00 0.  1.
         11    1    1    2    0    0 -0.41188511713E+02  0.56333079877E+02  0.32692616388E+03  0.33429122934E+03  0.00000000000E+00 0. -1.
</event>
<event>
 7    1  0.2686828E-009  0.8744107E+02  0.7561462E-02  0.1309170E+00
          2   -1    0    0  501    0  0.00000000000E+00  0.00000000000E+00  0.41106148820E+03  0.41106148820E+03  0.00000000000E+00 0. -1.
         -2   -1    0    0    0  501 -0.00000000000E+00 -0.00000000000E+00 -0.41574396405E+02  0.41574396405E+02  0.00000000000E+00 0.  1.
         25    2    1    2    0    0  0.24944495579E+02  0.46222149926E+01  0.85153244844E+02  0.15343499808E+03  0.12509049044E+03 0.  0.
          5    1    3    3  502    0  0.22501880171E+02 -0.41960700397E+02 -0.86659865207E+01  0.48575783179E+02  0.41800000000E+01 0. -1.
         -5    1    3    3    0  502  0.24426154076E+01  0.46582915390E+02  0.93819231365E+02  0.10485921490E+03  0.41800000000E+01 0. -1.
        -11    1    1    2    0    0  0.97951211919E-02  0.34146311940E+02  0.51134187939E+02  0.61487201035E+02  0.00000000000E+00 0.  1.
         11    1    1    2    0    0 -0.24954290700E+02 -0.38768526932E+02  0.23319965901E+03  0.23771368548E+03  0.00000000000E+00 0. -1.
</event>
<event>
 7    1  0.2686828E-009  0.1041390E+03  0.7561462E-02  0.1271825E+00
         -2   -1    0    0    0  501 -0.00000000000E+00  0.00000000000E+00  0.21517442167E+02  0.21517442167E+02  0.00000000000E+00 0.  1.
          2   -1    0    0  501    0  0.00000000000E+00 -0.00000000000E+00 -0.69081397856E+03  0.69081397856E+03  0.00000000000E+00 0. -1.
         25    2    1    2    0    0 -0.42422243328E+01  0.47880825808E+02 -0.43022809714E+03  0.45061537511E+03  0.12508969090E+03 0.  0.
          5    1    3    3  502    0 -0.34051081340E+02 -0.10873429256E+02 -0.32082842372E+03  0.32284060691E+03  0.41800000000E+01 0.  1.
         -5    1    3    3    0  502  0.29808857007E+02  0.58754255063E+02 -0.10939967342E+03  0.12777476820E+03  0.41800000000E+01 0.  1.
        -11    1    1    2    0    0 -0.40752662966E+01 -0.76429404656E+02 -0.16434826973E+03  0.18129648495E+03  0.00000000000E+00 0.  1.
         11    1    1    2    0    0  0.83174906294E+01  0.28548578848E+02 -0.74720169525E+02  0.80419560671E+02  0.00000000000E+00 0. -1.
</event>
<event>
 7    1  0.2686828E-009  0.1043497E+03  0.7561462E-02  0.1271406E+00
          2   -1    0    0  501    0  0.00000000000E+00  0.00000000000E+00  0.28202488390E+03  0.28202488390E+03  0.00000000000E+00 0. -1.
         -2   -1    0    0    0  501 -0.00000000000E+00 -0.00000000000E+00 -0.65126235008E+02  0.65126235008E+02  0.00000000000E+00 0.  1.
         25    2    1    2    0    0 -0.35203747572E+02 -0.53635053120E+02  0.17929996231E+03  0.22784460887E+03  0.12509463034E+03 0.  0.
          5    1    3    3  502    0 -0.16276785851E+02 -0.92750103889E+02  0.14193265779E+03  0.17038153443E+03  0.41800000000E+01 0. -1.
         -5    1    3    3    0  502 -0.18926961721E+02  0.39115050768E+02  0.37367304521E+02  0.57463074437E+02  0.41800000000E+01 0. -1.
        -11    1    1    2    0    0 -0.53250896712E+01  0.93015308292E+01 -0.28227287788E+02  0.30193622367E+02  0.00000000000E+00 0.  1.
         11    1    1    2    0    0  0.40528837244E+02  0.44333522291E+02  0.65825974371E+02  0.89112887671E+02  0.00000000000E+00 0. -1.
</event>
<event>
 7    1  0.2686828E-009  0.1507791E+03  0.7561462E-02  0.1199519E+00
          2   -1    0    0  501    0  0.00000000000E+00  0.00000000000E+00  0.26971132720E+03  0.26971132720E+03  0.00000000000E+00 0. -1.
         -2   -1    0    0    0  501 -0.00000000000E+00 -0.00000000000E+00 -0.99034206170E+02  0.99034206170E+02  0.00000000000E+00 0.  1.
         25    2    1    2    0    0 -0.10736822673E+03  0.40891749743E+02  0.14009360495E+03  0.22016709558E+03  0.12508901039E+03 0.  0.
          5    1    3    3  502    0 -0.10477054854E+03  0.75595281714E+02  0.84451631089E+02  0.15440552080E+03  0.41800000000E+01 0.  1.
         -5    1    3    3    0  502 -0.25976781933E+01 -0.34703531971E+02  0.55641973862E+02  0.65761574787E+02  0.41800000000E+01 0.  1.
        -11    1    1    2    0    0  0.47006582890E+02 -0.57855245190E+02 -0.79772183727E+01  0.74969888915E+02  0.00000000000E+00 0.  1.
         11    1    1    2    0    0  0.60361643844E+02  0.16963495447E+02  0.38560734452E+02  0.73608548871E+02  0.00000000000E+00 0. -1.
</event>
<event>
 7    1  0.2686828E-009  0.1212114E+03  0.7561462E-02  0.1241112E+00
          1   -1    0    0  501    0  0.00000000000E+00  0.00000000000E+00  0.10147658874E+03  0.10147658874E+03  0.00000000000E+00 0. -1.
         -1   -1    0    0    0  501 -0.00000000000E+00 -0.00000000000E+00 -0.18122942106E+03  0.18122942106E+03  0.00000000000E+00 0.  1.
         25    2    1    2    0    0 -0.71486575415E+02  0.55057712778E+02 -0.11832709303E+02  0.15469182453E+03  0.12509142803E+03 0.  0.
          5    1    3    3  502    0 -0.34053640641E+02  0.81221194482E+02  0.29478752471E+02  0.92967747748E+02  0.41800000000E+01 0.  1.
         -5    1    3    3    0  502 -0.37432934774E+02 -0.26163481705E+02 -0.41311461774E+02  0.61724076782E+02  0.41800000000E+01 0.  1.
        -11    1    1    2    0    0  0.83277327784E+01  0.13066092648E+02 -0.11860459982E+02  0.19512673351E+02  0.00000000000E+00 0.  1.
         11    1    1    2    0    0  0.63158842637E+02 -0.68123805426E+02 -0.56059663029E+02  0.10850151191E+03  0.00000000000E+00 0. -1.
</event>
<event>
 7    1  0.2686828E-009  0.1064700E+03  0.7561462E-02  0.1267250E+00
         -2   -1    0    0    0  501 -0.00000000000E+00  0.00000000000E+00  0.37449816537E+02  0.37449816537E+02  0.00000000000E+00 0.  1.
          2   -1    0    0  501    0  0.00000000000E+00 -0.00000000000E+00 -0.31082798910E+03  0.31082798910E+03  0.00000000000E+00 0. -1.
         25    2    1    2    0    0  0.14122370983E+02 -0.12914700394E+02 -0.15318545342E+03  0.19869198660E+03  0.12508593666E+03 0.  0.
          5    1    3    3  502    0  0.61025508259E+02 -0.39124895506E+02 -0.90341544717E+02  0.11590486275E+03  0.41800000000E+01 0.  1.
         -5    1    3    3    0  502 -0.46903137276E+02  0.26210195112E+02 -0.62843908703E+02  0.82787123850E+02  0.41800000000E+01 0.  1.
        -11    1    1    2    0    0  0.60471468703E+01  0.46699623003E+02 -0.83079887305E+02  0.95497070366E+02  0.00000000000E+00 0.  1.
         11    1    1    2    0    0 -0.20169517853E+02 -0.33784922608E+02 -0.37112831834E+02  0.54088748671E+02  0.00000000000E+00 0. -1.
</event>
<event>
 7    1  0.2686828E-009  0.1199951E+03  0.7561462E-02  0.1243105E+00
          2   -1    0    0  501    0  0.00000000000E+00  0.00000000000E+00  0.54519222422E+03  0.54519222422E+03  0.00000000000E+00 0. -1.
         -2   -1    0    0    0  501 -0.00000000000E+00 -0.00000000000E+00 -0.28062326228E+02  0.28062326228E+02  0.00000000000E+00 0.  1.
         25    2    1    2    0    0  0.11415466035E+02  0.51844726281E+02  0.23427330253E+03  0.27083181267E+03  0.12509077491E+03 0.  0.
          5    1    3    3  502    0  0.59886637118E+02  0.61558766597E+02  0.13985637569E+03  0.16417420404E+03  0.41800000000E+01 0. -1.
         -5    1    3    3    0  502 -0.48471171082E+02 -0.97140403161E+01  0.94416926838E+02  0.10665760863E+03  0.41800000000E+01 0. -1.
        -11    1    1    2    0    0 -0.13770995125E+02 -0.77458119373E+02  0.18080800068E+03  0.19718248825E+03  0.00000000000E+00 0.  1.
         11    1    1    2    0    0  0.23555290898E+01  0.25613393092E+02  0.10204859479E+03  0.10524024953E+03  0.00000000000E+00 0. -1.
</event>
<event>
 7    1  0.2686828E-009  0.1415243E+03  0.7561462E-02  0.1211292E+00
         -2   -1    0    0    0  501 -0.00000000000E+00  0.00000000000E+00  0.38667230516E+03  0.38667230516E+03  0.00000000000E+00 0.  1.
          2   -1    0    0  501    0  0.00000000000E+00 -0.00000000000E+00 -0.87353010366E+02  0.87353010366E+02  0.00000000000E+00 0. -1.
         25    2    1    2    0    0  0.12418431553E+03  0.40628856448E+02  0.25239172727E+03  0.31051926492E+03  0.12509269239E+03 0.  0.
          5    1    3    3  502    0  0.16802525013E+02  0.23546843147E+02 -0.62784279803E+01  0.29894309273E+02  0.41800000000E+01 0.  1.
         -5    1    3    3    0  502  0.10738179052E+03  0.17082013301E+02  0.25867015525E+03  0.28062495564E+03  0.41800000000E+01 0.  1.
        -11    1    1    2    0    0  0.43031966316E+01 -0.12851791954E+02  0.27452201144E+02  0.30615509228E+02  0.00000000000E+00 0.  1.
         11    1    1    2    0    0 -0.12848751216E+03 -0.27777064494E+02  0.19475366383E+02  0.13289054138E+03  0.00000000000E+00 0. -1.
</event>
<event>
 7    1  0.2686828E-009  0.9983013E+02  0.7561462E-02  0.1280654E+00
          1   -1    0    0  501    0  0.00000000000E+00  0.00000000000E+00  0.24847526693E+03  0.24847526693E+03  0.00000000000E+00 0. -1.
         -1   -1    0    0    0  501 -0.00000000000E+00 -0.00000000000E+00 -0.55975188370E+02  0.55975188370E+02  0.00000000000E+00 0.  1.
         25    2    1    2    0    0 -0.41720738138E+01  0.25886548922E+02  0.59710430086E+02  0.14106945166E+03  0.12509090741E+03 0.  0.
          5    1    3    3  502    0  0.49110645069E+02  0.96858408755E+01 -0.10539979228E+02  0.51324794541E+02  0.41800000000E+01 0.  1.
         -5    1    3    3    0  502 -0.53282718883E+02  0.16200708046E+02  0.70250409314E+02  0.89744657120E+02  0.41800000000E+01 0.  1.
        -11    1    1    2    0    0  0.13158038574E+02 -0.58392354760E+02  0.69955755007E+02  0.92068500216E+02  0.00000000000E+00 0.  1.
         11    1    1    2    0    0 -0.89859647606E+01  0.32505805839E+02  0.62833893466E+02  0.71312503420E+02  0.00000000000E+00 0. -1.
</event>
<event>
 7    1  0.2686828E-009  0.9552916E+02  0.7561462E-02  0.1289989E+00
         -1   -1    0    0    0  501 -0.00000000000E+00  0.00000000000E+00  0.90843568937E+01  0.90843568937E+01  0.00000000000E+00 0.  1.
          1   -1    0    0  501    0  0.00000000000E+00 -0.00000000000E+00 -0.32612277820E+04  0.32612277820E+04  0.00000000000E+00 0. -1.
         25    2    1    2    0    0 -0.47111186138E+02 -0.27427408079E+00 -0.29074973116E+04  0.29105682186E+04  0.12508876566E+03 0.  0.
          5    1    3    3  502    0 -0.42851516032E+01  0.36923959012E+02 -0.28381087215E+03  0.28626530496E+03  0.41800000000E+01 0. -1.
         -5    1    3    3    0  502 -0.42826034535E+02 -0.37198233093E+02 -0.26236864395E+04  0.26243029137E+04  0.41800000000E+01 0. -1.
        -11    1    1    2    0    0 -0.12969642553E+01  0.36367303506E+02 -0.19514788729E+03  0.19851186563E+03  0.00000000000E+00 0.  1.
         11    1    1    2    0    0  0.48408150393E+02 -0.36093029425E+02 -0.14949822617E+03  0.16123205458E+03  0.00000000000E+00 0. -1.
</event>
<event>
 7    1  0.2686828E-009  0.7992062E+02  0.7561462E-02  0.1329277E+00
          1   -1    0    0  501    0  0.00000000000E+00  0.00000000000E+00  0.61323150019E+03  0.61323150019E+03  0.00000000000E+00 0. -1.
         -1   -1    0    0    0  501 -0.00000000000E+00 -0.00000000000E+00 -0.40288366022E+02  0.40288366022E+02  0.00000000000E+00 0.  1.
         25    2    1    2    0    0 -0.29570826611E+01 -0.29485144476E+02  0.53239112553E+03  0.54768890084E+03  0.12507878908E+03 0.  0.
          5    1    3    3  502    0 -0.34738010724E+02  0.23538451656E+02  0.39163988796E+03  0.39390362061E+03  0.41800000000E+01 0.  1.
         -5    1    3    3    0  502  0.31780928063E+02 -0.53023596132E+02  0.14075123757E+03  0.15378528022E+03  0.41800000000E+01 0.  1.
        -11    1    1    2    0    0 -0.42494160602E+01  0.41491783992E+02 -0.18146378935E+02  0.45485346477E+02  0.00000000000E+00 0.  1.
         11    1    1    2    0    0  0.72064987213E+01 -0.12006639516E+02  0.58698387581E+02  0.60345618904E+02  0.00000000000E+00 0. -1.
</event>
<event>
 7    1  0.2686828E-009  0.1080535E+03  0.7561462E-02  0.1264218E+00
         -1   -1    0    0    0  501 -0.00000000000E+00  0.00000000000E+00  0.59426188336E+02  0.59426188336E+02  0.00000000000E+00 0.  1.
          1   -1    0    0  501    0  0.00000000000E+00 -0.00000000000E+00 -0.25041668668E+03  0.25041668668E+03  0.00000000000E+00 0. -1.
         25    2    1    2    0    0 -0.14339579389E+02  0.49971783333E+02 -0.83418117639E+02  0.15908834707E+03  0.12509083562E+03 0.  0.
          5    1    3    3  502    0 -0.30234887722E+01  0.90809887889E+02 -0.43909705116E+02  0.10100055359E+03  0.41800000000E+01 0. -1.
         -5    1    3    3    0  502 -0.11316090616E+02 -0.40838104556E+02 -0.39508412523E+02  0.58087793474E+02  0.41800000000E+01 0. -1.
        -11    1    1    2    0    0  0.15713940573E+02  0.12501186128E+02 -0.79950850169E+02  0.82433888818E+02  0.00000000000E+00 0. -1.
         11    1    1    2    0    0 -0.13743611848E+01 -0.62472969460E+02 -0.27621530535E+02  0.68320639129E+02  0.00000000000E+00 0.  1.
</event>
<event>
 7    1  0.2686828E-009  0.2571836E+03  0.7561462E-02  0.1108847E+00
          3   -1    0    0  501    0  0.00000000000E+00  0.00000000000E+00  0.57116454512E+03  0.57116454512E+03  0.00000000000E+00 0. -1.
         -3   -1    0    0    0  501 -0.00000000000E+00 -0.00000000000E+00 -0.12905571321E+03  0.12905571321E+03  0.00000000000E+00 0.  1.
         25    2    1    2    0    0  0.19166628465E+03  0.13861566307E+03  0.32500204366E+03  0.42097975114E+03  0.12508939111E+03 0.  0.
          5    1    3    3  502    0  0.24875563766E+02 -0.20279616291E+02  0.17673125824E+02  0.36876391987E+02  0.41800000000E+01 0. -1.
         -5    1    3    3    0  502  0.16679072089E+03  0.15889527936E+03  0.30732891783E+03  0.38410335916E+03  0.41800000000E+01 0. -1.
        -11    1    1    2    0    0 -0.15227097455E+03 -0.14663730399E+03  0.85227144480E+02  0.22793116234E+03  0.00000000000E+00 0. -1.
         11    1    1    2    0    0 -0.39395310102E+02  0.80216409134E+01  0.31879643772E+02  0.51309344840E+02  0.00000000000E+00 0.  1.
</event>
<event>
 7    1  0.2686828E-009  0.1109132E+03  0.7561462E-02  0.1258888E+00
         -1   -1    0    0    0  501 -0.00000000000E+00  0.00000000000E+00  0.57079745805E+02  0.57079745805E+02  0.00000000000E+00 0.  1.
          1   -1    0    0  501    0  0.00000000000E+00 -0.00000000000E+00 -0.66981280540E+03  0.66981280540E+03  0.00000000000E+00 0. -1.
         25    2    1    2    0    0 -0.66830617038E+02  0.59873004021E+02 -0.57341726140E+03  0.59372149633E+03  0.12508697594E+03 0.  0.
          5    1    3    3  502    0 -0.53224160026E+02  0.60056517798E+02 -0.15087542699E+03  0.17093994095E+03  0.41800000000E+01 0.  1.
         -5    1    3    3    0  502 -0.13606457012E+02 -0.18351377743E+00 -0.42254183440E+03  0.42278155538E+03  0.41800000000E+01 0.  1.
        -11    1    1    2    0    0  0.79264618455E+02 -0.15000078957E+02 -0.24919847950E+02  0.84432700592E+02  0.00000000000E+00 0.  1.
         11    1    1    2    0    0 -0.12434001417E+02 -0.44872925064E+02 -0.14395950251E+02  0.48738354287E+02  0.00000000000E+00 0. -1.
</event>
<event>
 7    1  0.2686828E-009  0.1203111E+03  0.7561462E-02  0.1242585E+00
         -2   -1    0    0    0  501 -0.00000000000E+00  0.00000000000E+00  0.31575810386E+03  0.31575810386E+03  0.00000000000E+00 0.  1.
          2   -1    0    0  501    0  0.00000000000E+00 -0.00000000000E+00 -0.65206886593E+02  0.65206886593E+02  0.00000000000E+00 0. -1.
         25    2    1    2    0    0 -0.87788652351E+02  0.23599104720E+02  0.17015342271E+03  0.22992066191E+03  0.12509020061E+03 0.  0.
          5    1    3    3  502    0 -0.67295402085E+02 -0.14817403772E+02  0.17282051400E+03  0.18609843916E+03  0.41800000000E+01 0. -1.
         -5    1    3    3    0  502 -0.20493250266E+02  0.38416508492E+02 -0.26670912937E+01  0.43822222755E+02  0.41800000000E+01 0. -1.
        -11    1    1    2    0    0  0.53687192841E+02 -0.58259017753E+02  0.48449252018E+02  0.92864190331E+02  0.00000000000E+00 0.  1.
         11    1    1    2    0    0  0.34101459510E+02  0.34659913033E+02  0.31948542544E+02  0.58180138216E+02  0.00000000000E+00 0. -1.
</event>
<event>
 7    1  0.2686828E-009  0.8120735E+02  0.7561462E-02  0.1325660E+00
          1   -1    0    0  501    0  0.00000000000E+00  0.00000000000E+00  0.49741731197E+02  0.49741731197E+02  0.00000000000E+00 0. -1.
         -1   -1    0    0    0  501 -0.00000000000E+00 -0.00000000000E+00 -0.27997610459E+03  0.27997610459E+03  0.00000000000E+00 0.  1.
         25    2    1    2    0    0 -0.38707302132E+02 -0.41147950654E+00 -0.89668088071E+02  0.15870480002E+03  0.12509365682E+03 0.  0.
          5    1    3    3  502    0 -0.11441236576E+02  0.25896644769E+02  0.24917045278E+02  0.37945614372E+02  0.41800000000E+01 0.  1.
         -5    1    3    3    0  502 -0.27266065555E+02 -0.26308124276E+02 -0.11458513335E+03  0.12075918565E+03  0.41800000000E+01 0.  1.
        -11    1    1    2    0    0  0.59776603156E+02 -0.23120228824E+02 -0.10841202532E+03  0.12594028148E+03  0.00000000000E+00 0. -1.
         11    1    1    2    0    0 -0.21069301025E+02  0.23531708330E+02 -0.32154260004E+02  0.45072754287E+02  0.00000000000E+00 0.  1.
</event>
<event>
 7    1  0.2686828E-009  0.1129466E+03  0.7561462E-02  0.1255208E+00
         -1   -1    0    0    0  501 -0.00000000000E+00  0.00000000000E+00  0.18020565247E+04  0.18020565247E+04  0.00000000000E+00 0.  1.
          1   -1    0    0  501    0  0.00000000000E+00 -0.00000000000E+00 -0.14270596409E+02  0.14270596409E+02  0.00000000000E+00 0. -1.
         25    2    1    2    0    0  0.77853358348E+02  0.55789978220E+02  0.13509364628E+04  0.13600919976E+04  0.12508896184E+03 0.  0.
          5    1    3    3  502    0  0.43536751400E+02  0.35575214579E+02  0.18342332824E+03  0.19189224674E+03  0.41800000000E+01 0.  1.
         -5    1    3    3    0  502  0.34316606949E+02  0.20214763641E+02  0.11675131345E+04  0.11681997509E+04  0.41800000000E+01 0.  1.
        -11    1    1    2    0    0 -0.68114668277E+02  0.46267284347E+01  0.18934364894E+03  0.20127600961E+03  0.00000000000E+00 0.  1.
         11    1    1    2    0    0 -0.97386900720E+01 -0.60416706655E+02  0.24750581660E+03  0.25495911393E+03  0.00000000000E+00 0. -1.
</event>
<event>
 7    1  0.2686828E-009  0.1581683E+03  0.7561462E-02  0.1190780E+00
         -2   -1    0    0    0  501 -0.00000000000E+00  0.00000000000E+00  0.29689970096E+02  0.29689970096E+02  0.00000000000E+00 0.  1.
          2   -1    0    0  501    0  0.00000000000E+00 -0.00000000000E+00 -0.91341394361E+03  0.91341394361E+03  0.00000000000E+00 0. -1.
         25    2    1    2    0    0  0.11557866718E+03 -0.43124414528E+02 -0.44916508722E+03  0.48230101129E+03  0.12508735539E+03 0.  0.
          5    1    3    3  502    0 -0.59645910790E+01  0.23963206207E+02 -0.22748273468E+02  0.33834419520E+02  0.41800000000E+01 0. -1.
         -5    1    3    3    0  502  0.12154325826E+03 -0.67087620735E+02 -0.42641681375E+03  0.44846659177E+03  0.41800000000E+01 0. -1.
        -11    1    1    2    0    0 -0.13074043330E+03  0.41404248312E+02 -0.37398798775E+03  0.39833953816E+03  0.00000000000E+00 0.  1.
         11    1    1    2    0    0  0.15161766124E+02  0.17201662162E+01 -0.60570898547E+02  0.62463364259E+02  0.00000000000E+00 0. -1.
</event>
<event>
 7    1  0.2686828E-009  0.1010171E+03  0.7561462E-02  0.1278172E+00
          2   -1    0    0  501    0  0.00000000000E+00  0.00000000000E+00  0.17382072188E+03  0.17382072188E+03  0.00000000000E+00 0. -1.
         -2   -1    0    0    0  501 -0.00000000000E+00 -0.00000000000E+00 -0.71320131444E+02  0.71320131444E+02  0.00000000000E+00 0.  1.
         25    2    1    2    0    0  0.18690870430E+02 -0.14636969980E+02  0.38598320683E+02  0.13304583236E+03  0.12509106132E+03 0.  0.
          5    1    3    3  502    0  0.71901318625E+02 -0.16157961515E+02  0.25179453625E+02  0.77989464835E+02  0.41800000000E+01 0.  1.
         -5    1    3    3    0  502 -0.53210448195E+02  0.15209915354E+01  0.13418867058E+02  0.55056367529E+02  0.41800000000E+01 0.  1.
        -11    1    1    2    0    0  0.18580361164E+02  0.29364900138E+02  0.63071584116E+02  0.72010776304E+02  0.00000000000E+00 0. -1.
         11    1    1    2    0    0 -0.37271231594E+02 -0.14727930158E+02  0.83068564197E+00  0.40084244659E+02  0.00000000000E+00 0.  1.
</event>
<event>
 7    1  0.2686828E-009  0.1043478E+03  0.7561462E-02  0.1271410E+00
         -1   -1    0    0    0  501 -0.00000000000E+00  0.00000000000E+00  0.23775372758E+02  0.23775372758E+02  0.00000000000E+00 0.  1.
          1   -1    0    0  501    0  0.00000000000E+00 -0.00000000000E+00 -0.60461646906E+03  0.60461646906E+03  0.00000000000E+00 0. -1.
         25    2    1    2    0    0  0.19251877057E+02 -0.53000227079E+02 -0.35415476416E+03  0.37980687167E+03  0.12509198196E+03 0.  0.
          5    1    3    3  502    0  0.72647247016E+02 -0.33568664503E+02 -0.19972722933E+03  0.21520435932E+03  0.41800000000E+01 0. -1.
         -5    1    3    3    0  502 -0.53395369960E+02 -0.19431562577E+02 -0.15442753484E+03  0.16460251235E+03  0.41800000000E+01 0. -1.
        -11    1    1    2    0    0  0.14133860004E+02  0.10877834350E+02 -0.24568317478E+01  0.18003591336E+02  0.00000000000E+00 0.  1.
         11    1    1    2    0    0 -0.33385737060E+02  0.42122392729E+02 -0.22422950039E+03  0.23058137881E+03  0.00000000000E+00 0. -1.
</event>
<event>
 7    1  0.2686828E-009  0.1042299E+03  0.7561462E-02  0.1271644E+00
         -2   -1    0    0    0  501 -0.00000000000E+00  0.00000000000E+00  0.75220941729E+02  0.75220941729E+02  0.00000000000E+00 0.  1.
          2   -1    0    0  501    0  0.00000000000E+00 -0.00000000000E+00 -0.26681913121E+03  0.26681913121E+03  0.00000000000E+00 0. -1.
         25    2    1    2    0    0  0.90407342747E+02 -0.17336910012E+02 -0.10705017909E+03  0.18863471082E+03  0.12509699122E+03 0.  0.
          5    1    3    3  502    0  0.56310931942E+02  0.24715365678E+02 -0.11810463453E+03  0.13322142265E+03  0.41800000000E+01 0. -1.
         -5    1    3    3    0  502  0.34096410805E+02 -0.42052275689E+02  0.11054455438E+02  0.55413288167E+02  0.41800000000E+01 0. -1.
        -11    1    1    2    0    0 -0.10899242183E+02  0.52605734773E+01  0.18858676028E+02  0.22407962313E+02  0.00000000000E+00 0.  1.
         11    1    1    2    0    0 -0.79508100564E+02  0.12076336534E+02 -0.10340668642E+03  0.13099739980E+03  0.00000000000E+00 0. -1.
</event>
<event>
 7    1  0.2686828E-009  0.1066103E+03  0.7561462E-02  0.1266979E+00
          2   -1    0    0  501    0  0.00000000000E+00  0.00000000000E+00  0.29130746264E+03  0.29130746264E+03  0.00000000000E+00 0.  1.
         -2   -1    0    0    0  501 -0.00000000000E+00 -0.00000000000E+00 -0.53904868387E+02  0.53904868387E+02  0.00000000000E+00 0. -1.
         25    2    1    2    0    0  0.21536220610E+02  0.30251107515E+02  0.19679542366E+03  0.23612518416E+03  0.12509086904E+03 0.  0.
          5    1    3    3  502    0 -0.42234557314E+02  0.43056711128E+02  0.63099680144E+02  0.87388101244E+02  0.41800000000E+01 0.  1.
         -5    1    3    3    0  502  0.63770777924E+02 -0.12805603613E+02  0.13369574351E+03  0.14873708291E+03  0.41800000000E+01 0.  1.
        -11    1    1    2    0    0 -0.40350270117E+02  0.11359524969E+02  0.46997612772E+02  0.62975858170E+02  0.00000000000E+00 0.  1.
         11    1    1    2    0    0  0.18814049507E+02 -0.41610632484E+02 -0.63904421714E+01  0.46111288701E+02  0.00000000000E+00 0. -1.
</event>
<event>
 7    1  0.2686828E-009  0.1104991E+03  0.7561462E-02  0.1259648E+00
         -2   -1    0    0    0  501 -0.00000000000E+00  0.00000000000E+00  0.13048468205E+03  0.13048468205E+03  0.00000000000E+00 0.  1.
          2   -1    0    0  501    0  0.00000000000E+00 -0.00000000000E+00 -0.14788454890E+03  0.14788454890E+03  0.00000000000E+00 0. -1.
         25    2    1    2    0    0 -0.20507889620E+02 -0.68877658180E+02  0.30158127477E+02  0.14738238350E+03  0.12508936398E+03 0.  0.
          5    1    3    3  502    0 -0.21925159885E+02 -0.10056043430E+03 -0.59380583570E+00  0.10300941019E+03  0.41800000000E+01 0.  1.
         -5    1    3    3    0  502  0.14172702648E+01  0.31682776121E+02  0.30751933312E+02  0.44372973308E+02  0.41800000000E+01 0.  1.
        -11    1    1    2    0    0 -0.14753608139E+02  0.30521377404E+02  0.24671134730E+02  0.41927178782E+02  0.00000000000E+00 0.  1.
         11    1    1    2    0    0  0.35261497758E+02  0.38356280776E+02 -0.72229129059E+02  0.89059668671E+02  0.00000000000E+00 0. -1.
</event>
<event>
 7    1  0.2686828E-009  0.1268768E+03  0.7561462E-02  0.1232165E+00
          2   -1    0    0  501    0  0.00000000000E+00  0.00000000000E+00  0.62997175890E+02  0.62997175890E+02  0.00000000000E+00 0. -1.
         -2   -1    0    0    0  501 -0.00000000000E+00 -0.00000000000E+00 -0.41444902987E+03  0.41444902987E+03  0.00000000000E+00 0.  1.
         25    2    1    2    0    0  0.85801882547E+02 -0.45400471333E+01 -0.31063814012E+03  0.34572267459E+03  0.12508212725E+03 0.  0.
          5    1    3    3  502    0  0.58681565190E+02  0.43989995612E+02 -0.80718017288E+02  0.10913989427E+03  0.41800000000E+01 0.  1.
         -5    1    3    3    0  502  0.27120317356E+02 -0.48530042745E+02 -0.22992012283E+03  0.23658278032E+03  0.41800000000E+01 0.  1.
        -11    1    1    2    0    0 -0.10084762886E+03  0.20175069634E+02 -0.38839348096E+02  0.10993531117E+03  0.00000000000E+00 0.  1.
         11    1    1    2    0    0  0.15045746310E+02 -0.15635022501E+02 -0.19743657686E+01  0.21788220001E+02  0.00000000000E+00 0. -1.
</event>
<event>
 7    1  0.3276760E-009  0.1264820E+03  0.7561462E-02  0.1232771E+00
          1   -1    0    0  501    0  0.00000000000E+00  0.00000000000E+00  0.14962243993E+03  0.14962243993E+03  0.00000000000E+00 0. -1.
         -1   -1    0    0    0  501 -0.00000000000E+00 -0.00000000000E+00 -0.13904251433E+03  0.13904251433E+03  0.00000000000E+00 0.  1.
         25    2    1    2    0    0  0.47990659922E+02 -0.75436334794E+02 -0.25110046145E+02  0.15579254879E+03  0.12508820805E+03 0.  0.
          5    1    3    3  502    0  0.87837490136E+02 -0.33484815006E+02 -0.44094836966E+01  0.94199646793E+02  0.41800000000E+01 0.  1.
         -5    1    3    3    0  502 -0.39846830214E+02 -0.41951519788E+02 -0.20700562449E+02  0.61592901996E+02  0.41800000000E+01 0.  1.
        -11    1    1    2    0    0 -0.30859099148E+02  0.88505126066E+01 -0.25370840251E+02  0.40918151335E+02  0.00000000000E+00 0.  1.
         11    1    1    2    0    0 -0.17131560775E+02  0.66585822188E+02  0.61060811999E+02  0.91954254132E+02  0.00000000000E+00 0. -1.
</event>
<event>
 7    1  0.2686828E-009  0.9906028E+02  0.7561462E-02  0.1282285E+00
         -3   -1    0    0    0  501 -0.00000000000E+00  0.00000000000E+00  0.10413562016E+03  0.10413562016E+03  0.00000000000E+00 0.  1.
          3   -1    0    0  501    0  0.00000000000E+00 -0.00000000000E+00 -0.17278958152E+03  0.17278958152E+03  0.00000000000E+00 0. -1.
         25    2    1    2    0    0 -0.71223256299E+02  0.19264212709E+02 -0.12036102823E+02  0.14572869250E+03  0.12509245348E+03 0.  0.
          5    1    3    3  502    0 -0.12827273341E+02  0.22562122543E+02  0.52388426173E+02  0.58614058995E+02  0.41800000000E+01 0.  1.
         -5    1    3    3    0  502 -0.58395982958E+02 -0.32979098340E+01 -0.64424528996E+02  0.87114633509E+02  0.41800000000E+01 0.  1.
        -11    1    1    2    0    0 -0.18137911098E+02 -0.15326786121E+02  0.26518071421E+01  0.23894063550E+02  0.00000000000E+00 0.  1.
         11    1    1    2    0    0  0.89361167397E+02 -0.39374265877E+01 -0.59269665682E+02  0.10730244562E+03  0.00000000000E+00 0. -1.
</event>
<event>
 7    1  0.2686828E-009  0.9090166E+02  0.7561462E-02  0.1300683E+00
          2   -1    0    0  501    0  0.00000000000E+00  0.00000000000E+00  0.14526403427E+04  0.14526403427E+04  0.00000000000E+00 0.  1.
         -2   -1    0    0    0  501 -0.00000000000E+00 -0.00000000000E+00 -0.10485562714E+02  0.10485562714E+02  0.00000000000E+00 0. -1.
         25    2    1    2    0    0  0.41357085014E+02 -0.27197873251E+02  0.12034898458E+04  0.12109846659E+04  0.12508364919E+03 0.  0.
          5    1    3    3  502    0  0.35348985658E+02  0.28066033559E+02  0.16837886829E+03  0.17437364685E+03  0.41800000000E+01 0. -1.
         -5    1    3    3    0  502  0.60080993555E+01 -0.55263906810E+02  0.10351109775E+04  0.10366110191E+04  0.41800000000E+01 0. -1.
        -11    1    1    2    0    0  0.15579157045E+02 -0.36085328397E+01  0.60576424237E+02  0.62651694445E+02  0.00000000000E+00 0. -1.
         11    1    1    2    0    0 -0.56936242059E+02  0.30806406091E+02  0.17808850989E+03  0.18948954501E+03  0.00000000000E+00 0.  1.
</event>
<event>
 7    1  0.2686828E-009  0.1075569E+03  0.7561462E-02  0.1265162E+00
         -1   -1    0    0    0  501 -0.00000000000E+00  0.00000000000E+00  0.40146313097E+02  0.40146313097E+02  0.00000000000E+00 0.  1.
          1   -1    0    0  501    0  0.00000000000E+00 -0.00000000000E+00 -0.44155326980E+03  0.44155326980E+03  0.00000000000E+00 0. -1.
         25    2    1    2    0    0  0.16080039373E+02 -0.76132086856E+02 -0.22887661538E+03  0.27218937719E+03  0.12509152518E+03 0.  0.
          5    1    3    3  502    0  0.35480167943E+01 -0.91089027997E+02 -0.78141257466E+02  0.12013878626E+03  0.41800000000E+01 0.  1.
         -5    1    3    3    0  502  0.12532022579E+02  0.14956941141E+02 -0.15073535791E+03  0.15205059093E+03  0.41800000000E+01 0.  1.
        -11    1    1    2    0    0 -0.43358760393E+02  0.44415206923E+02 -0.14923246508E+03  0.16162617778E+03  0.00000000000E+00 0. -1.
         11    1    1    2    0    0  0.27278721019E+02  0.31716879933E+02 -0.23297876241E+02  0.47884027927E+02  0.00000000000E+00 0.  1.
</event>
<event>
 7    1  0.2686828E-009  0.1480119E+03  0.7561462E-02  0.1202937E+00
         -2   -1    0    0    0  501 -0.00000000000E+00  0.00000000000E+00  0.31306715209E+02  0.31306715209E+02  0.00000000000E+00 0.  1.
          2   -1    0    0  501    0  0.00000000000E+00 -0.00000000000E+00 -0.90526456139E+03  0.90526456139E+03  0.00000000000E+00 0. -1.
         25    2    1    2    0    0 -0.10248643258E+03  0.14400361143E+02 -0.26167622414E+03  0.30794963161E+03  0.12509072734E+03 0.  0.
          5    1    3    3  502    0 -0.52200418366E+02  0.64138541205E+02 -0.18954241693E+03  0.20683915578E+03  0.41800000000E+01 0.  1.
         -5    1    3    3    0  502 -0.50286014216E+02 -0.49738180062E+02 -0.72133807209E+02  0.10111047584E+03  0.41800000000E+01 0.  1.
        -11    1    1    2    0    0  0.42120330798E+02  0.42196998705E+02 -0.26226466900E+03  0.26895625215E+03  0.00000000000E+00 0.  1.
         11    1    1    2    0    0  0.60366101784E+02 -0.56597359848E+02 -0.35001695304E+03  0.35966539283E+03  0.00000000000E+00 0. -1.
</event>
<event>
 7    1  0.2686828E-009  0.1006537E+03  0.7561462E-02  0.1278927E+00
         -2   -1    0    0    0  501 -0.00000000000E+00  0.00000000000E+00  0.34614606392E+03  0.34614606392E+03  0.00000000000E+00 0.  1.
          2   -1    0    0  501    0  0.00000000000E+00 -0.00000000000E+00 -0.43632933557E+02  0.43632933557E+02  0.00000000000E+00 0. -1.
         25    2    1    2    0    0 -0.49872735286E+02 -0.33505787480E+01  0.11101499747E+03  0.17455735225E+03  0.12508966168E+03 0.  0.
          5    1    3    3  502    0 -0.15671158039E+02  0.48065127448E+02  0.39395720398E+01  0.50880588624E+02  0.41800000000E+01 0.  1.
         -5    1    3    3    0  502 -0.34201577248E+02 -0.51415706196E+02  0.10707542543E+03  0.12367676363E+03  0.41800000000E+01 0.  1.
        -11    1    1    2    0    0  0.60728973972E+02  0.24045890776E+02  0.17450048975E+03  0.18632400292E+03  0.00000000000E+00 0.  1.
         11    1    1    2    0    0 -0.10856238686E+02 -0.20695312028E+02  0.16997643147E+02  0.28897642307E+02  0.00000000000E+00 0. -1.
</event>
<event>
 7    1  0.2686828E-009  0.7774757E+02  0.7561462E-02  0.1335568E+00
         -3   -1    0    0    0  501 -0.00000000000E+00  0.00000000000E+00  0.28919826994E+02  0.28919826994E+02  0.00000000000E+00 0.  1.
          3   -1    0    0  501    0  0.00000000000E+00 -0.00000000000E+00 -0.41342898045E+03  0.41342898045E+03  0.00000000000E+00 0. -1.
         25    2    1    2    0    0 -0.19753087327E+00 -0.18830876855E+02 -0.25053465411E+03  0.28066077540E+03  0.12509283350E+03 0.  0.
          5    1    3    3  502    0 -0.34264518400E+02 -0.13100146931E+02 -0.24204210149E+03  0.24484183132E+03  0.41800000000E+01 0.  1.
         -5    1    3    3    0  502  0.34066987527E+02 -0.57307299237E+01 -0.84925526205E+01  0.35818944075E+02  0.41800000000E+01 0.  1.
        -11    1    1    2    0    0  0.32148613273E+02  0.35371341346E+02 -0.44726424642E+02  0.65460814120E+02  0.00000000000E+00 0.  1.
         11    1    1    2    0    0 -0.31951082400E+02 -0.16540464491E+02 -0.89248074696E+02  0.96227217923E+02  0.00000000000E+00 0. -1.
</event>
<event>
 7    1  0.2686828E-009  0.9149495E+02  0.7561462E-02  0.1299271E+00
         -2   -1    0    0    0  501 -0.00000000000E+00  0.00000000000E+00  0.13329593833E+02  0.13329593833E+02  0.00000000000E+00 0.  1.
          2   -1    0    0  501    0  0.00000000000E+00 -0.00000000000E+00 -0.12040182690E+04  0.12040182690E+04  0.00000000000E+00 0. -1.
         25    2    1    2    0    0  0.24529702731E+02  0.34786178259E+01 -0.97635535395E+03  0.98464731725E+03  0.12508699007E+03 0.  0.
          5    1    3    3  502    0 -0.14820193939E+02 -0.45352896340E+02 -0.19609011767E+03  0.20185472499E+03  0.41800000000E+01 0.  1.
         -5    1    3    3    0  502  0.39349896670E+02  0.48831514166E+02 -0.78026523629E+03  0.78279259226E+03  0.41800000000E+01 0.  1.
        -11    1    1    2    0    0 -0.23036645415E+02  0.30504666298E+02 -0.40978135012E+02  0.56039532894E+02  0.00000000000E+00 0.  1.
         11    1    1    2    0    0 -0.14930573155E+01 -0.33983284124E+02 -0.17335518617E+03  0.17666101266E+03  0.00000000000E+00 0. -1.
</event>
<event>
 7    1  0.2686828E-009  0.1376371E+03  0.7561462E-02  0.1216544E+00
          2   -1    0    0  501    0  0.00000000000E+00  0.00000000000E+00  0.66675403627E+03  0.66675403627E+03  0.00000000000E+00 0. -1.
         -2   -1    0    0    0  501 -0.00000000000E+00 -0.00000000000E+00 -0.45305021621E+02  0.45305021621E+02  0.00000000000E+00 0.  1.
         25    2    1    2    0    0  0.67378617533E+02 -0.64484152850E+02  0.53047039466E+03  0.55294160590E+03  0.12508995104E+03 0.  0.
          5    1    3    3  502    0 -0.34106057672E+02 -0.13296527303E+02  0.20208918217E+03  0.20542037572E+03  0.41800000000E+01 0.  1.
         -5    1    3    3    0  502  0.10148467521E+03 -0.51187625547E+02  0.32838121249E+03  0.34752123018E+03  0.41800000000E+01 0.  1.
        -11    1    1    2    0    0  0.17249735418E+02  0.27209223510E+02  0.45386975392E+01  0.32534519996E+02  0.00000000000E+00 0. -1.
         11    1    1    2    0    0 -0.84628352951E+02  0.37274929340E+02  0.86439922447E+02  0.12658293200E+03  0.00000000000E+00 0.  1.
</event>
<event>
 7    1  0.2686828E-009  0.8389927E+02  0.7561462E-02  0.1318336E+00
          2   -1    0    0  501    0  0.00000000000E+00  0.00000000000E+00  0.47191969365E+03  0.47191969365E+03  0.00000000000E+00 0. -1.
         -2   -1    0    0    0  501 -0.00000000000E+00 -0.00000000000E+00 -0.38645321562E+02  0.38645321562E+02  0.00000000000E+00 0.  1.
         25    2    1    2    0    0  0.76355405879E-01  0.14019445298E+02  0.38603156709E+03  0.40603478477E+03  0.12508926802E+03 0.  0.
          5    1    3    3  502    0 -0.57348347925E+01  0.47935390839E+02  0.35852207601E+03  0.36178203578E+03  0.41800000000E+01 0.  1.
         -5    1    3    3    0  502  0.58111901984E+01 -0.33915945541E+02  0.27509491075E+02  0.44252748985E+02  0.41800000000E+01 0.  1.
        -11    1    1    2    0    0 -0.31554522211E+02 -0.34786802639E+02  0.39740780676E+01  0.47133881723E+02  0.00000000000E+00 0.  1.
         11    1    1    2    0    0  0.31478166805E+02  0.20767357341E+02  0.43268726927E+02  0.57396348719E+02  0.00000000000E+00 0. -1.
</event>
<event>
 7    1  0.2686828E-009  0.1451603E+03  0.7561462E-02  0.1206549E+00
         -2   -1    0    0    0  501 -0.00000000000E+00  0.00000000000E+00  0.51572057540E+03  0.51572057540E+03  0.00000000000E+00 0.  1.
          2   -1    0    0  501    0  0.00000000000E+00 -0.00000000000E+00 -0.43932764715E+02  0.43932764715E+02  0.00000000000E+00 0. -1.
         25    2    1    2    0    0  0.89295121958E+02 -0.46704105049E+02  0.29273152707E+03  0.33390746386E+03  0.12509018844E+03 0.  0.
          5    1    3    3  502    0 -0.23266461209E+02  0.11238651466E+02  0.99299997682E+02  0.10269175938E+03  0.41800000000E+01 0.  1.
         -5    1    3    3    0  502  0.11256158317E+03 -0.57942756515E+02  0.19343152939E+03  0.23121570448E+03  0.41800000000E+01 0.  1.
        -11    1    1    2    0    0  0.24828402418E+01  0.45625641274E+02  0.59505179163E+02  0.75024862443E+02  0.00000000000E+00 0. -1.
         11    1    1    2    0    0 -0.91777962200E+02  0.10784637743E+01  0.11955110445E+03  0.15072101382E+03  0.00000000000E+00 0.  1.
</event>
<event>
 7    1  0.3438503E-009  0.2372159E+03  0.7561462E-02  0.1121662E+00
          2   -1    0    0  501    0  0.00000000000E+00  0.00000000000E+00  0.16949487616E+04  0.16949487616E+04  0.00000000000E+00 0. -1.
         -2   -1    0    0    0  501 -0.00000000000E+00 -0.00000000000E+00 -0.39382040912E+02  0.39382040912E+02  0.00000000000E+00 0.  1.
         25    2    1    2    0    0  0.15416076956E+03  0.15039515331E+03  0.11596507227E+04  0.11860948175E+04  0.12508745869E+03 0.  0.
          5    1    3    3  502    0  0.51493689467E+02  0.13071465536E+03  0.55890629917E+03  0.57630863679E+03  0.41800000000E+01 0. -1.
         -5    1    3    3    0  502  0.10266708009E+03  0.19680497957E+02  0.60074442353E+03  0.60978618067E+03  0.41800000000E+01 0. -1.
        -11    1    1    2    0    0 -0.11895389470E+03 -0.62069208990E+02  0.34125105418E+03  0.36668092089E+03  0.00000000000E+00 0. -1.
         11    1    1    2    0    0 -0.35206874860E+02 -0.88325944323E+02  0.15466494376E+03  0.18155506411E+03  0.00000000000E+00 0.  1.
</event>
<event>
 7    1  0.2686828E-009  0.8044182E+02  0.7561462E-02  0.1327802E+00
          2   -1    0    0  501    0  0.00000000000E+00  0.00000000000E+00  0.32854819486E+03  0.32854819486E+03  0.00000000000E+00 0. -1.
         -2   -1    0    0    0  501 -0.00000000000E+00 -0.00000000000E+00 -0.42593546864E+02  0.42593546864E+02  0.00000000000E+00 0.  1.
         25    2    1    2    0    0  0.44347516041E+02  0.39567122655E+00  0.20180559519E+03  0.24153525184E+03  0.12508765284E+03 0.  0.
          5    1    3    3  502    0  0.60623016566E+01 -0.39884788925E+02  0.17510317911E+03  0.17973909876E+03  0.41800000000E+01 0. -1.
         -5    1    3    3    0  502  0.38285214384E+02  0.40280460151E+02  0.26702416084E+02  0.61796153077E+02  0.41800000000E+01 0. -1.
        -11    1    1    2    0    0 -0.20782410771E+02  0.23269253627E+02  0.90397809923E+02  0.95630177249E+02  0.00000000000E+00 0. -1.
         11    1    1    2    0    0 -0.23565105269E+02 -0.23664924853E+02 -0.62487571231E+01  0.33976312635E+02  0.00000000000E+00 0.  1.
</event>
<event>
 7    1  0.2686828E-009  0.1224188E+03  0.7561462E-02  0.1239159E+00
          2   -1    0    0  501    0  0.00000000000E+00  0.00000000000E+00  0.22872490079E+03  0.22872490079E+03  0.00000000000E+00 0. -1.
         -2   -1    0    0    0  501 -0.00000000000E+00 -0.00000000000E+00 -0.70109303572E+02  0.70109303572E+02  0.00000000000E+00 0.  1.
         25    2    1    2    0    0  0.63808353249E+02  0.56325079651E+01  0.10951814451E+03  0.17817087830E+03  0.12508959512E+03 0.  0.
          5    1    3    3  502    0 -0.13940435167E+02  0.47644058831E+02  0.55194847046E+02  0.74352105652E+02  0.41800000000E+01 0.  1.
         -5    1    3    3    0  502  0.77748788416E+02 -0.42011550866E+02  0.54323297468E+02  0.10381877265E+03  0.41800000000E+01 0.  1.
        -11    1    1    2    0    0 -0.53357482685E+02  0.35513627574E+02  0.14060611450E+02  0.65619657850E+02  0.00000000000E+00 0.  1.
         11    1    1    2    0    0 -0.10450870564E+02 -0.41146135539E+02  0.35036841258E+02  0.55043668216E+02  0.00000000000E+00 0. -1.
</event>
<event>
 7    1  0.2686828E-009  0.1886046E+03  0.7561462E-02  0.1159726E+00
         -1   -1    0    0    0  501 -0.00000000000E+00  0.00000000000E+00  0.52544142940E+03  0.52544142940E+03  0.00000000000E+00 0.  1.
          1   -1    0    0  501    0  0.00000000000E+00 -0.00000000000E+00 -0.71871241570E+02  0.71871241570E+02  0.00000000000E+00 0. -1.
         25    2    1    2    0    0  0.16000754682E+03  0.81584484109E+01  0.22013933163E+03  0.29962921328E+03  0.12508942720E+03 0.  0.
          5    1    3    3  502    0  0.91463220119E+02  0.57812255338E+02  0.16880721401E+03  0.20055205161E+03  0.41800000000E+01 0.  1.
         -5    1    3    3    0  502  0.68544326696E+02 -0.49653806927E+02  0.51332117624E+02  0.99077161668E+02  0.41800000000E+01 0.  1.
        -11    1    1    2    0    0 -0.12279489025E+03 -0.45983127256E+02  0.17626705651E+03  0.21968866214E+03  0.00000000000E+00 0.  1.
         11    1    1    2    0    0 -0.37212656567E+02  0.37824678845E+02  0.57163799683E+02  0.77994795549E+02  0.00000000000E+00 0. -1.
</event>
<event>
 7    1  0.2686828E-009  0.1453912E+03  0.7561462E-02  0.1206253E+00
         -1   -1    0    0    0  501 -0.00000000000E+00  0.00000000000E+00  0.43181741366E+02  0.43181741366E+02  0.00000000000E+00 0.  1.
          1   -1    0    0  501    0  0.00000000000E+00 -0.00000000000E+00 -0.75605753572E+03  0.75605753572E+03  0.00000000000E+00 0. -1.
         25    2    1    2    0    0 -0.67169444999E+02  0.12312141195E+03 -0.30174552972E+03  0.35547699910E+03  0.12507164249E+03 0.  0.
          5    1    3    3  502    0 -0.78013471204E+01  0.52432387506E+01 -0.16521582533E+03  0.16553577834E+03  0.41800000000E+01 0. -1.
         -5    1    3    3    0  502 -0.59368097879E+02  0.11787817319E+03 -0.13652970439E+03  0.18994122076E+03  0.41800000000E+01 0. -1.
        -11    1    1    2    0    0  0.35218257436E+01 -0.55387031154E+02 -0.26371586074E+03  0.26949245200E+03  0.00000000000E+00 0.  1.
         11    1    1    2    0    0  0.63647619256E+02 -0.67734380791E+02 -0.14741440389E+03  0.17426982599E+03  0.00000000000E+00 0. -1.
</event>
<event>
 7    1  0.2686828E-009  0.1348088E+03  0.7561462E-02  0.1220490E+00
          1   -1    0    0  501    0  0.00000000000E+00  0.00000000000E+00  0.21754501401E+03  0.21754501401E+03  0.00000000000E+00 0. -1.
         -1   -1    0    0    0  501 -0.00000000000E+00 -0.00000000000E+00 -0.10930983074E+03  0.10930983074E+03  0.00000000000E+00 0.  1.
         25    2    1    2    0    0  0.10216052931E+03  0.32281956621E+02  0.35074866454E+02  0.16839332738E+03  0.12508864048E+03 0.  0.
          5    1    3    3  502    0  0.90671961166E+02  0.53007074771E+02  0.69777463680E+02  0.12616465969E+03  0.41800000000E+01 0.  1.
         -5    1    3    3    0  502  0.11488568141E+02 -0.20725118150E+02 -0.34702597226E+02  0.42228667686E+02  0.41800000000E+01 0.  1.
        -11    1    1    2    0    0 -0.52378742565E+01 -0.42647135476E+02  0.25410108129E+02  0.49918804935E+02  0.00000000000E+00 0.  1.
         11    1    1    2    0    0 -0.96922655050E+02  0.10365178855E+02  0.47750208682E+02  0.10854271244E+03  0.00000000000E+00 0. -1.
</event>
<event>
 7    1  0.2686828E-009  0.1000654E+03  0.7561462E-02  0.1280159E+00
          2   -1    0    0  501    0  0.00000000000E+00  0.00000000000E+00  0.42073479953E+03  0.42073479953E+03  0.00000000000E+00 0. -1.
         -2   -1    0    0    0  501 -0.00000000000E+00 -0.00000000000E+00 -0.36593483867E+02  0.36593483867E+02  0.00000000000E+00 0.  1.
         25    2    1    2    0    0 -0.18253055614E+02 -0.27939607614E+02  0.12452916170E+03  0.17963329079E+03  0.12508721490E+03 0.  0.
          5    1    3    3  502    0 -0.44416649478E+02  0.37469417477E+02  0.47556688351E+02  0.75205764432E+02  0.41800000000E+01 0.  1.
         -5    1    3    3    0  502  0.26163593864E+02 -0.65409025091E+02  0.76972473348E+02  0.10442752635E+03  0.41800000000E+01 0.  1.
        -11    1    1    2    0    0  0.53705588304E+01 -0.20491514580E+02  0.10595783140E+02  0.23685769827E+02  0.00000000000E+00 0.  1.
         11    1    1    2    0    0  0.12882496783E+02  0.48431122194E+02  0.24901637082E+03  0.25400922278E+03  0.00000000000E+00 0. -1.
</event>
<event>
 7    1  0.2686828E-009  0.8942022E+02  0.7561462E-02  0.1304262E+00
         -1   -1    0    0    0  501 -0.00000000000E+00  0.00000000000E+00  0.46024097795E+02  0.46024097795E+02  0.00000000000E+00 0.  1.
          1   -1    0    0  501    0  0.00000000000E+00 -0.00000000000E+00 -0.34411755301E+03  0.34411755301E+03  0.00000000000E+00 0. -1.
         25    2    1    2    0    0  0.44563828181E+02 -0.49733519116E+02 -0.13036019815E+03  0.19261122511E+03  0.12508375223E+03 0.  0.
          5    1    3    3  502    0 -0.19797407483E+01 -0.22277472293E+02 -0.13620954766E+03  0.13809677193E+03  0.41800000000E+01 0. -1.
         -5    1    3    3    0  502  0.46543568929E+02 -0.27456046823E+02  0.58493495051E+01  0.54514453179E+02  0.41800000000E+01 0. -1.
        -11    1    1    2    0    0 -0.25536655761E+02 -0.18188186663E+02 -0.72772551229E+02  0.79238722440E+02  0.00000000000E+00 0. -1.
         11    1    1    2    0    0 -0.19027172419E+02  0.67921705779E+02 -0.94960705833E+02  0.11829170325E+03  0.00000000000E+00 0.  1.
</event>
<event>
 7    1  0.2686828E-009  0.9801207E+02  0.7561462E-02  0.1284533E+00
         -2   -1    0    0    0  501 -0.00000000000E+00  0.00000000000E+00  0.33237363602E+03  0.33237363602E+03  0.00000000000E+00 0.  1.
          2   -1    0    0  501    0  0.00000000000E+00 -0.00000000000E+00 -0.42987982002E+02  0.42987982002E+02  0.00000000000E+00 0. -1.
         25    2    1    2    0    0 -0.21407585612E+02 -0.45061862302E+02  0.18094052939E+03  0.22555361610E+03  0.12508438113E+03 0.  0.
          5    1    3    3  502    0  0.23086044094E+02  0.13806113856E+02  0.13676656331E+03  0.13944941538E+03  0.41800000000E+01 0. -1.
         -5    1    3    3    0  502 -0.44493629706E+02 -0.58867976158E+02  0.44173966085E+02  0.86104200716E+02  0.41800000000E+01 0. -1.
        -11    1    1    2    0    0 -0.12211452190E+02 -0.18976405212E+02  0.42378347352E+01  0.22960460853E+02  0.00000000000E+00 0. -1.
         11    1    1    2    0    0  0.33619037802E+02  0.64038267514E+02  0.10420728989E+03  0.12684754107E+03  0.00000000000E+00 0.  1.
</event>
<event>
 7    1  0.2686828E-009  0.7920470E+02  0.7561462E-02  0.1331324E+00
          2   -1    0    0  501    0  0.00000000000E+00  0.00000000000E+00  0.25983110061E+03  0.25983110061E+03  0.00000000000E+00 0. -1.
         -2   -1    0    0    0  501 -0.00000000000E+00 -0.00000000000E+00 -0.61034028178E+02  0.61034028178E+02  0.00000000000E+00 0.  1.
         25    2    1    2    0    0 -0.33774865162E+02  0.52837715558E+02  0.12632561377E+03  0.18851971153E+03  0.12509578426E+03 0.  0.
          5    1    3    3  502    0 -0.14237061148E+02  0.41063552809E+02 -0.14338842424E+02  0.45956327981E+02  0.41800000000E+01 0.  1.
         -5    1    3    3    0  502 -0.19537804014E+02  0.11774162749E+02  0.14066445619E+03  0.14256338355E+03  0.41800000000E+01 0.  1.
        -11    1    1    2    0    0  0.42128660971E+00 -0.57829535543E+02  0.64252237024E+01  0.58186907145E+02  0.00000000000E+00 0.  1.
         11    1    1    2    0    0  0.33353578553E+02  0.49918199849E+01  0.66046234961E+02  0.74158510109E+02  0.00000000000E+00 0. -1.
</event>
<event>
 7    1  0.2978273E-009  0.1432057E+03  0.7561462E-02  0.1209079E+00
         -2   -1    0    0    0  501 -0.00000000000E+00  0.00000000000E+00  0.15340536022E+02  0.15340536022E+02  0.00000000000E+00 0.  1.
          2   -1    0    0  501    0  0.00000000000E+00 -0.00000000000E+00 -0.17251206457E+04  0.17251206457E+04  0.00000000000E+00 0. -1.
         25    2    1    2    0    0  0.57880081812E+02 -0.10566203758E+03 -0.94692443129E+03  0.96271941346E+03  0.12509284719E+03 0.  0.
          5    1    3    3  502    0  0.70414157242E+02 -0.78692724190E+02 -0.36422680505E+03  0.37924838338E+03  0.41800000000E+01 0. -1.
         -5    1    3    3    0  502 -0.12534075431E+02 -0.26969313386E+02 -0.58269762625E+03  0.58347103008E+03  0.41800000000E+01 0. -1.
        -11    1    1    2    0    0 -0.44810271553E+02  0.58596697153E+00 -0.19326503148E+03  0.19839273220E+03  0.00000000000E+00 0.  1.
         11    1    1    2    0    0 -0.13069810259E+02  0.10507607060E+03 -0.56959064691E+03  0.57934903607E+03  0.00000000000E+00 0. -1.
</event>
<event>
 7    1  0.2686828E-009  0.1145482E+03  0.7561462E-02  0.1252372E+00
          2   -1    0    0  501    0  0.00000000000E+00  0.00000000000E+00  0.91766644495E+03  0.91766644495E+03  0.00000000000E+00 0. -1.
         -2   -1    0    0    0  501 -0.00000000000E+00 -0.00000000000E+00 -0.17224250931E+02  0.17224250931E+02  0.00000000000E+00 0.  1.
         25    2    1    2    0    0 -0.57864532065E+02  0.22323769273E+02  0.42552099666E+03  0.44784188096E+03  0.12509027540E+03 0.  0.
          5    1    3    3  502    0 -0.80744551882E+02 -0.17713611513E+02  0.18171410403E+03  0.19967709607E+03  0.41800000000E+01 0. -1.
         -5    1    3    3    0  502  0.22880019817E+02  0.40037380786E+02  0.24380689263E+03  0.24816478489E+03  0.41800000000E+01 0. -1.
        -11    1    1    2    0    0  0.74729977832E+02 -0.35902246549E+01  0.42010147936E+03  0.42671150941E+03  0.00000000000E+00 0. -1.
         11    1    1    2    0    0 -0.16865445767E+02 -0.18733544618E+02  0.54819717995E+02  0.60337305508E+02  0.00000000000E+00 0.  1.
</event>
<event>
 7    1  0.2686828E-009  0.9222941E+02  0.7561462E-02  0.1297541E+00
          2   -1    0    0  501    0  0.00000000000E+00  0.00000000000E+00  0.47589146004E+03  0.47589146004E+03  0.00000000000E+00 0. -1.
         -2   -1    0    0    0  501 -0.00000000000E+00 -0.00000000000E+00 -0.35001203519E+02  0.35001203519E+02  0.00000000000E+00 0.  1.
         25    2    1    2    0    0 -0.93874637819E+01  0.68422282569E+02  0.25600002894E+03  0.29317960565E+03  0.12509409708E+03 0.  0.
          5    1    3    3  502    0 -0.55199351678E+01  0.39966163463E+02  0.54168881867E+01  0.40921620005E+02  0.41800000000E+01 0. -1.
         -5    1    3    3    0  502 -0.38675286141E+01  0.28456119106E+02  0.25058314075E+03  0.25225798565E+03  0.41800000000E+01 0. -1.
        -11    1    1    2    0    0  0.25222923894E+01  0.23029823268E+02  0.34148792953E+02  0.41265903344E+02  0.00000000000E+00 0.  1.
         11    1    1    2    0    0  0.68651713926E+01 -0.91452105837E+02  0.15074143463E+03  0.17644715456E+03  0.00000000000E+00 0. -1.
</event>
<event>
 7    1  0.2686828E-009  0.1114647E+03  0.7561462E-02  0.1257881E+00
         -2   -1    0    0    0  501 -0.00000000000E+00  0.00000000000E+00  0.24140633750E+03  0.24140633750E+03  0.00000000000E+00 0.  1.
          2   -1    0    0  501    0  0.00000000000E+00 -0.00000000000E+00 -0.64231368793E+02  0.64231368793E+02  0.00000000000E+00 0. -1.
         25    2    1    2    0    0  0.44527784495E+02 -0.35000127476E+02  0.70191016992E+02  0.15421141421E+03  0.12508656559E+03 0.  0.
          5    1    3    3  502    0  0.43589139897E+02 -0.68886064462E+02  0.64304721459E+01  0.81878729632E+02  0.41800000000E+01 0.  1.
         -5    1    3    3    0  502  0.93864459740E+00  0.33885936986E+02  0.63760544846E+02  0.72332684578E+02  0.41800000000E+01 0.  1.
        -11    1    1    2    0    0  0.28288533534E+02  0.70685904947E+01  0.30326616846E+02  0.42070295820E+02  0.00000000000E+00 0. -1.
         11    1    1    2    0    0 -0.72816318029E+02  0.27931536982E+02  0.76657334868E+02  0.10935599626E+03  0.00000000000E+00 0.  1.
</event>
<event>
 7    1  0.2686828E-009  0.8095710E+02  0.7561462E-02  0.1326357E+00
         -2   -1    0    0    0  501 -0.00000000000E+00  0.00000000000E+00  0.22548647053E+02  0.22548647053E+02  0.00000000000E+00 0.  1.
          2   -1    0    0  501    0  0.00000000000E+00 -0.00000000000E+00 -0.55576329903E+03  0.55576329903E+03  0.00000000000E+00 0. -1.
         25    2    1    2    0    0  0.25728608585E+02  0.27417229594E+02 -0.25628364844E+03  0.28764908378E+03  0.12508805363E+03 0.  0.
          5    1    3    3  502    0  0.11949532891E+02 -0.20484265708E+02 -0.22978744464E+03  0.23104575000E+03  0.41800000000E+01 0. -1.
         -5    1    3    3    0  502  0.13779075694E+02  0.47901495301E+02 -0.26496203802E+02  0.56603333780E+02  0.41800000000E+01 0. -1.
        -11    1    1    2    0    0  0.12297510270E+01 -0.51590845906E+02 -0.17722276478E+03  0.18458341211E+03  0.00000000000E+00 0. -1.
         11    1    1    2    0    0 -0.26958359612E+02  0.24173616313E+02 -0.99708238746E+02  0.10607945019E+03  0.00000000000E+00 0.  1.
</event>
<event>
 7    1  0.2686828E-009  0.1281650E+03  0.7561462E-02  0.1230204E+00
          2   -1    0    0  501    0  0.00000000000E+00  0.00000000000E+00  0.21350696783E+03  0.21350696783E+03  0.00000000000E+00 0. -1.
         -2   -1    0    0    0  501 -0.00000000000E+00 -0.00000000000E+00 -0.10893303179E+03  0.10893303179E+03  0.00000000000E+00 0.  1.
         25    2    1    2    0    0 -0.84198549584E+02  0.66435464362E+02  0.55139164610E+02  0.17375669021E+03  0.12509193915E+03 0.  0.
          5    1    3    3  502    0 -0.37748344243E+02  0.59554334826E+02  0.90517624271E+02  0.11481536915E+03  0.41800000000E+01 0.  1.
         -5    1    3    3    0  502 -0.46450205340E+02  0.68811295362E+01 -0.35378459662E+02  0.58941321056E+02  0.41800000000E+01 0.  1.
        -11    1    1    2    0    0 -0.31355297355E+01 -0.49491763989E+02  0.28842587967E+02  0.57368642393E+02  0.00000000000E+00 0. -1.
         11    1    1    2    0    0  0.87334079319E+02 -0.16943700373E+02  0.20592183466E+02  0.91314667019E+02  0.00000000000E+00 0.  1.
</event>
<event>
 7    1  0.2686828E-009  0.1008718E+03  0.7561462E-02  0.1278473E+00
          3   -1    0    0  501    0  0.00000000000E+00  0.00000000000E+00  0.55359428677E+02  0.55359428677E+02  0.00000000000E+00 0. -1.
         -3   -1    0    0    0  501 -0.00000000000E+00 -0.00000000000E+00 -0.22809973482E+03  0.22809973482E+03  0.00000000000E+00 0.  1.
         25    2    1    2    0    0 -0.23934029546E+02  0.55316518661E+01 -0.11933420557E+03  0.17461935711E+03  0.12509128793E+03 0.  0.
          5    1    3    3  502    0 -0.43388962148E+02 -0.39392648113E+02 -0.10985504055E+03  0.12457923220E+03  0.41800000000E+01 0. -1.
         -5    1    3    3    0  502  0.19454932602E+02  0.44924299979E+02 -0.94791650143E+01  0.50040124905E+02  0.41800000000E+01 0. -1.
        -11    1    1    2    0    0  0.53190677537E+02  0.18165639452E+02 -0.24225188666E+02  0.61205378844E+02  0.00000000000E+00 0.  1.
         11    1    1    2    0    0 -0.29256647991E+02 -0.23697291319E+02 -0.29180911909E+02  0.47634427543E+02  0.00000000000E+00 0. -1.
</event>
<event>
 7    1  0.2686828E-009  0.9285079E+02  0.7561462E-02  0.1296091E+00
          1   -1    0    0  501    0  0.00000000000E+00  0.00000000000E+00  0.23163461194E+02  0.23163461194E+02  0.00000000000E+00 0. -1.
         -1   -1    0    0    0  501 -0.00000000000E+00 -0.00000000000E+00 -0.86320871705E+03  0.86320871705E+03  0.00000000000E+00 0.  1.
         25    2    1    2    0    0  0.98576272167E+01  0.90992035529E+02 -0.45747599230E+03  0.48302026562E+03  0.12509024792E+03 0.  0.
          5    1    3    3  502    0  0.39724717875E+01  0.26355304123E+02 -0.38378887154E+03  0.38473595219E+03  0.41800000000E+01 0. -1.
         -5    1    3    3    0  502  0.58851554292E+01  0.64636731406E+02 -0.73687120762E+02  0.98284313436E+02  0.41800000000E+01 0. -1.
        -11    1    1    2    0    0 -0.10556168489E+02 -0.19377353384E+02 -0.10471684051E+02  0.24424796502E+02  0.00000000000E+00 0. -1.
         11    1    1    2    0    0  0.69854127246E+00 -0.71614682145E+02 -0.37209757950E+03  0.37892711612E+03  0.00000000000E+00 0.  1.
</event>
<event>
 7    1  0.2686828E-009  0.1097938E+03  0.7561462E-02  0.1260952E+00
         -1   -1    0    0    0  501 -0.00000000000E+00  0.00000000000E+00  0.14416252899E+03  0.14416252899E+03  0.00000000000E+00 0.  1.
          1   -1    0    0  501    0  0.00000000000E+00 -0.00000000000E+00 -0.17331643261E+03  0.17331643261E+03  0.00000000000E+00 0. -1.
         25    2    1    2    0    0  0.43940573256E+02  0.77380833499E+02 -0.88007481275E+02  0.17695403233E+03  0.12509534534E+03 0.  0.
          5    1    3    3  502    0 -0.93750763759E+01  0.60861913769E+01  0.28132689768E+02  0.30559031662E+02  0.41800000000E+01 0. -1.
         -5    1    3    3    0  502  0.53315649632E+02  0.71294642122E+02 -0.11614017104E+03  0.14639500067E+03  0.41800000000E+01 0. -1.
        -11    1    1    2    0    0 -0.58713848545E+02 -0.83883195593E+02  0.67081679620E+02  0.12240775406E+03  0.00000000000E+00 0.  1.
         11    1    1    2    0    0  0.14773275289E+02  0.65023620938E+01 -0.82281019592E+01  0.18117175205E+02  0.00000000000E+00 0. -1.
</event>
<event>
 7    1  0.2686828E-009  0.1219606E+03  0.7561462E-02  0.1239897E+00
          2   -1    0    0  501    0  0.00000000000E+00  0.00000000000E+00  0.64525016282E+03  0.64525016282E+03  0.00000000000E+00 0. -1.
         -2   -1    0    0    0  501 -0.00000000000E+00 -0.00000000000E+00 -0.41415853163E+02  0.41415853163E+02  0.00000000000E+00 0.  1.
         25    2    1    2    0    0  0.93763852416E+02 -0.22298714197E+02  0.16668291767E+03  0.22960692352E+03  0.12508897477E+03 0.  0.
          5    1    3    3  502    0  0.63449528537E+02 -0.44133731273E+02  0.17478008326E+03  0.19115223988E+03  0.41800000000E+01 0. -1.
         -5    1    3    3    0  502  0.30314323878E+02  0.21835017075E+02 -0.80971655899E+01  0.38454683635E+02  0.41800000000E+01 0. -1.
        -11    1    1    2    0    0 -0.28821413433E+02  0.50483713713E+02  0.25709252243E+03  0.26358270868E+03  0.00000000000E+00 0.  1.
         11    1    1    2    0    0 -0.64942438983E+02 -0.28184999515E+02  0.18005886956E+03  0.19347638379E+03  0.00000000000E+00 0. -1.
</event>
<event>
 7    1  0.2686828E-009  0.1027528E+03  0.7561462E-02  0.1274611E+00
          1   -1    0    0  501    0  0.00000000000E+00  0.00000000000E+00  0.16249109982E+03  0.16249109982E+03  0.00000000000E+00 0. -1.
         -1   -1    0    0    0  501 -0.00000000000E+00 -0.00000000000E+00 -0.12808144556E+03  0.12808144556E+03  0.00000000000E+00 0.  1.
         25    2    1    2    0    0 -0.29822641650E+02  0.12434346001E+02 -0.69510546799E+02  0.14670895175E+03  0.12509115673E+03 0.  0.
          5    1    3    3  502    0 -0.61343196304E+02 -0.21546014041E+02 -0.25961383151E+01  0.65202996772E+02  0.41800000000E+01 0. -1.
         -5    1    3    3    0  502  0.31520554654E+02  0.33980360042E+02 -0.66914408484E+02  0.81505954979E+02  0.41800000000E+01 0. -1.
        -11    1    1    2    0    0  0.56915732016E+02 -0.27068516549E+02  0.45193545850E+02  0.77553605496E+02  0.00000000000E+00 0.  1.
         11    1    1    2    0    0 -0.27093090365E+02  0.14634170548E+02  0.58726655210E+02  0.66309988126E+02  0.00000000000E+00 0. -1.
</event>
<event>
 7    1  0.2686828E-009  0.7072340E+02  0.7561462E-02  0.1357650E+00
          3   -1    0    0  501    0  0.00000000000E+00  0.00000000000E+00  0.61471874921E+02  0.61471874921E+02  0.00000000000E+00 0. -1.
         -3   -1    0    0    0  501 -0.00000000000E+00 -0.00000000000E+00 -0.27023971944E+03  0.27023971944E+03  0.00000000000E+00 0.  1.
         25    2    1    2    0    0  0.45800727407E+02  0.28942134634E+01 -0.18213693172E+03  0.22566903845E+03  0.12508624991E+03 0.  0.
          5    1    3    3  502    0  0.67822527405E+00  0.23688378661E+02  0.10812760017E+02  0.26381574106E+02  0.41800000000E+01 0. -1.
         -5    1    3    3    0  502  0.45122502133E+02 -0.20794165197E+02 -0.19294969174E+03  0.19928746435E+03  0.41800000000E+01 0. -1.
        -11    1    1    2    0    0 -0.97605084660E+01  0.21766165726E+02 -0.50806417789E+02  0.56127761264E+02  0.00000000000E+00 0.  1.
         11    1    1    2    0    0 -0.36040218941E+02 -0.24660379190E+02  0.24175504988E+02  0.49914794645E+02  0.00000000000E+00 0. -1.
</event>
<event>
 7    1  0.2686828E-009  0.1048213E+03  0.7561462E-02  0.1270472E+00
         -2   -1    0    0    0  501 -0.00000000000E+00  0.00000000000E+00  0.84105046818E+02  0.84105046818E+02  0.00000000000E+00 0.  1.
          2   -1    0    0  501    0  0.00000000000E+00 -0.00000000000E+00 -0.22293478818E+03  0.22293478818E+03  0.00000000000E+00 0. -1.
         25    2    1    2    0    0  0.55704893507E+02 -0.24635392268E+02 -0.12901731934E+02  0.13972872880E+03  0.12509086798E+03 0.  0.
          5    1    3    3  502    0  0.29598444973E+02  0.42600944034E+02  0.25451027161E+02  0.57932163442E+02  0.41800000000E+01 0. -1.
         -5    1    3    3    0  502  0.26106448534E+02 -0.67236336302E+02 -0.38352759095E+02  0.81796565360E+02  0.41800000000E+01 0. -1.
        -11    1    1    2    0    0 -0.48012887473E+02 -0.10699187279E+02 -0.16218274885E+02  0.51795196807E+02  0.00000000000E+00 0.  1.
         11    1    1    2    0    0 -0.76920060340E+01  0.35334579547E+02 -0.10970973454E+03  0.11551590939E+03  0.00000000000E+00 0. -1.
</event>
<event>
 7    1  0.2686828E-009  0.1149162E+03  0.7561462E-02  0.1251727E+00
         -1   -1    0    0    0  501 -0.00000000000E+00  0.00000000000E+00  0.27287121453E+03  0.27287121453E+03  0.00000000000E+00 0.  1.
          1   -1    0    0  501    0  0.00000000000E+00 -0.00000000000E+00 -0.59399261761E+02  0.59399261761E+02  0.00000000000E+00 0. -1.
         25    2    1    2    0    0 -0.22059024315E+01  0.60195530285E+02  0.15487328255E+03  0.20799542422E+03  0.12509194608E+03 0.  0.
          5    1    3    3  502    0 -0.48646181016E+02 -0.85656483908E+01  0.89375348082E+02  0.10220198875E+03  0.41800000000E+01 0.  1.
         -5    1    3    3    0  502  0.46440278585E+02  0.68761178676E+02  0.65497934471E+02  0.10579343547E+03  0.41800000000E+01 0.  1.
        -11    1    1    2    0    0  0.39225968225E+02 -0.29252556904E+02  0.73929607467E+00  0.48938075435E+02  0.00000000000E+00 0.  1.
         11    1    1    2    0    0 -0.37020065794E+02 -0.30942973382E+02  0.57859374142E+02  0.75336976640E+02  0.00000000000E+00 0. -1.
</event>
<event>
 7    1  0.3681993E-009  0.2364336E+03  0.7561462E-02  0.1122192E+00
         -2   -1    0    0    0  501 -0.00000000000E+00  0.00000000000E+00  0.17784337017E+03  0.17784337017E+03  0.00000000000E+00 0. -1.
          2   -1    0    0  501    0  0.00000000000E+00 -0.00000000000E+00 -0.35508983102E+03  0.35508983102E+03  0.00000000000E+00 0.  1.
         25    2    1    2    0    0 -0.14800687525E+03  0.16080216392E+03 -0.29377886716E+02  0.25352242494E+03  0.12508872323E+03 0.  0.
          5    1    3    3  502    0 -0.16690315291E+03  0.14870876569E+03 -0.10368133682E+02  0.22382120105E+03  0.41800000000E+01 0.  1.
         -5    1    3    3    0  502  0.18896277661E+02  0.12093398230E+02 -0.19009753034E+02  0.29701223891E+02  0.41800000000E+01 0.  1.
        -11    1    1    2    0    0  0.11887169978E+03 -0.87553362508E+02 -0.13398080434E+03  0.19936631668E+03  0.00000000000E+00 0.  1.
         11    1    1    2    0    0  0.29135175466E+02 -0.73248801412E+02 -0.13887769797E+02  0.80044459568E+02  0.00000000000E+00 0. -1.
</event>
<event>
 7    1  0.2686828E-009  0.1438587E+03  0.7561462E-02  0.1208229E+00
         -1   -1    0    0    0  501 -0.00000000000E+00  0.00000000000E+00  0.17413168381E+03  0.17413168381E+03  0.00000000000E+00 0.  1.
          1   -1    0    0  501    0  0.00000000000E+00 -0.00000000000E+00 -0.13737476159E+03  0.13737476159E+03  0.00000000000E+00 0. -1.
         25    2    1    2    0    0  0.86275507134E+02  0.66408097926E+02  0.34410213368E+02  0.16937396117E+03  0.12509986945E+03 0.  0.
          5    1    3    3  502    0 -0.19267536921E+02  0.54437614409E+02  0.23602885079E+02  0.62524078766E+02  0.41800000000E+01 0.  1.
         -5    1    3    3    0  502  0.10554304405E+03  0.11970483518E+02  0.10807328290E+02  0.10684988240E+03  0.41800000000E+01 0.  1.
        -11    1    1    2    0    0 -0.95191058488E+02 -0.61661621892E+02  0.26046898118E+02  0.11636981624E+03  0.00000000000E+00 0.  1.
         11    1    1    2    0    0  0.89155513541E+01 -0.47464760347E+01 -0.23700189263E+02  0.25762667987E+02  0.00000000000E+00 0. -1.
</event>
<event>
 7    1  0.2686828E-009  0.1002753E+03  0.7561462E-02  0.1279718E+00
          1   -1    0    0  501    0  0.00000000000E+00  0.00000000000E+00  0.99120027149E+03  0.99120027149E+03  0.00000000000E+00 0. -1.
         -1   -1    0    0    0  501 -0.00000000000E+00 -0.00000000000E+00 -0.11985021402E+02  0.11985021402E+02  0.00000000000E+00 0.  1.
         25    2    1    2    0    0  0.13465052003E+02 -0.29022055432E+01  0.56477711121E+03  0.57862793521E+03  0.12508945453E+03 0.  0.
          5    1    3    3  502    0 -0.28878855667E+02  0.40775597315E+02  0.39622468346E+03  0.39938466398E+03  0.41800000000E+01 0.  1.
         -5    1    3    3    0  502  0.42343907670E+02 -0.43677802858E+02  0.16855242775E+03  0.17924327123E+03  0.41800000000E+01 0.  1.
        -11    1    1    2    0    0  0.17864270117E+02  0.38239743527E+02  0.14524742542E+03  0.15125549485E+03  0.00000000000E+00 0. -1.
         11    1    1    2    0    0 -0.31329322120E+02 -0.35337537983E+02  0.26919071346E+03  0.27330186284E+03  0.00000000000E+00 0.  1.
</event>
<event>
 7    1  0.2961986E-009  0.2142563E+03  0.7561462E-02  0.1138239E+00
          1   -1    0    0  501    0  0.00000000000E+00  0.00000000000E+00  0.83701135709E+03  0.83701135709E+03  0.00000000000E+00 0. -1.
         -1   -1    0    0    0  501 -0.00000000000E+00 -0.00000000000E+00 -0.64881298937E+02  0.64881298937E+02  0.00000000000E+00 0.  1.
         25    2    1    2    0    0  0.19379867238E+03  0.65395142798E+02  0.44791825096E+03  0.50804869727E+03  0.12509304191E+03 0.  0.
          5    1    3    3  502    0  0.17020764164E+03  0.47778167416E+02  0.44416733129E+03  0.47807476941E+03  0.41800000000E+01 0.  1.
         -5    1    3    3    0  502  0.23591030747E+02  0.17616975382E+02  0.37509196695E+01  0.29973927865E+02  0.41800000000E+01 0.  1.
        -11    1    1    2    0    0 -0.10251423879E+03 -0.79294118494E+02  0.16525135621E+03  0.21001127853E+03  0.00000000000E+00 0.  1.
         11    1    1    2    0    0 -0.91284433598E+02  0.13898975696E+02  0.15896045099E+03  0.18383268023E+03  0.00000000000E+00 0. -1.
</event>
<event>
 7    1  0.2686828E-009  0.9725662E+02  0.7561462E-02  0.1286173E+00
         -1   -1    0    0    0  501 -0.00000000000E+00  0.00000000000E+00  0.19246234753E+03  0.19246234753E+03  0.00000000000E+00 0.  1.
          1   -1    0    0  501    0  0.00000000000E+00 -0.00000000000E+00 -0.11114521212E+03  0.11114521212E+03  0.00000000000E+00 0. -1.
         25    2    1    2    0    0 -0.10264001072E+02 -0.78743723943E+02  0.30061255994E+02  0.15118428423E+03  0.12508830844E+03 0.  0.
          5    1    3    3  502    0 -0.32290291891E+02 -0.53666927842E-01  0.56488888963E+02  0.65200711705E+02  0.41800000000E+01 0.  1.
         -5    1    3    3    0  502  0.22026290819E+02 -0.78690057015E+02 -0.26427632969E+02  0.85983572527E+02  0.41800000000E+01 0.  1.
        -11    1    1    2    0    0 -0.17488291705E+01  0.25045689902E+02 -0.39196964985E+02  0.46548330262E+02  0.00000000000E+00 0. -1.
         11    1    1    2    0    0  0.12012830242E+02  0.53698034041E+02  0.90452844406E+02  0.10587494515E+03  0.00000000000E+00 0.  1.
</event>
<event>
 7    1  0.2686828E-009  0.1057320E+03  0.7561462E-02  0.1268684E+00
          2   -1    0    0  501    0  0.00000000000E+00  0.00000000000E+00  0.36059414718E+03  0.36059414718E+03  0.00000000000E+00 0.  1.
         -2   -1    0    0    0  501 -0.00000000000E+00 -0.00000000000E+00 -0.38340701351E+02  0.38340701351E+02  0.00000000000E+00 0. -1.
         25    2    1    2    0    0  0.43088056370E+02 -0.14203402997E+02  0.16082529085E+03  0.20873629737E+03  0.12509096852E+03 0.  0.
          5    1    3    3  502    0  0.69130645246E+02  0.32697158430E+02  0.73413023619E+02  0.10609003119E+03  0.41800000000E+01 0.  1.
         -5    1    3    3    0  502 -0.26042588876E+02 -0.46900561427E+02  0.87412267234E+02  0.10264626618E+03  0.41800000000E+01 0.  1.
        -11    1    1    2    0    0 -0.94847709910E+01 -0.26581600405E+02  0.10210777815E+02  0.30013369428E+02  0.00000000000E+00 0. -1.
         11    1    1    2    0    0 -0.33603285379E+02  0.40785003402E+02  0.15121737716E+03  0.16018518173E+03  0.00000000000E+00 0.  1.
</event>
<event>
 7    1  0.2686828E-009  0.1432942E+03  0.7561462E-02  0.1208964E+00
          1   -1    0    0  501    0  0.00000000000E+00  0.00000000000E+00  0.42585417984E+03  0.42585417984E+03  0.00000000000E+00 0.  1.
         -1   -1    0    0    0  501 -0.00000000000E+00 -0.00000000000E+00 -0.49516150988E+02  0.49516150988E+02  0.00000000000E+00 0. -1.
         25    2    1    2    0    0 -0.36295518331E+01  0.95225203501E+02  0.20666851964E+03  0.25969312760E+03  0.12509048918E+03 0.  0.
          5    1    3    3  502    0  0.14889646826E+01  0.12538073682E+03  0.15390232263E+03  0.19855967237E+03  0.41800000000E+01 0. -1.
         -5    1    3    3    0  502 -0.51185165157E+01 -0.30155533318E+02  0.52766197018E+02  0.61133455233E+02  0.41800000000E+01 0. -1.
        -11    1    1    2    0    0 -0.31534663681E+01  0.17271502185E+02  0.98939057326E+01  0.20152878418E+02  0.00000000000E+00 0.  1.
         11    1    1    2    0    0  0.67830182013E+01 -0.11249670569E+03  0.15977560348E+03  0.19552432481E+03  0.00000000000E+00 0. -1.
</event>
<event>
 7    1  0.2686828E-009  0.1260108E+03  0.7561462E-02  0.1233498E+00
         -4   -1    0    0    0  501 -0.00000000000E+00  0.00000000000E+00  0.11137133110E+04  0.11137133110E+04  0.00000000000E+00 0.  1.
          4   -1    0    0  501    0  0.00000000000E+00 -0.00000000000E+00 -0.23307307427E+02  0.23307307427E+02  0.00000000000E+00 0. -1.
         25    2    1    2    0    0  0.43735855754E+02  0.10397052177E+03  0.45114374266E+03  0.48155956537E+03  0.12508494707E+03 0.  0.
          5    1    3    3  502    0  0.17299328897E+02  0.53766049932E+01  0.29106869931E+03  0.29166185006E+03  0.41800000000E+01 0.  1.
         -5    1    3    3    0  502  0.26436526857E+02  0.98593916773E+02  0.16007504335E+03  0.18989771531E+03  0.41800000000E+01 0.  1.
        -11    1    1    2    0    0 -0.61772088142E+02 -0.75295367080E+02  0.57110149417E+03  0.57934626936E+03  0.00000000000E+00 0.  1.
         11    1    1    2    0    0  0.18036232388E+02 -0.28675154686E+02  0.68160766792E+02  0.76114783746E+02  0.00000000000E+00 0. -1.
</event>
<event>
 7    1  0.2686828E-009  0.2151834E+03  0.7561462E-02  0.1137526E+00
         -2   -1    0    0    0  501 -0.00000000000E+00  0.00000000000E+00  0.45631644805E+03  0.45631644805E+03  0.00000000000E+00 0.  1.
          2   -1    0    0  501    0  0.00000000000E+00 -0.00000000000E+00 -0.12136615873E+03  0.12136615873E+03  0.00000000000E+00 0. -1.
         25    2    1    2    0    0 -0.15768298981E+03  0.11114884533E+03  0.27017630231E+03  0.35476715831E+03  0.12508601516E+03 0.  0.
          5    1    3    3  502    0 -0.14215002256E+03  0.44525736467E+02  0.12607100222E+03  0.19519359652E+03  0.41800000000E+01 0.  1.
         -5    1    3    3    0  502 -0.15532967246E+02  0.66623108862E+02  0.14410530009E+03  0.15957356179E+03  0.41800000000E+01 0.  1.
        -11    1    1    2    0    0  0.94498095482E+02 -0.12023878110E+02  0.21526274298E+02  0.97661887037E+02  0.00000000000E+00 0.  1.
         11    1    1    2    0    0  0.63184894327E+02 -0.99124967219E+02  0.43247712702E+02  0.12525356143E+03  0.00000000000E+00 0. -1.
</event>
<event>
 7    1  0.2686828E-009  0.1125102E+03  0.7561462E-02  0.1255991E+00
          2   -1    0    0  501    0  0.00000000000E+00  0.00000000000E+00  0.10036984833E+04  0.10036984833E+04  0.00000000000E+00 0. -1.
         -2   -1    0    0    0  501 -0.00000000000E+00 -0.00000000000E+00 -0.14683928841E+02  0.14683928841E+02  0.00000000000E+00 0.  1.
         25    2    1    2    0    0 -0.38877309421E+02 -0.35454818611E+02  0.52615317052E+03  0.54337619795E+03  0.12510813042E+03 0.  0.
          5    1    3    3  502    0 -0.52575553671E+02  0.23955606629E+02  0.38812924470E+03  0.39242813727E+03  0.41800000000E+01 0.  1.
         -5    1    3    3    0  502  0.13698244250E+02 -0.59410425239E+02  0.13802392582E+03  0.15094806068E+03  0.41800000000E+01 0.  1.
        -11    1    1    2    0    0  0.38925186021E+02  0.65361592380E+02  0.30560750600E+03  0.31493373206E+03  0.00000000000E+00 0.  1.
         11    1    1    2    0    0 -0.47876600067E-01 -0.29906773769E+02  0.15725387797E+03  0.16007248216E+03  0.00000000000E+00 0. -1.
</event>
<event>
 7    1  0.2686828E-009  0.9277997E+02  0.7561462E-02  0.1296256E+00
          2   -1    0    0  501    0  0.00000000000E+00  0.00000000000E+00  0.21562798892E+03  0.21562798892E+03  0.00000000000E+00 0. -1.
         -2   -1    0    0    0  501 -0.00000000000E+00 -0.00000000000E+00 -0.75051759168E+02  0.75051759168E+02  0.00000000000E+00 0.  1.
         25    2    1    2    0    0  0.14768436123E+02 -0.60752892455E+02  0.10091819757E+03  0.17245560632E+03  0.12508969943E+03 0.  0.
          5    1    3    3  502    0  0.28746418051E+02  0.16099334678E+02 -0.11806467230E+02  0.35247839598E+02  0.41800000000E+01 0. -1.
         -5    1    3    3    0  502 -0.13977981928E+02 -0.76852227133E+02  0.11272466480E+03  0.13720776672E+03  0.41800000000E+01 0. -1.
        -11    1    1    2    0    0  0.92734957632E+01  0.43636401752E+02  0.65330008465E+02  0.79108427412E+02  0.00000000000E+00 0. -1.
         11    1    1    2    0    0 -0.24041931886E+02  0.17116490703E+02 -0.25671976289E+02  0.39115714353E+02  0.00000000000E+00 0.  1.
</event>
<event>
 7    1  0.2686828E-009  0.1025769E+03  0.7561462E-02  0.1274969E+00
         -1   -1    0    0    0  501 -0.00000000000E+00  0.00000000000E+00  0.40058697770E+03  0.40058697770E+03  0.00000000000E+00 0.  1.
          1   -1    0    0  501    0  0.00000000000E+00 -0.00000000000E+00 -0.33288735167E+02  0.33288735167E+02  0.00000000000E+00 0. -1.
         25    2    1    2    0    0  0.13949521308E+00  0.38763572299E+02  0.22597336100E+03  0.26117370283E+03  0.12508041083E+03 0.  0.
          5    1    3    3  502    0  0.75330058780E+01  0.82692613769E+02  0.11848069608E+03  0.14474101801E+03  0.41800000000E+01 0. -1.
         -5    1    3    3    0  502 -0.73935106650E+01 -0.43929041470E+02  0.10749266491E+03  0.11643268482E+03  0.41800000000E+01 0. -1.
        -11    1    1    2    0    0 -0.80844469856E+01  0.18116656359E+02  0.99996059190E+02  0.10194500171E+03  0.00000000000E+00 0.  1.
         11    1    1    2    0    0  0.79449517725E+01 -0.56880228658E+02  0.41328822348E+02  0.70757008328E+02  0.00000000000E+00 0. -1.
</event>
<event>
 7    1  0.2686828E-009  0.2786433E+03  0.7561462E-02  0.1096432E+00
         -2   -1    0    0    0  501 -0.00000000000E+00  0.00000000000E+00  0.44334492953E+03  0.44334492953E+03  0.00000000000E+00 0.  1.
          2   -1    0    0  501    0  0.00000000000E+00 -0.00000000000E+00 -0.17771936908E+03  0.17771936908E+03  0.00000000000E+00 0. -1.
         25    2    1    2    0    0 -0.19443675337E+03  0.16784954365E+03  0.17077932716E+03  0.33285487403E+03  0.12509064001E+03 0.  0.
          5    1    3    3  502    0  0.14516214318E+02 -0.33999771592E+01  0.82665104239E+01  0.17552433375E+02  0.41800000000E+01 0. -1.
         -5    1    3    3    0  502 -0.20895296769E+03  0.17124952081E+03  0.16251281674E+03  0.31530244066E+03  0.41800000000E+01 0. -1.
        -11    1    1    2    0    0  0.11738680218E+03 -0.43232770413E+02  0.52811557167E+02  0.13578583997E+03  0.00000000000E+00 0. -1.
         11    1    1    2    0    0  0.77049951184E+02 -0.12461677323E+03  0.42034676127E+02  0.15242358461E+03  0.00000000000E+00 0.  1.
</event>
<event>
 7    1  0.2686828E-009  0.1085118E+03  0.7561462E-02  0.1263351E+00
         -2   -1    0    0    0  501 -0.00000000000E+00  0.00000000000E+00  0.16856737486E+02  0.16856737486E+02  0.00000000000E+00 0.  1.
          2   -1    0    0  501    0  0.00000000000E+00 -0.00000000000E+00 -0.11386032309E+04  0.11386032309E+04  0.00000000000E+00 0. -1.
         25    2    1    2    0    0 -0.48332797586E+02 -0.69798732116E+02 -0.66884306201E+03  0.68571567791E+03  0.12508807699E+03 0.  0.
          5    1    3    3  502    0 -0.29889696805E+02 -0.70856359926E+02 -0.66057465887E+03  0.66504914860E+03  0.41800000000E+01 0. -1.
         -5    1    3    3    0  502 -0.18443100782E+02  0.10576278101E+01 -0.82684031377E+01  0.20666529304E+02  0.41800000000E+01 0. -1.
        -11    1    1    2    0    0 -0.25065683572E+02  0.22996422054E+02 -0.18348870548E+03  0.18661518952E+03  0.00000000000E+00 0.  1.
         11    1    1    2    0    0  0.73398481158E+02  0.46802310062E+02 -0.26941472588E+03  0.28312910092E+03  0.00000000000E+00 0. -1.
</event>
<event>
 7    1  0.2686828E-009  0.9473379E+02  0.7561462E-02  0.1291777E+00
         -4   -1    0    0    0  501 -0.00000000000E+00  0.00000000000E+00  0.12293887852E+02  0.12293887852E+02  0.00000000000E+00 0.  1.
          4   -1    0    0  501    0  0.00000000000E+00 -0.00000000000E+00 -0.20494446064E+04  0.20494446064E+04  0.00000000000E+00 0. -1.
         25    2    1    2    0    0 -0.60041457403E+02  0.36451881427E+02 -0.17056199747E+04  0.17116425930E+04  0.12508857561E+03 0.  0.
          5    1    3    3  502    0 -0.12164775437E+02 -0.66983952712E+01 -0.13577534044E+04  0.13578308546E+04  0.41800000000E+01 0.  1.
         -5    1    3    3    0  502 -0.47876681967E+02  0.43150276699E+02 -0.34786657039E+03  0.35381173843E+03  0.41800000000E+01 0.  1.
        -11    1    1    2    0    0 -0.89119106628E+01 -0.40341553749E+02 -0.15838512796E+03  0.16368479425E+03  0.00000000000E+00 0. -1.
         11    1    1    2    0    0  0.68953368066E+02  0.38896723219E+01 -0.17314561588E+03  0.18641110701E+03  0.00000000000E+00 0.  1.
</event>
<event>
 7    1  0.3563395E-009  0.1833354E+03  0.7561462E-02  0.1164614E+00
          4   -1    0    0  501    0  0.00000000000E+00  0.00000000000E+00  0.33431038283E+03  0.33431038283E+03  0.00000000000E+00 0. -1.
         -4   -1    0    0    0  501 -0.00000000000E+00 -0.00000000000E+00 -0.15378893457E+03  0.15378893457E+03  0.00000000000E+00 0.  1.
         25    2    1    2    0    0 -0.23965709152E+02  0.16213121047E+03  0.21445609484E+03  0.29748919686E+03  0.12509005160E+03 0.  0.
          5    1    3    3  502    0  0.15589670843E+02 -0.13986381339E+02  0.45272248560E+02  0.50057023380E+02  0.41800000000E+01 0. -1.
         -5    1    3    3    0  502 -0.39555379995E+02  0.17611759181E+03  0.16918384628E+03  0.24743217348E+03  0.41800000000E+01 0. -1.
        -11    1    1    2    0    0  0.12179049901E+02 -0.34512097588E+02  0.30058622909E+02  0.47359634158E+02  0.00000000000E+00 0. -1.
         11    1    1    2    0    0  0.11786659251E+02 -0.12761911288E+03 -0.63993269486E+02  0.14325048638E+03  0.00000000000E+00 0.  1.
</event>
<event>
 7    1  0.2686828E-009  0.1129177E+03  0.7561462E-02  0.1255260E+00
         -1   -1    0    0    0  501 -0.00000000000E+00  0.00000000000E+00  0.11030678687E+03  0.11030678687E+03  0.00000000000E+00 0.  1.
          1   -1    0    0  501    0  0.00000000000E+00 -0.00000000000E+00 -0.20040597832E+03  0.20040597832E+03  0.00000000000E+00 0. -1.
         25    2    1    2    0    0 -0.46805942328E+02 -0.71167697898E+02 -0.10138672422E+03  0.18215952362E+03  0.12508871547E+03 0.  0.
          5    1    3    3  502    0 -0.68617027912E+02 -0.28505600987E+02 -0.51797088250E+01  0.74600050876E+02  0.41800000000E+01 0. -1.
         -5    1    3    3    0  502  0.21811085584E+02 -0.42662096911E+02 -0.96207015391E+02  0.10755947275E+03  0.41800000000E+01 0. -1.
        -11    1    1    2    0    0  0.54532366009E+02  0.31646780013E+02  0.43822333089E+02  0.76783425979E+02  0.00000000000E+00 0.  1.
         11    1    1    2    0    0 -0.77264236808E+01  0.39520917885E+02 -0.32534800329E+02  0.51769815586E+02  0.00000000000E+00 0. -1.
</event>
<event>
 7    1  0.2686828E-009  0.9770920E+02  0.7561462E-02  0.1285188E+00
          1   -1    0    0  501    0  0.00000000000E+00  0.00000000000E+00  0.68685846822E+03  0.68685846822E+03  0.00000000000E+00 0. -1.
         -1   -1    0    0    0  501 -0.00000000000E+00 -0.00000000000E+00 -0.71676950265E+02  0.71676950265E+02  0.00000000000E+00 0.  1.
         25    2    1    2    0    0  0.49431574631E+02 -0.66335596312E+02  0.61747966847E+03  0.63543105648E+03  0.12509034600E+03 0.  0.
          5    1    3    3  502    0 -0.10737087668E+02 -0.16464150117E+02  0.91372624428E+01  0.22075218133E+02  0.41800000000E+01 0. -1.
         -5    1    3    3    0  502  0.60168662298E+02 -0.49871446195E+02  0.60834240603E+03  0.61335583835E+03  0.41800000000E+01 0. -1.
        -11    1    1    2    0    0  0.11497714491E+00  0.41750038961E+02  0.36570419989E+02  0.55502023307E+02  0.00000000000E+00 0. -1.
         11    1    1    2    0    0 -0.49546551776E+02  0.24585557351E+02 -0.38868570508E+02  0.67602338691E+02  0.00000000000E+00 0.  1.
</event>
<event>
 7    1  0.2686828E-009  0.1098333E+03  0.7561462E-02  0.1260879E+00
          2   -1    0    0  501    0  0.00000000000E+00  0.00000000000E+00  0.56194073391E+03  0.56194073391E+03  0.00000000000E+00 0. -1.
         -2   -1    0    0    0  501 -0.00000000000E+00 -0.00000000000E+00 -0.27484642876E+02  0.27484642876E+02  0.00000000000E+00 0.  1.
         25    2    1    2    0    0  0.37471004715E+02 -0.39982907142E+01  0.18638165266E+03  0.22761689931E+03  0.12510503539E+03 0.  0.
          5    1    3    3  502    0 -0.84567710660E+01  0.54343246410E+02  0.64810458346E+02  0.85103309678E+02  0.41800000000E+01 0.  1.
         -5    1    3    3    0  502  0.45927775781E+02 -0.58341537124E+02  0.12157119431E+03  0.14251358963E+03  0.41800000000E+01 0.  1.
        -11    1    1    2    0    0 -0.36596020441E+02 -0.35293174182E+02  0.11928456694E+03  0.12966759335E+03  0.00000000000E+00 0.  1.
         11    1    1    2    0    0 -0.87498427353E+00  0.39291464896E+02  0.22878987143E+03  0.23214088412E+03  0.00000000000E+00 0. -1.
</event>
<event>
 7    1  0.2686828E-009  0.1021454E+03  0.7561462E-02  0.1275848E+00
          2   -1    0    0  501    0  0.00000000000E+00  0.00000000000E+00  0.32536181200E+03  0.32536181200E+03  0.00000000000E+00 0. -1.
         -2   -1    0    0    0  501 -0.00000000000E+00 -0.00000000000E+00 -0.85384590470E+02  0.85384590470E+02  0.00000000000E+00 0.  1.
         25    2    1    2    0    0 -0.31910839192E+02  0.59381628925E+02 -0.35327290485E+01  0.14213821421E+03  0.12508521996E+03 0.  0.
          5    1    3    3  502    0  0.34386874671E+02 -0.14362388786E+02  0.16358542380E+02  0.40912219081E+02  0.41800000000E+01 0. -1.
         -5    1    3    3    0  502 -0.66297713863E+02  0.73744017711E+02 -0.19891271428E+02  0.10122599513E+03  0.41800000000E+01 0. -1.
        -11    1    1    2    0    0  0.90677806749E+01 -0.13169898392E+02 -0.34229577811E+01  0.16351987953E+02  0.00000000000E+00 0.  1.
         11    1    1    2    0    0  0.22843058517E+02 -0.46211730533E+02  0.24693290836E+03  0.25225620031E+03  0.00000000000E+00 0. -1.
</event>
<event>
 7    1  0.2686828E-009  0.1330911E+03  0.7561462E-02  0.1222940E+00
         -1   -1    0    0    0  501 -0.00000000000E+00  0.00000000000E+00  0.12370322273E+04  0.12370322273E+04  0.00000000000E+00 0.  1.
          1   -1    0    0  501    0  0.00000000000E+00 -0.00000000000E+00 -0.17025446287E+02  0.17025446287E+02  0.00000000000E+00 0. -1.
         25    2    1    2    0    0 -0.68779310784E+02 -0.61959936752E+02  0.73681901829E+03  0.75307380892E+03  0.12509303983E+03 0.  0.
          5    1    3    3  502    0  0.32371011420E+02 -0.38971178522E+02  0.28329863428E+03  0.28782325083E+03  0.41800000000E+01 0.  1.
         -5    1    3    3    0  502 -0.10115032220E+03 -0.22988758230E+02  0.45352038401E+03  0.46525055809E+03  0.41800000000E+01 0.  1.
        -11    1    1    2    0    0  0.65819124957E+02  0.19047715315E+02  0.41313941174E+03  0.41878293447E+03  0.00000000000E+00 0.  1.
         11    1    1    2    0    0  0.29601858271E+01  0.42912221437E+02  0.70048350933E+02  0.82200930148E+02  0.00000000000E+00 0. -1.
</event>
<event>
 7    1  0.2686828E-009  0.1094712E+03  0.7561462E-02  0.1261552E+00
          3   -1    0    0  501    0  0.00000000000E+00  0.00000000000E+00  0.88043369861E+03  0.88043369861E+03  0.00000000000E+00 0. -1.
         -3   -1    0    0    0  501 -0.00000000000E+00 -0.00000000000E+00 -0.14884589628E+02  0.14884589628E+02  0.00000000000E+00 0.  1.
         25    2    1    2    0    0  0.20918896588E+02  0.27853153669E+02  0.42166992559E+03  0.44121012886E+03  0.12508978079E+03 0.  0.
          5    1    3    3  502    0 -0.42752918236E+02  0.40556641807E+02  0.13691048867E+03  0.14911273427E+03  0.41800000000E+01 0.  1.
         -5    1    3    3    0  502  0.63671814823E+02 -0.12703488138E+02  0.28475943692E+03  0.29209739459E+03  0.41800000000E+01 0.  1.
        -11    1    1    2    0    0 -0.29404414967E+02 -0.57167364683E+02  0.26811706737E+03  0.27571631982E+03  0.00000000000E+00 0. -1.
         11    1    1    2    0    0  0.84855183789E+01  0.29314211015E+02  0.17576211603E+03  0.17839183956E+03  0.00000000000E+00 0.  1.
</event>
<event>
 7    1  0.2686828E-009  0.1654251E+03  0.7561462E-02  0.1182704E+00
          2   -1    0    0  501    0  0.00000000000E+00  0.00000000000E+00  0.54456089079E+03  0.54456089079E+03  0.00000000000E+00 0. -1.
         -2   -1    0    0    0  501 -0.00000000000E+00 -0.00000000000E+00 -0.59818879487E+02  0.59818879487E+02  0.00000000000E+00 0.  1.
         25    2    1    2    0    0 -0.14044906377E+03  0.37244685958E+02  0.22709887689E+03  0.29721146040E+03  0.12509055185E+03 0.  0.
          5    1    3    3  502    0 -0.14586348253E+03  0.48133936093E+02  0.23597003346E+03  0.28158899203E+03  0.41800000000E+01 0. -1.
         -5    1    3    3    0  502  0.54144187570E+01 -0.10889250136E+02 -0.88711565753E+01  0.15622468370E+02  0.41800000000E+01 0. -1.
        -11    1    1    2    0    0  0.11809783409E+03 -0.59975836089E+02  0.18212419538E+03  0.22519640733E+03  0.00000000000E+00 0.  1.
         11    1    1    2    0    0  0.22351229682E+02  0.22731150131E+02  0.75518939035E+02  0.81971902550E+02  0.00000000000E+00 0. -1.
</event>
<event>
 7    1  0.2686828E-009  0.9325557E+02  0.7561462E-02  0.1295154E+00
         -1   -1    0    0    0  501 -0.00000000000E+00  0.00000000000E+00  0.46558973942E+02  0.46558973942E+02  0.00000000000E+00 0.  1.
          1   -1    0    0  501    0  0.00000000000E+00 -0.00000000000E+00 -0.38817701894E+03  0.38817701894E+03  0.00000000000E+00 0. -1.
         25    2    1    2    0    0 -0.16154312261E+02 -0.66040142688E+02 -0.12117497471E+03  0.18696048461E+03  0.12509430867E+03 0.  0.
          5    1    3    3  502    0 -0.18529831174E+02 -0.71042448465E+02 -0.14476446483E+03  0.16237181654E+03  0.41800000000E+01 0.  1.
         -5    1    3    3    0  502  0.23755189138E+01  0.50023057777E+01  0.23589490129E+02  0.24588668076E+02  0.41800000000E+01 0.  1.
        -11    1    1    2    0    0  0.48403881925E+02  0.51444262877E+02 -0.18342720579E+03  0.19655784847E+03  0.00000000000E+00 0. -1.
         11    1    1    2    0    0 -0.32249569665E+02  0.14595879811E+02 -0.37015864501E+02  0.51217659804E+02  0.00000000000E+00 0.  1.
</event>
<event>
 7    1  0.2686828E-009  0.1533392E+03  0.7561462E-02  0.1196429E+00
          2   -1    0    0  501    0  0.00000000000E+00  0.00000000000E+00  0.95026458385E+03  0.95026458385E+03  0.00000000000E+00 0. -1.
         -2   -1    0    0    0  501 -0.00000000000E+00 -0.00000000000E+00 -0.30393205213E+02  0.30393205213E+02  0.00000000000E+00 0.  1.
         25    2    1    2    0    0  0.22330456885E+02 -0.12005676858E+03  0.62251268641E+03  0.64659237214E+03  0.12508946388E+03 0.  0.
          5    1    3    3  502    0  0.48517729143E+02  0.18206517437E+01  0.14084105077E+03  0.14903341503E+03  0.41800000000E+01 0. -1.
         -5    1    3    3    0  502 -0.26187272258E+02 -0.12187742032E+03  0.48167163564E+03  0.49755895710E+03  0.41800000000E+01 0. -1.
        -11    1    1    2    0    0 -0.77740024524E+01  0.11830058642E+03  0.29656242302E+03  0.31938180068E+03  0.00000000000E+00 0. -1.
         11    1    1    2    0    0 -0.14556454432E+02  0.17561821562E+01  0.79626921229E+00  0.14683616246E+02  0.00000000000E+00 0.  1.
</event>
<event>
 7    1  0.2686828E-009  0.9294306E+02  0.7561462E-02  0.1295877E+00
         -2   -1    0    0    0  501 -0.00000000000E+00  0.00000000000E+00  0.55296077548E+02  0.55296077548E+02  0.00000000000E+00 0. -1.
          2   -1    0    0  501    0  0.00000000000E+00 -0.00000000000E+00 -0.89989652140E+03  0.89989652140E+03  0.00000000000E+00 0.  1.
         25    2    1    2    0    0  0.32702006948E+02 -0.27643695589E+02 -0.84367159150E+03  0.85396892247E+03  0.12509025174E+03 0.  0.
          5    1    3    3  502    0 -0.25024940575E+02 -0.52539064095E+02 -0.57760300037E+03  0.58054224596E+03  0.41800000000E+01 0.  1.
         -5    1    3    3    0  502  0.57726947523E+02  0.24895368506E+02 -0.26606859113E+03  0.27342667652E+03  0.41800000000E+01 0.  1.
        -11    1    1    2    0    0 -0.41143813023E+02  0.34474068785E+02  0.34739938272E+02  0.63938549247E+02  0.00000000000E+00 0. -1.
         11    1    1    2    0    0  0.84418060750E+01 -0.68303731964E+01 -0.35668790622E+02  0.37285127226E+02  0.00000000000E+00 0.  1.
</event>
<event>
 7    1  0.2686828E-009  0.1356974E+03  0.7561462E-02  0.1219239E+00
         -2   -1    0    0    0  501 -0.00000000000E+00  0.00000000000E+00  0.10931857939E+03  0.10931857939E+03  0.00000000000E+00 0.  1.
          2   -1    0    0  501    0  0.00000000000E+00 -0.00000000000E+00 -0.18553558733E+03  0.18553558733E+03  0.00000000000E+00 0. -1.
         25    2    1    2    0    0 -0.15144727177E+02 -0.75388811503E+02 -0.22067219421E+01  0.14685002985E+03  0.12508887234E+03 0.  0.
          5    1    3    3  502    0 -0.21487921875E+02 -0.10805472313E+03  0.11018350459E+02  0.11079905425E+03  0.41800000000E+01 0. -1.
         -5    1    3    3    0  502  0.63431946980E+01  0.32665911624E+02 -0.13225072401E+02  0.36050975593E+02  0.41800000000E+01 0. -1.
        -11    1    1    2    0    0 -0.27276629904E+02  0.80390658649E+02 -0.42584720740E+02  0.94974370108E+02  0.00000000000E+00 0. -1.
         11    1    1    2    0    0  0.42421357081E+02 -0.50018471457E+01 -0.31425565262E+02  0.53029766768E+02  0.00000000000E+00 0.  1.
</event>
<event>
 7    1  0.2686828E-009  0.1553804E+03  0.7561462E-02  0.1194013E+00
         -2   -1    0    0    0  501 -0.00000000000E+00  0.00000000000E+00  0.23773067242E+02  0.23773067242E+02  0.00000000000E+00 0.  1.
          2   -1    0    0  501    0  0.00000000000E+00 -0.00000000000E+00 -0.13852089428E+04  0.13852089428E+04  0.00000000000E+00 0. -1.
         25    2    1    2    0    0 -0.10276614991E+03  0.91314466641E+02 -0.92172290520E+03  0.94027660626E+03  0.12509104252E+03 0.  0.
          5    1    3    3  502    0 -0.40839700173E+02  0.10190481111E+03 -0.40159258713E+03  0.41634907239E+03  0.41800000000E+01 0. -1.
         -5    1    3    3    0  502 -0.61926449732E+02 -0.10590344472E+02 -0.52013031807E+03  0.52392753387E+03  0.41800000000E+01 0. -1.
        -11    1    1    2    0    0  0.73451357617E+02 -0.58253793390E+02 -0.39450372446E+03  0.40548957446E+03  0.00000000000E+00 0. -1.
         11    1    1    2    0    0  0.29314792288E+02 -0.33060673251E+02 -0.45209245886E+02  0.63215829317E+02  0.00000000000E+00 0.  1.
</event>
<event>
 7    1  0.2686828E-009  0.1165884E+03  0.7561462E-02  0.1248834E+00
         -2   -1    0    0    0  501 -0.00000000000E+00  0.00000000000E+00  0.10031909163E+03  0.10031909163E+03  0.00000000000E+00 0.  1.
          2   -1    0    0  501    0  0.00000000000E+00 -0.00000000000E+00 -0.37045316302E+03  0.37045316302E+03  0.00000000000E+00 0. -1.
         25    2    1    2    0    0 -0.10879670151E+02 -0.59104031929E+02  0.38342180527E+02  0.14397652486E+03  0.12508982009E+03 0.  0.
          5    1    3    3  502    0  0.52482860776E+02 -0.35685640382E+02 -0.46863657683E+01  0.63775779327E+02  0.41800000000E+01 0. -1.
         -5    1    3    3    0  502 -0.63362530926E+02 -0.23418391547E+02  0.43028546295E+02  0.80200745534E+02  0.41800000000E+01 0. -1.
        -11    1    1    2    0    0  0.28482415055E+02 -0.10302653363E+02 -0.14802717804E+03  0.15109413645E+03  0.00000000000E+00 0. -1.
         11    1    1    2    0    0 -0.17602744904E+02  0.69406685292E+02 -0.16044907388E+03  0.17570159334E+03  0.00000000000E+00 0.  1.
</event>
<event>
 7    1  0.2686828E-009  0.8697829E+02  0.7561462E-02  0.1310339E+00
         -2   -1    0    0    0  501 -0.00000000000E+00  0.00000000000E+00  0.26312685378E+02  0.26312685378E+02  0.00000000000E+00 0.  1.
          2   -1    0    0  501    0  0.00000000000E+00 -0.00000000000E+00 -0.46334670400E+03  0.46334670400E+03  0.00000000000E+00 0. -1.
         25    2    1    2    0    0 -0.18065635144E+02 -0.11572710225E+02 -0.23665341438E+03  0.26854095665E+03  0.12509641108E+03 0.  0.
          5    1    3    3  502    0 -0.56984626182E+02  0.23914144931E+00 -0.45436497952E+02  0.73001729815E+02  0.41800000000E+01 0. -1.
         -5    1    3    3    0  502  0.38918991038E+02 -0.11811851675E+02 -0.19121691643E+03  0.19553922684E+03  0.41800000000E+01 0. -1.
        -11    1    1    2    0    0 -0.20874983303E+02  0.26929449057E+02 -0.29134639994E+02  0.44830652482E+02  0.00000000000E+00 0.  1.
         11    1    1    2    0    0  0.38940618447E+02 -0.15356738831E+02 -0.17124596425E+03  0.17628778025E+03  0.00000000000E+00 0. -1.
</event>
<event>
 7    1  0.2686828E-009  0.8636070E+02  0.7561462E-02  0.1311912E+00
         -2   -1    0    0    0  501 -0.00000000000E+00  0.00000000000E+00  0.88687849962E+03  0.88687849962E+03  0.00000000000E+00 0. -1.
          2   -1    0    0  501    0  0.00000000000E+00 -0.00000000000E+00 -0.14924890701E+02  0.14924890701E+02  0.00000000000E+00 0.  1.
         25    2    1    2    0    0  0.33345566414E+02 -0.16250343871E+01  0.56517914841E+03  0.57981907193E+03  0.12509244118E+03 0.  0.
          5    1    3    3  502    0  0.38444135166E+02 -0.41471130933E+02  0.49955291118E+03  0.50276076786E+03  0.41800000000E+01 0.  1.
         -5    1    3    3    0  502 -0.50985687524E+01  0.39846096545E+02  0.65626237229E+02  0.77058304069E+02  0.41800000000E+01 0.  1.
        -11    1    1    2    0    0  0.15886487629E+02  0.17753358098E+02  0.21649593855E+02  0.32191103228E+02  0.00000000000E+00 0. -1.
         11    1    1    2    0    0 -0.49232054043E+02 -0.16128323711E+02  0.28512486665E+03  0.28979321516E+03  0.00000000000E+00 0.  1.
</event>
<event>
 7    1  0.2686828E-009  0.8870324E+02  0.7561462E-02  0.1306023E+00
          2   -1    0    0  501    0  0.00000000000E+00  0.00000000000E+00  0.67429496543E+03  0.67429496543E+03  0.00000000000E+00 0. -1.
         -2   -1    0    0    0  501 -0.00000000000E+00 -0.00000000000E+00 -0.23935989174E+02  0.23935989174E+02  0.00000000000E+00 0.  1.
         25    2    1    2    0    0  0.64910292810E+02  0.16061935641E+02  0.35529108718E+03  0.38255949663E+03  0.12509468389E+03 0.  0.
          5    1    3    3  502    0  0.78833078243E+02  0.61486926490E+01  0.35624459166E+03  0.36493854570E+03  0.41800000000E+01 0. -1.
         -5    1    3    3    0  502 -0.13922785434E+02  0.99132429921E+01 -0.95350447918E+00  0.17620950929E+02  0.41800000000E+01 0. -1.
        -11    1    1    2    0    0 -0.12035294430E+02 -0.24298491855E+02  0.15926576092E+02  0.31447111862E+02  0.00000000000E+00 0.  1.
         11    1    1    2    0    0 -0.52874998380E+02  0.82365562140E+01  0.27914131298E+03  0.28422434611E+03  0.00000000000E+00 0. -1.
</event>
<event>
 7    1  0.3650840E-009  0.1026179E+03  0.7561462E-02  0.1274885E+00
         -1   -1    0    0    0  501 -0.00000000000E+00  0.00000000000E+00  0.31957618050E+02  0.31957618050E+02  0.00000000000E+00 0.  1.
          1   -1    0    0  501    0  0.00000000000E+00 -0.00000000000E+00 -0.56310991613E+03  0.56310991613E+03  0.00000000000E+00 0. -1.
         25    2    1    2    0    0  0.77321918875E+02  0.17134173447E+01 -0.32455181457E+03  0.35631905462E+03  0.12509106045E+03 0.  0.
          5    1    3    3  502    0  0.43279954041E+00 -0.39943640651E+02 -0.33236487740E+02  0.52132698579E+02  0.41800000000E+01 0. -1.
         -5    1    3    3    0  502  0.76889119335E+02  0.41657057995E+02 -0.29131532683E+03  0.30418635604E+03  0.41800000000E+01 0. -1.
        -11    1    1    2    0    0 -0.44491014878E+02 -0.36130933493E+01 -0.20036467987E+03  0.20527666644E+03  0.00000000000E+00 0. -1.
         11    1    1    2    0    0 -0.32830903998E+02  0.18996760046E+01 -0.62358036397E+01  0.33471813116E+02  0.00000000000E+00 0.  1.
</event>
<event>
 7    1  0.3379015E-009  0.5633482E+02  0.7561462E-02  0.1413890E+00
         -3   -1    0    0    0  501 -0.00000000000E+00  0.00000000000E+00  0.21064197345E+03  0.21064197345E+03  0.00000000000E+00 0.  1.
          3   -1    0    0  501    0  0.00000000000E+00 -0.00000000000E+00 -0.61673403314E+02  0.61673403314E+02  0.00000000000E+00 0. -1.
         25    2    1    2    0    0  0.26655000606E+02 -0.46737693216E+01  0.11189565302E+03  0.17000244830E+03  0.12509141491E+03 0.  0.
          5    1    3    3  502    0  0.21865947143E+02  0.78160785979E+01  0.13819899756E+03  0.14019859506E+03  0.41800000000E+01 0. -1.
         -5    1    3    3    0  502  0.47890534634E+01 -0.12489847920E+02 -0.26303344537E+02  0.29803853240E+02  0.41800000000E+01 0. -1.
        -11    1    1    2    0    0 -0.50720140182E+02  0.11002188362E+01  0.52895158512E+02  0.73291479011E+02  0.00000000000E+00 0.  1.
         11    1    1    2    0    0  0.24065139576E+02  0.35735504855E+01 -0.15822241397E+02  0.29021449459E+02  0.00000000000E+00 0. -1.
</event>
<event>
 7    1  0.2686828E-009  0.1359348E+03  0.7561462E-02  0.1218906E+00
         -1   -1    0    0    0  501 -0.00000000000E+00  0.00000000000E+00  0.46160099150E+02  0.46160099150E+02  0.00000000000E+00 0.  1.
          1   -1    0    0  501    0  0.00000000000E+00 -0.00000000000E+00 -0.51947493271E+03  0.51947493271E+03  0.00000000000E+00 0. -1.
         25    2    1    2    0    0 -0.14437089220E+02  0.10440261867E+03 -0.19500372070E+03  0.25452361701E+03  0.12508990447E+03 0.  0.
          5    1    3    3  502    0  0.30195033468E+02  0.12658797077E+01 -0.12939928580E+01  0.30536688018E+02  0.41800000000E+01 0.  1.
         -5    1    3    3    0  502 -0.44632122688E+02  0.10313673896E+03 -0.19370972784E+03  0.22398692900E+03  0.41800000000E+01 0.  1.
        -11    1    1    2    0    0  0.20672768353E+02  0.33736830313E+01 -0.12938375624E+02  0.24620045742E+02  0.00000000000E+00 0.  1.
         11    1    1    2    0    0 -0.62356791329E+01 -0.10777630170E+03 -0.26537273723E+03  0.28649136910E+03  0.00000000000E+00 0. -1.
</event>
<event>
 7    1  0.2686828E-009  0.1221130E+03  0.7561462E-02  0.1239651E+00
          1   -1    0    0  501    0  0.00000000000E+00  0.00000000000E+00  0.55830652006E+03  0.55830652006E+03  0.00000000000E+00 0. -1.
         -1   -1    0    0    0  501 -0.00000000000E+00 -0.00000000000E+00 -0.41271194914E+02  0.41271194914E+02  0.00000000000E+00 0.  1.
         25    2    1    2    0    0 -0.67503259718E+02 -0.79962302693E+02  0.26657006895E+03  0.31250153703E+03  0.12508776543E+03 0.  0.
          5    1    3    3  502    0 -0.29381696459E+02 -0.74607222768E+02  0.26137818533E+03  0.27343289843E+03  0.41800000000E+01 0.  1.
         -5    1    3    3    0  502 -0.38121563259E+02 -0.53550799250E+01  0.51918836170E+01  0.39068638597E+02  0.41800000000E+01 0.  1.
        -11    1    1    2    0    0  0.72533411654E+02  0.36026135811E+02  0.92058237192E+02  0.12261197863E+03  0.00000000000E+00 0.  1.
         11    1    1    2    0    0 -0.50301519367E+01  0.43936166883E+02  0.15840701901E+03  0.16446419933E+03  0.00000000000E+00 0. -1.
</event>
<event>
 7    1  0.2686828E-009  0.1393495E+03  0.7561462E-02  0.1214207E+00
         -2   -1    0    0    0  501 -0.00000000000E+00  0.00000000000E+00  0.52548986957E+02  0.52548986957E+02  0.00000000000E+00 0. -1.
          2   -1    0    0  501    0  0.00000000000E+00 -0.00000000000E+00 -0.48302649040E+03  0.48302649040E+03  0.00000000000E+00 0.  1.
         25    2    1    2    0    0 -0.10490602777E+03 -0.26536646914E+02 -0.30686595646E+03  0.34860279974E+03  0.12509088080E+03 0.  0.
          5    1    3    3  502    0 -0.99945784972E+02  0.33120392460E+02 -0.19797487864E+03  0.22427136532E+03  0.41800000000E+01 0.  1.
         -5    1    3    3    0  502 -0.49602427955E+01 -0.59657039374E+02 -0.10889107782E+03  0.12433143442E+03  0.41800000000E+01 0.  1.
        -11    1    1    2    0    0  0.97346815889E+02  0.33588918346E+02 -0.13615842418E+03  0.17071536098E+03  0.00000000000E+00 0.  1.
         11    1    1    2    0    0  0.75592118782E+01 -0.70522714323E+01  0.12546877202E+02  0.16257316633E+02  0.00000000000E+00 0. -1.
</event>
<event>
 7    1  0.2686828E-009  0.1176864E+03  0.7561462E-02  0.1246963E+00
         -2   -1    0    0    0  501 -0.00000000000E+00  0.00000000000E+00  0.20124543923E+03  0.20124543923E+03  0.00000000000E+00 0.  1.
          2   -1    0    0  501    0  0.00000000000E+00 -0.00000000000E+00 -0.10032678506E+03  0.10032678506E+03  0.00000000000E+00 0. -1.
         25    2    1    2    0    0 -0.23054841933E+01 -0.86734501612E+02  0.70982726991E+02  0.16796984653E+03  0.12508849981E+03 0.  0.
          5    1    3    3  502    0  0.44761576716E+02 -0.18154956539E+02  0.69417749003E+02  0.84672885115E+02  0.41800000000E+01 0. -1.
         -5    1    3    3    0  502 -0.47067060909E+02 -0.68579545073E+02  0.15649779887E+01  0.83296961416E+02  0.41800000000E+01 0. -1.
        -11    1    1    2    0    0  0.27378466628E+02  0.25403448225E+02  0.51772890332E+02  0.63838450717E+02  0.00000000000E+00 0.  1.
         11    1    1    2    0    0 -0.25072982435E+02  0.61331053388E+02 -0.21836963154E+02  0.69763927051E+02  0.00000000000E+00 0. -1.
</event>
<event>
 7    1  0.2686828E-009  0.9937375E+02  0.7561462E-02  0.1281618E+00
         -2   -1    0    0    0  501 -0.00000000000E+00  0.00000000000E+00  0.10203524062E+03  0.10203524062E+03  0.00000000000E+00 0.  1.
          2   -1    0    0  501    0  0.00000000000E+00 -0.00000000000E+00 -0.15443118652E+03  0.15443118652E+03  0.00000000000E+00 0. -1.
         25    2    1    2    0    0 -0.29900536388E+02 -0.34418694316E+02  0.14588496585E+02  0.13393601802E+03  0.12508934445E+03 0.  0.
          5    1    3    3  502    0 -0.47534622981E+02  0.29656525911E+02  0.32597729162E+02  0.64954863233E+02  0.41800000000E+01 0.  1.
         -5    1    3    3    0  502  0.17634086594E+02 -0.64075220227E+02 -0.18009232577E+02  0.68981154782E+02  0.41800000000E+01 0.  1.
        -11    1    1    2    0    0 -0.15115942098E+02  0.26152408626E+02  0.10966666013E+02  0.32135773616E+02  0.00000000000E+00 0.  1.
         11    1    1    2    0    0  0.45016478486E+02  0.82662856900E+01 -0.77951108492E+02  0.90394635513E+02  0.00000000000E+00 0. -1.
</event>
<event>
 7    1  0.2686828E-009  0.1113627E+03  0.7561462E-02  0.1258067E+00
          1   -1    0    0  501    0  0.00000000000E+00  0.00000000000E+00  0.86529087631E+03  0.86529087631E+03  0.00000000000E+00 0. -1.
         -1   -1    0    0    0  501 -0.00000000000E+00 -0.00000000000E+00 -0.15650650273E+02  0.15650650273E+02  0.00000000000E+00 0.  1.
         25    2    1    2    0    0 -0.21332463230E+02  0.24989122077E+02  0.37625500155E+03  0.39786284423E+03  0.12508991334E+03 0.  0.
          5    1    3    3  502    0  0.88630617958E+01  0.70766109635E+02  0.25301637327E+03  0.26290902168E+03  0.41800000000E+01 0. -1.
         -5    1    3    3    0  502 -0.30195525026E+02 -0.45776987558E+02  0.12323862828E+03  0.13495382255E+03  0.41800000000E+01 0. -1.
        -11    1    1    2    0    0  0.54881381989E+02 -0.73191681947E+00  0.27149180508E+03  0.27698429922E+03  0.00000000000E+00 0.  1.
         11    1    1    2    0    0 -0.33548918758E+02 -0.24257205257E+02  0.20189341941E+03  0.20609438313E+03  0.00000000000E+00 0. -1.
</event>
<event>
 7    1  0.2686828E-009  0.1227950E+03  0.7561462E-02  0.1238556E+00
          3   -1    0    0  501    0  0.00000000000E+00  0.00000000000E+00  0.58833451016E+03  0.58833451016E+03  0.00000000000E+00 0. -1.
         -3   -1    0    0    0  501 -0.00000000000E+00 -0.00000000000E+00 -0.36096514215E+02  0.36096514215E+02  0.00000000000E+00 0.  1.
         25    2    1    2    0    0  0.30830704816E+02 -0.61402907444E+02  0.44350905289E+03  0.46590567652E+03  0.12508784922E+03 0.  0.
          5    1    3    3  502    0  0.68585470771E+02 -0.72390043419E+02  0.26760677175E+03  0.28561362340E+03  0.41800000000E+01 0. -1.
         -5    1    3    3    0  502 -0.37754765954E+02  0.10987135975E+02  0.17590228114E+03  0.18029205312E+03  0.41800000000E+01 0. -1.
        -11    1    1    2    0    0 -0.58763937174E+02  0.41636104100E+02  0.41581798865E+02  0.83161358056E+02  0.00000000000E+00 0.  1.
         11    1    1    2    0    0  0.27933232358E+02  0.19766803344E+02  0.67147144190E+02  0.75363989792E+02  0.00000000000E+00 0. -1.
</event>
<event>
 7    1  0.2686828E-009  0.1101008E+03  0.7561462E-02  0.1260383E+00
          2   -1    0    0  501    0  0.00000000000E+00  0.00000000000E+00  0.39280709774E+02  0.39280709774E+02  0.00000000000E+00 0. -1.
         -2   -1    0    0    0  501 -0.00000000000E+00 -0.00000000000E+00 -0.41408480442E+03  0.41408480442E+03  0.00000000000E+00 0.  1.
         25    2    1    2    0    0 -0.27599375221E+02  0.11557042601E+02 -0.10206506000E+03  0.16419548655E+03  0.12509032971E+03 0.  0.
          5    1    3    3  502    0  0.13286164133E+02 -0.49020947163E+02 -0.21417491512E+02  0.55278899779E+02  0.41800000000E+01 0. -1.
         -5    1    3    3    0  502 -0.40885539353E+02  0.60577989764E+02 -0.80647568485E+02  0.10891658677E+03  0.41800000000E+01 0. -1.
        -11    1    1    2    0    0 -0.19854285446E+02 -0.37149034569E+02 -0.11498762662E+03  0.12245977991E+03  0.00000000000E+00 0. -1.
         11    1    1    2    0    0  0.47453660667E+02  0.25591991968E+02 -0.15775140803E+03  0.16671024774E+03  0.00000000000E+00 0.  1.
</event>
<event>
 7    1  0.2686828E-009  0.7011757E+02  0.7561462E-02  0.1359694E+00
         -2   -1    0    0    0  501 -0.00000000000E+00  0.00000000000E+00  0.43739167657E+02  0.43739167657E+02  0.00000000000E+00 0.  1.
          2   -1    0    0  501    0  0.00000000000E+00 -0.00000000000E+00 -0.52501405211E+03  0.52501405211E+03  0.00000000000E+00 0. -1.
         25    2    1    2    0    0  0.36124135146E+02 -0.75455884048E+01 -0.44827115581E+03  0.46685703273E+03  0.12508625357E+03 0.  0.
          5    1    3    3  502    0  0.13356918700E+02  0.10804604756E+02 -0.67621117429E-01  0.17681168901E+02  0.41800000000E+01 0. -1.
         -5    1    3    3    0  502  0.22767216446E+02 -0.18350193161E+02 -0.44820353470E+03  0.44917586383E+03  0.41800000000E+01 0. -1.
        -11    1    1    2    0    0 -0.43231165165E+02  0.40538972287E+02 -0.33626710166E+02  0.68140278487E+02  0.00000000000E+00 0. -1.
         11    1    1    2    0    0  0.71070300191E+01 -0.32993383882E+02  0.62298153112E+00  0.33755908545E+02  0.00000000000E+00 0.  1.
</event>
<event>
 7    1  0.2686828E-009  0.1788006E+03  0.7561462E-02  0.1168969E+00
          2   -1    0    0  501    0  0.00000000000E+00  0.00000000000E+00  0.69916988075E+02  0.69916988075E+02  0.00000000000E+00 0. -1.
         -2   -1    0    0    0  501 -0.00000000000E+00 -0.00000000000E+00 -0.47776393493E+03  0.47776393493E+03  0.00000000000E+00 0.  1.
         25    2    1    2    0    0  0.22710240206E+02 -0.14270303569E+03 -0.17811540422E+03  0.26125276477E+03  0.12509196007E+03 0.  0.
          5    1    3    3  502    0  0.26959735087E+00 -0.15863938586E+03 -0.16930631134E+03  0.23205306912E+03  0.41800000000E+01 0.  1.
         -5    1    3    3    0  502  0.22440642855E+02  0.15936350175E+02 -0.88090928849E+01  0.29199695651E+02  0.41800000000E+01 0.  1.
        -11    1    1    2    0    0 -0.45543740227E+02  0.26605075169E+02 -0.70294090422E+02  0.87882429682E+02  0.00000000000E+00 0.  1.
         11    1    1    2    0    0  0.22833500021E+02  0.11609796052E+03 -0.15943745221E+03  0.19854572855E+03  0.00000000000E+00 0. -1.
</event>
<event>
 7    1  0.2686828E-009  0.8299172E+02  0.7561462E-02  0.1320770E+00
          3   -1    0    0  501    0  0.00000000000E+00  0.00000000000E+00  0.10632707966E+03  0.10632707966E+03  0.00000000000E+00 0. -1.
         -3   -1    0    0    0  501 -0.00000000000E+00 -0.00000000000E+00 -0.11915493409E+03  0.11915493409E+03  0.00000000000E+00 0.  1.
         25    2    1    2    0    0  0.50637020142E+01  0.17015685820E+02 -0.34361642172E+02  0.13092374160E+03  0.12508049016E+03 0.  0.
          5    1    3    3  502    0 -0.11055813300E+02  0.68437938370E+02 -0.32907248636E+02  0.76852728181E+02  0.41800000000E+01 0.  1.
         -5    1    3    3    0  502  0.16119515314E+02 -0.51422252551E+02 -0.14543935353E+01  0.54071013417E+02  0.41800000000E+01 0.  1.
        -11    1    1    2    0    0 -0.18139492036E+02 -0.21976438656E+02 -0.29872238259E+02  0.41283842432E+02  0.00000000000E+00 0.  1.
         11    1    1    2    0    0  0.13075790022E+02  0.49607528360E+01  0.51406026003E+02  0.53274429728E+02  0.00000000000E+00 0. -1.
</event>
<event>
 7    1  0.2686828E-009  0.8416856E+02  0.7561462E-02  0.1317621E+00
         -3   -1    0    0    0  501 -0.00000000000E+00  0.00000000000E+00  0.26723455854E+03  0.26723455854E+03  0.00000000000E+00 0.  1.
          3   -1    0    0  501    0  0.00000000000E+00 -0.00000000000E+00 -0.55178803323E+02  0.55178803323E+02  0.00000000000E+00 0. -1.
         25    2    1    2    0    0  0.22407718171E+02 -0.40422828414E+02  0.94310155873E+02  0.16333185693E+03  0.12508708605E+03 0.  0.
          5    1    3    3  502    0  0.30916391311E+02 -0.61845953811E+01  0.11695482107E+03  0.12120220725E+03  0.41800000000E+01 0. -1.
         -5    1    3    3    0  502 -0.85086731400E+01 -0.34238233033E+02 -0.22644665196E+02  0.42129649674E+02  0.41800000000E+01 0. -1.
        -11    1    1    2    0    0 -0.83755262818E+01 -0.28996848076E+02  0.13525441644E+02  0.33074222749E+02  0.00000000000E+00 0. -1.
         11    1    1    2    0    0 -0.14032191889E+02  0.69419676489E+02  0.10422015770E+03  0.12600728219E+03  0.00000000000E+00 0.  1.
</event>
<event>
 7    1  0.2686828E-009  0.1510552E+03  0.7561462E-02  0.1199182E+00
          2   -1    0    0  501    0  0.00000000000E+00  0.00000000000E+00  0.24580942255E+02  0.24580942255E+02  0.00000000000E+00 0.  1.
         -2   -1    0    0    0  501 -0.00000000000E+00 -0.00000000000E+00 -0.11030172958E+04  0.11030172958E+04  0.00000000000E+00 0. -1.
         25    2    1    2    0    0  0.11916816419E+03  0.26752906332E-01 -0.67637609423E+03  0.69809151822E+03  0.12508435112E+03 0.  0.
          5    1    3    3  502    0  0.45394390329E+02 -0.45426921434E+02 -0.13207392936E+03  0.14691919916E+03  0.41800000000E+01 0. -1.
         -5    1    3    3    0  502  0.73773773862E+02  0.45453674340E+02 -0.54430216487E+03  0.55117231907E+03  0.41800000000E+01 0. -1.
        -11    1    1    2    0    0 -0.65289435945E+02  0.46222099364E+02 -0.20629422432E+03  0.22126115770E+03  0.00000000000E+00 0. -1.
         11    1    1    2    0    0 -0.53878728246E+02 -0.46248852270E+02 -0.19576603499E+03  0.20824556214E+03  0.00000000000E+00 0.  1.
</event>
<event>
 7    1  0.2686828E-009  0.1116355E+03  0.7561462E-02  0.1257571E+00
          2   -1    0    0  501    0  0.00000000000E+00  0.00000000000E+00  0.20496425416E+03  0.20496425416E+03  0.00000000000E+00 0.  1.
         -2   -1    0    0    0  501 -0.00000000000E+00 -0.00000000000E+00 -0.16198583784E+03  0.16198583784E+03  0.00000000000E+00 0. -1.
         25    2    1    2    0    0 -0.73729569146E+02  0.11904052938E+02 -0.10368730893E+03  0.17881797987E+03  0.12508819309E+03 0.  0.
          5    1    3    3  502    0 -0.30224322394E+02 -0.39253902249E+02  0.60608780643E+01  0.50085777910E+02  0.41800000000E+01 0.  1.
         -5    1    3    3    0  502 -0.43505246752E+02  0.51157955188E+02 -0.10974818699E+03  0.12873220196E+03  0.41800000000E+01 0.  1.
        -11    1    1    2    0    0  0.45870863171E+02  0.30820354507E+02  0.11632620725E+03  0.12878593414E+03  0.00000000000E+00 0.  1.
         11    1    1    2    0    0  0.27858705975E+02 -0.42724407445E+02  0.30339518001E+02  0.59346177996E+02  0.00000000000E+00 0. -1.
</event>
<event>
 7    1  0.2686828E-009  0.1152769E+03  0.7561462E-02  0.1251099E+00
         -4   -1    0    0    0  501 -0.00000000000E+00  0.00000000000E+00  0.13542685569E+03  0.13542685569E+03  0.00000000000E+00 0.  1.
          4   -1    0    0  501    0  0.00000000000E+00 -0.00000000000E+00 -0.10656002892E+03  0.10656002892E+03  0.00000000000E+00 0. -1.
         25    2    1    2    0    0  0.45616892199E+02  0.24923341770E+02 -0.60016270741E+01  0.13559072309E+03  0.12508697311E+03 0.  0.
          5    1    3    3  502    0  0.54571133872E+02  0.67330967242E+02 -0.21461068041E+02  0.89384101737E+02  0.41800000000E+01 0.  1.
         -5    1    3    3    0  502 -0.89542416732E+01 -0.42407625473E+02  0.15459440967E+02  0.46206621357E+02  0.41800000000E+01 0.  1.
        -11    1    1    2    0    0  0.22197467681E+02 -0.23620362566E+02  0.15020936141E+02  0.35725027946E+02  0.00000000000E+00 0.  1.
         11    1    1    2    0    0 -0.67814359880E+02 -0.13029792040E+01  0.19847517703E+02  0.70671133567E+02  0.00000000000E+00 0. -1.
</event>
<event>
 7    1  0.2686828E-009  0.1114258E+03  0.7561462E-02  0.1257952E+00
         -1   -1    0    0    0  501 -0.00000000000E+00  0.00000000000E+00  0.28814936949E+02  0.28814936949E+02  0.00000000000E+00 0.  1.
          1   -1    0    0  501    0  0.00000000000E+00 -0.00000000000E+00 -0.59726142405E+03  0.59726142405E+03  0.00000000000E+00 0. -1.
         25    2    1    2    0    0 -0.22507108517E+02 -0.12982353743E+02 -0.47183335207E+03  0.48882455018E+03  0.12509043645E+03 0.  0.
          5    1    3    3  502    0 -0.74210852277E+02 -0.17449947278E+00 -0.27567816042E+03  0.28552268138E+03  0.41800000000E+01 0. -1.
         -5    1    3    3    0  502  0.51703743760E+02 -0.12807854270E+02 -0.19615519165E+03  0.20330186881E+03  0.41800000000E+01 0. -1.
        -11    1    1    2    0    0  0.50647958043E+02  0.33096096721E+02 -0.75407100622E+02  0.96678839962E+02  0.00000000000E+00 0. -1.
         11    1    1    2    0    0 -0.28140849527E+02 -0.20113742978E+02 -0.21206034407E+02  0.40572970854E+02  0.00000000000E+00 0.  1.
</event>
<event>
 7    1  0.2686828E-009  0.1597475E+03  0.7561462E-02  0.1188982E+00
         -2   -1    0    0    0  501 -0.00000000000E+00  0.00000000000E+00  0.20569808561E+02  0.20569808561E+02  0.00000000000E+00 0.  1.
          2   -1    0    0  501    0  0.00000000000E+00 -0.00000000000E+00 -0.18785292281E+04  0.18785292281E+04  0.00000000000E+00 0. -1.
         25    2    1    2    0    0  0.18069504145E+02 -0.12754112294E+03 -0.14352287294E+04  0.14464174727E+04  0.12509498287E+03 0.  0.
          5    1    3    3  502    0 -0.20656645460E+02  0.55572198508E+01 -0.54642939010E+03  0.54686390488E+03  0.41800000000E+01 0. -1.
         -5    1    3    3    0  502  0.38726149605E+02 -0.13309834279E+03 -0.88879933928E+03  0.89955356785E+03  0.41800000000E+01 0. -1.
        -11    1    1    2    0    0  0.26621153496E+01 -0.14869964777E+02 -0.72113348228E+02  0.73678610894E+02  0.00000000000E+00 0. -1.
         11    1    1    2    0    0 -0.20731619495E+02  0.14241108772E+03 -0.35061734192E+03  0.37900295303E+03  0.00000000000E+00 0.  1.
</event>
<event>
 7    1  0.2686828E-009  0.1199055E+03  0.7561462E-02  0.1243253E+00
          1   -1    0    0  501    0  0.00000000000E+00  0.00000000000E+00  0.70917021408E+03  0.70917021408E+03  0.00000000000E+00 0. -1.
         -1   -1    0    0    0  501 -0.00000000000E+00 -0.00000000000E+00 -0.26969334436E+02  0.26969334436E+02  0.00000000000E+00 0.  1.
         25    2    1    2    0    0  0.49901635466E+02 -0.22313996434E+02  0.54870842874E+03  0.56543545178E+03  0.12509285633E+03 0.  0.
          5    1    3    3  502    0  0.84064983775E+02 -0.44376468389E+02  0.36125542671E+03  0.37357616114E+03  0.41800000000E+01 0.  1.
         -5    1    3    3    0  502 -0.34163348309E+02  0.22062471955E+02  0.18745300203E+03  0.19185929064E+03  0.41800000000E+01 0.  1.
        -11    1    1    2    0    0  0.25461763477E+02  0.10988967419E+01  0.18102566557E+02  0.31260388503E+02  0.00000000000E+00 0.  1.
         11    1    1    2    0    0 -0.75363398943E+02  0.21215099693E+02  0.11538988435E+03  0.13944370823E+03  0.00000000000E+00 0. -1.
</event>
<event>
 7    1  0.2686828E-009  0.1161045E+03  0.7561462E-02  0.1249665E+00
         -2   -1    0    0    0  501 -0.00000000000E+00  0.00000000000E+00  0.18352318411E+03  0.18352318411E+03  0.00000000000E+00 0.  1.
          2   -1    0    0  501    0  0.00000000000E+00 -0.00000000000E+00 -0.86404131251E+02  0.86404131251E+02  0.00000000000E+00 0. -1.
         25    2    1    2    0    0  0.42776949591E+02  0.47548163775E+02  0.67041819521E+02  0.15567066935E+03  0.12509219175E+03 0.  0.
          5    1    3    3  502    0 -0.42889316140E+02  0.13719637034E+02  0.73011459635E+01  0.45809398727E+02  0.41800000000E+01 0. -1.
         -5    1    3    3    0  502  0.85666265731E+02  0.33828526741E+02  0.59740673557E+02  0.10986127062E+03  0.41800000000E+01 0. -1.
        -11    1    1    2    0    0 -0.53808173773E+02 -0.88301551138E+01  0.45626847603E+02  0.71099229435E+02  0.00000000000E+00 0.  1.
         11    1    1    2    0    0  0.11031224182E+02 -0.38718008661E+02 -0.15549614266E+02  0.43157416575E+02  0.00000000000E+00 0. -1.
</event>
<event>
 7    1  0.2686828E-009  0.1015696E+03  0.7561462E-02  0.1277029E+00
         -2   -1    0    0    0  501 -0.00000000000E+00  0.00000000000E+00  0.71798955080E+02  0.71798955080E+02  0.00000000000E+00 0.  1.
          2   -1    0    0  501    0  0.00000000000E+00 -0.00000000000E+00 -0.34701846737E+03  0.34701846737E+03  0.00000000000E+00 0. -1.
         25    2    1    2    0    0  0.51115666458E+02 -0.29130301529E+02 -0.18546980628E+02  0.13947714999E+03  0.12509396090E+03 0.  0.
          5    1    3    3  502    0  0.67539918197E+02  0.17538211776E+02 -0.45081684889E+02  0.83180888038E+02  0.41800000000E+01 0.  1.
         -5    1    3    3    0  502 -0.16424251739E+02 -0.46668513304E+02  0.26534704261E+02  0.56296261949E+02  0.41800000000E+01 0.  1.
        -11    1    1    2    0    0 -0.45954476505E+00 -0.15839730406E+02 -0.21900724904E+01  0.15997020293E+02  0.00000000000E+00 0.  1.
         11    1    1    2    0    0 -0.50656121693E+02  0.44970031935E+02 -0.25448245917E+03  0.26334325217E+03  0.00000000000E+00 0. -1.
</event>
<event>
 7    1  0.2758852E-009  0.1275739E+03  0.7561462E-02  0.1231101E+00
         -1   -1    0    0    0  501 -0.00000000000E+00  0.00000000000E+00  0.76894029296E+02  0.76894029296E+02  0.00000000000E+00 0.  1.
          1   -1    0    0  501    0  0.00000000000E+00 -0.00000000000E+00 -0.33404330647E+03  0.33404330647E+03  0.00000000000E+00 0. -1.
         25    2    1    2    0    0  0.59488704323E+02 -0.77878044985E+02 -0.22030335202E+03  0.27163276689E+03  0.12508755856E+03 0.  0.
          5    1    3    3  502    0  0.25446788266E+01 -0.96657104561E+02 -0.15624491004E+03  0.18379068411E+03  0.41800000000E+01 0.  1.
         -5    1    3    3    0  502  0.56944025496E+02  0.18779059576E+02 -0.64058441974E+02  0.87842082776E+02  0.41800000000E+01 0.  1.
        -11    1    1    2    0    0 -0.37067579227E+02  0.42695185370E+02 -0.67117760955E+02  0.87759205324E+02  0.00000000000E+00 0. -1.
         11    1    1    2    0    0 -0.22421125096E+02  0.35182859614E+02  0.30271835798E+02  0.51545363553E+02  0.00000000000E+00 0.  1.
</event>
<event>
 7    1  0.2686828E-009  0.1200650E+03  0.7561462E-02  0.1242990E+00
         -4   -1    0    0    0  501 -0.00000000000E+00  0.00000000000E+00  0.83790824066E+03  0.83790824066E+03  0.00000000000E+00 0.  1.
          4   -1    0    0  501    0  0.00000000000E+00 -0.00000000000E+00 -0.20932214130E+02  0.20932214130E+02  0.00000000000E+00 0. -1.
         25    2    1    2    0    0  0.68308885076E+02  0.14025030739E+02  0.41579373530E+03  0.43976657962E+03  0.12508960374E+03 0.  0.
          5    1    3    3  502    0  0.77198605823E+02 -0.27547427007E+02  0.36141063953E+03  0.37061247718E+03  0.41800000000E+01 0.  1.
         -5    1    3    3    0  502 -0.88897207469E+01  0.41572457745E+02  0.54383095768E+02  0.69154102433E+02  0.41800000000E+01 0.  1.
        -11    1    1    2    0    0 -0.85445580923E+02  0.97850935262E+01  0.23329416336E+03  0.24864203589E+03  0.00000000000E+00 0.  1.
         11    1    1    2    0    0  0.17136695848E+02 -0.23810124265E+02  0.16788812787E+03  0.17043183928E+03  0.00000000000E+00 0. -1.
</event>
<event>
 7    1  0.2686828E-009  0.1770991E+03  0.7561462E-02  0.1170640E+00
         -1   -1    0    0    0  501 -0.00000000000E+00  0.00000000000E+00  0.64634775598E+02  0.64634775598E+02  0.00000000000E+00 0.  1.
          1   -1    0    0  501    0  0.00000000000E+00 -0.00000000000E+00 -0.53730482840E+03  0.53730482840E+03  0.00000000000E+00 0. -1.
         25    2    1    2    0    0 -0.43028137708E+02  0.13751220446E+03 -0.31834425885E+03  0.37114919570E+03  0.12509049250E+03 0.  0.
          5    1    3    3  502    0  0.34954887954E+02  0.84011259349E+01 -0.36195414065E+02  0.51185969837E+02  0.41800000000E+01 0. -1.
         -5    1    3    3    0  502 -0.77983025663E+02  0.12911107853E+03 -0.28214884479E+03  0.31996322586E+03  0.41800000000E+01 0. -1.
        -11    1    1    2    0    0  0.32846174821E+02 -0.38581448500E+01 -0.54153996819E+02  0.63454013691E+02  0.00000000000E+00 0. -1.
         11    1    1    2    0    0  0.10181962888E+02 -0.13365405961E+03 -0.10017179713E+03  0.16733639461E+03  0.00000000000E+00 0.  1.
</event>
<event>
 7    1  0.2686828E-009  0.1003465E+03  0.7561462E-02  0.1279569E+00
         -2   -1    0    0    0  501 -0.00000000000E+00  0.00000000000E+00  0.33241053311E+02  0.33241053311E+02  0.00000000000E+00 0.  1.
          2   -1    0    0  501    0  0.00000000000E+00 -0.00000000000E+00 -0.71038748484E+03  0.71038748484E+03  0.00000000000E+00 0. -1.
         25    2    1    2    0    0 -0.14036294712E+02 -0.65669771068E+02 -0.54470937531E+03  0.56290747301E+03  0.12508790196E+03 0.  0.
          5    1    3    3  502    0  0.48449636427E+02 -0.48228815872E+02 -0.37439215164E+03  0.38060523060E+03  0.41800000000E+01 0.  1.
         -5    1    3    3    0  502 -0.62485931140E+02 -0.17440955196E+02 -0.17031722367E+03  0.18230224241E+03  0.41800000000E+01 0.  1.
        -11    1    1    2    0    0  0.16723563458E+01  0.12175118760E+02  0.17308255173E+02  0.21227481944E+02  0.00000000000E+00 0.  1.
         11    1    1    2    0    0  0.12363938367E+02  0.53494652308E+02 -0.14974531139E+03  0.15949358320E+03  0.00000000000E+00 0. -1.
</event>
<event>
 7    1  0.2686828E-009  0.1345954E+03  0.7561462E-02  0.1220792E+00
         -2   -1    0    0    0  501 -0.00000000000E+00  0.00000000000E+00  0.33744347837E+03  0.33744347837E+03  0.00000000000E+00 0.  1.
          2   -1    0    0  501    0  0.00000000000E+00 -0.00000000000E+00 -0.61022188436E+02  0.61022188436E+02  0.00000000000E+00 0. -1.
         25    2    1    2    0    0  0.64478001831E+02 -0.56739204737E+02  0.15885904036E+03  0.21968302785E+03  0.12509071886E+03 0.  0.
          5    1    3    3  502    0  0.94690317874E+02 -0.12078813950E+02  0.83285984862E+02  0.12675244266E+03  0.41800000000E+01 0. -1.
         -5    1    3    3    0  502 -0.30212316043E+02 -0.44660390787E+02  0.75573055499E+02  0.92930585188E+02  0.41800000000E+01 0. -1.
        -11    1    1    2    0    0 -0.63108619309E+02  0.30503135673E+00  0.10247726550E+03  0.12035107319E+03  0.00000000000E+00 0.  1.
         11    1    1    2    0    0 -0.13693825217E+01  0.56434173380E+02  0.15084984080E+02  0.58431565769E+02  0.00000000000E+00 0. -1.
</event>
<event>
 7    1  0.2686828E-009  0.3248639E+03  0.7561462E-02  0.1073432E+00
          1   -1    0    0  501    0  0.00000000000E+00  0.00000000000E+00  0.24095648839E+03  0.24095648839E+03  0.00000000000E+00 0. -1.
         -1   -1    0    0    0  501 -0.00000000000E+00 -0.00000000000E+00 -0.54886000127E+03  0.54886000127E+03  0.00000000000E+00 0.  1.
         25    2    1    2    0    0 -0.11049282320E+03  0.29863963004E+03 -0.75238755296E+01  0.34219501209E+03  0.12508607032E+03 0.  0.
          5    1    3    3  502    0 -0.11471661439E+03  0.29248821300E+03  0.18548988205E+02  0.31475513296E+03  0.41800000000E+01 0.  1.
         -5    1    3    3    0  502  0.42237911942E+01  0.61514170451E+01 -0.26072863734E+02  0.27439879136E+02  0.41800000000E+01 0.  1.
        -11    1    1    2    0    0  0.25746268505E+02 -0.17612913242E+03 -0.20131570007E+03  0.26872356191E+03  0.00000000000E+00 0.  1.
         11    1    1    2    0    0  0.84746554693E+02 -0.12251049762E+03 -0.99063937285E+02  0.17889791567E+03  0.00000000000E+00 0. -1.
</event>
<event>
 7    1  0.2686828E-009  0.1071163E+03  0.7561462E-02  0.1266005E+00
         -1   -1    0    0    0  501 -0.00000000000E+00  0.00000000000E+00  0.11120694507E+03  0.11120694507E+03  0.00000000000E+00 0.  1.
          1   -1    0    0  501    0  0.00000000000E+00 -0.00000000000E+00 -0.16152971241E+03  0.16152971241E+03  0.00000000000E+00 0. -1.
         25    2    1    2    0    0 -0.23409865411E+02 -0.62948206920E+02  0.13337047087E+02  0.14260424467E+03  0.12509034823E+03 0.  0.
          5    1    3    3  502    0 -0.37064743975E+02 -0.95312827565E+02 -0.55522347114E+01  0.10250185391E+03  0.41800000000E+01 0. -1.
         -5    1    3    3    0  502  0.13654878563E+02  0.32364620645E+02  0.18889281798E+02  0.40102390764E+02  0.41800000000E+01 0. -1.
        -11    1    1    2    0    0 -0.29251591823E+01  0.43916925087E+02 -0.81821903364E+02  0.92908970156E+02  0.00000000000E+00 0. -1.
         11    1    1    2    0    0  0.26335024594E+02  0.19031281833E+02  0.18162088931E+02  0.37223442652E+02  0.00000000000E+00 0.  1.
</event>
<event>
 7    1  0.2686828E-009  0.2209622E+03  0.7561462E-02  0.1133168E+00
         -2   -1    0    0    0  501 -0.00000000000E+00  0.00000000000E+00  0.11742393706E+03  0.11742393706E+03  0.00000000000E+00 0.  1.
          2   -1    0    0  501    0  0.00000000000E+00 -0.00000000000E+00 -0.49646589534E+03  0.49646589534E+03  0.00000000000E+00 0. -1.
         25    2    1    2    0    0  0.17393714161E+03 -0.10562818637E+03 -0.12275026701E+03  0.26856465434E+03  0.12509157653E+03 0.  0.
          5    1    3    3  502    0  0.10969115205E+03 -0.12776733250E+03 -0.69885137082E+02  0.18236788335E+03  0.41800000000E+01 0.  1.
         -5    1    3    3    0  502  0.64245989569E+02  0.22139146128E+02 -0.52865129932E+02  0.86196770993E+02  0.41800000000E+01 0.  1.
        -11    1    1    2    0    0 -0.10123745233E+03  0.45235031737E+02 -0.56817053725E+02  0.12459296707E+03  0.00000000000E+00 0.  1.
         11    1    1    2    0    0 -0.72699689287E+02  0.60393154635E+02 -0.19947463754E+03  0.22073221099E+03  0.00000000000E+00 0. -1.
</event>
<event>
 7    1  0.2686828E-009  0.8289628E+02  0.7561462E-02  0.1321027E+00
         -3   -1    0    0    0  501 -0.00000000000E+00  0.00000000000E+00  0.21486398107E+03  0.21486398107E+03  0.00000000000E+00 0.  1.
          3   -1    0    0  501    0  0.00000000000E+00 -0.00000000000E+00 -0.57765545293E+02  0.57765545293E+02  0.00000000000E+00 0. -1.
         25    2    1    2    0    0  0.15476276248E+02  0.94756484949E+01  0.65738084259E+02  0.14246682520E+03  0.12508396188E+03 0.  0.
          5    1    3    3  502    0 -0.44656564413E+02 -0.28521150889E+02  0.40687044735E+02  0.66937080923E+02  0.41800000000E+01 0.  1.
         -5    1    3    3    0  502  0.60132840662E+02  0.37996799384E+02  0.25051039523E+02  0.75529744278E+02  0.41800000000E+01 0.  1.
        -11    1    1    2    0    0 -0.24436824220E+02 -0.16931507899E+02  0.10677512477E+03  0.11083664379E+03  0.00000000000E+00 0.  1.
         11    1    1    2    0    0  0.89605479716E+01  0.74558594038E+01 -0.15414773246E+02  0.19326057374E+02  0.00000000000E+00 0. -1.
</event>
<event>
 7    1  0.2686828E-009  0.1335833E+03  0.7561462E-02  0.1222234E+00
         -1   -1    0    0    0  501 -0.00000000000E+00  0.00000000000E+00  0.88089560816E+02  0.88089560816E+02  0.00000000000E+00 0.  1.
          1   -1    0    0  501    0  0.00000000000E+00 -0.00000000000E+00 -0.30689009866E+03  0.30689009866E+03  0.00000000000E+00 0. -1.
         25    2    1    2    0    0 -0.91028686406E+02 -0.48804702411E+02 -0.19854792726E+03  0.25639152477E+03  0.12508882375E+03 0.  0.
          5    1    3    3  502    0 -0.26171252323E+02  0.41983927355E+02 -0.74121914621E+02  0.89213873537E+02  0.41800000000E+01 0. -1.
         -5    1    3    3    0  502 -0.64857434083E+02 -0.90788629766E+02 -0.12442601264E+03  0.16717765123E+03  0.41800000000E+01 0. -1.
        -11    1    1    2    0    0  0.86174998780E+02  0.38322081001E+02 -0.49950373152E+02  0.10672278147E+03  0.00000000000E+00 0. -1.
         11    1    1    2    0    0  0.48536876264E+01  0.10482621410E+02  0.29697762568E+02  0.31865353234E+02  0.00000000000E+00 0.  1.
</event>
<event>
 7    1  0.2686828E-009  0.1540880E+03  0.7561462E-02  0.1195538E+00
         -2   -1    0    0    0  501 -0.00000000000E+00  0.00000000000E+00  0.11614505050E+03  0.11614505050E+03  0.00000000000E+00 0.  1.
          2   -1    0    0  501    0  0.00000000000E+00 -0.00000000000E+00 -0.23261775011E+03  0.23261775011E+03  0.00000000000E+00 0. -1.
         25    2    1    2    0    0  0.10973028870E+03 -0.13632432917E+02 -0.84253265910E+01  0.16716374337E+03  0.12508457733E+03 0.  0.
          5    1    3    3  502    0  0.88440647611E+02  0.47541912607E+02 -0.16194936227E+02  0.10179258305E+03  0.41800000000E+01 0.  1.
         -5    1    3    3    0  502  0.21289641085E+02 -0.61174345524E+02  0.77696096361E+01  0.65371160321E+02  0.41800000000E+01 0.  1.
        -11    1    1    2    0    0 -0.40499888304E+02 -0.38677181082E+02 -0.61329707620E+02  0.83051178955E+02  0.00000000000E+00 0.  1.
         11    1    1    2    0    0 -0.69230400392E+02  0.52309613999E+02 -0.46717665397E+02  0.98547878289E+02  0.00000000000E+00 0. -1.
</event>
<event>
 7    1  0.2686828E-009  0.9191074E+02  0.7561462E-02  0.1298289E+00
         -1   -1    0    0    0  501 -0.00000000000E+00  0.00000000000E+00  0.14569192102E+03  0.14569192102E+03  0.00000000000E+00 0.  1.
          1   -1    0    0  501    0  0.00000000000E+00 -0.00000000000E+00 -0.11232699677E+03  0.11232699677E+03  0.00000000000E+00 0. -1.
         25    2    1    2    0    0 -0.59088711298E+02  0.34042284313E+02  0.24814464022E+02  0.14461276881E+03  0.12508693919E+03 0.  0.
          5    1    3    3  502    0 -0.51787843327E+02  0.13620283476E+02  0.73568258338E+02  0.91089263216E+02  0.41800000000E+01 0.  1.
         -5    1    3    3    0  502 -0.73008679707E+01  0.20422000837E+02 -0.48753794316E+02  0.53523505598E+02  0.41800000000E+01 0.  1.
        -11    1    1    2    0    0 -0.20118513881E+02 -0.18445342425E+02 -0.12436970491E+02  0.29994391025E+02  0.00000000000E+00 0. -1.
         11    1    1    2    0    0  0.79207225179E+02 -0.15596941888E+02  0.20987430717E+02  0.83411757953E+02  0.00000000000E+00 0.  1.
</event>
<event>
 7    1  0.2686828E-009  0.1010627E+03  0.7561462E-02  0.1278077E+00
          1   -1    0    0  501    0  0.00000000000E+00  0.00000000000E+00  0.49854588139E+03  0.49854588139E+03  0.00000000000E+00 0. -1.
         -1   -1    0    0    0  501 -0.00000000000E+00 -0.00000000000E+00 -0.26236431129E+02  0.26236431129E+02  0.00000000000E+00 0.  1.
         25    2    1    2    0    0 -0.20283978542E+02 -0.18760651646E+02  0.31779112383E+03  0.34264707871E+03  0.12510963324E+03 0.  0.
          5    1    3    3  502    0 -0.70440645263E+01 -0.71375162754E+02  0.20904961656E+03  0.22105032750E+03  0.41800000000E+01 0.  1.
         -5    1    3    3    0  502 -0.13239914016E+02  0.52614511107E+02  0.10874150726E+03  0.12159675121E+03  0.41800000000E+01 0.  1.
        -11    1    1    2    0    0  0.57698246089E+01 -0.27129092522E+02  0.94667906178E+01  0.29306972919E+02  0.00000000000E+00 0.  1.
         11    1    1    2    0    0  0.14514153933E+02  0.45889744168E+02  0.14505153582E+03  0.15282826090E+03  0.00000000000E+00 0. -1.
</event>
<event>
 7    1  0.2686828E-009  0.2718195E+03  0.7561462E-02  0.1100243E+00
          2   -1    0    0  501    0  0.00000000000E+00  0.00000000000E+00  0.68489461814E+03  0.68489461814E+03  0.00000000000E+00 0. -1.
         -2   -1    0    0    0  501 -0.00000000000E+00 -0.00000000000E+00 -0.16649590331E+03  0.16649590331E+03  0.00000000000E+00 0.  1.
         25    2    1    2    0    0  0.23999297172E+03 -0.11615406759E+03  0.40962211175E+02  0.29734319648E+03  0.12508668935E+03 0.  0.
          5    1    3    3  502    0  0.97178875447E+02 -0.31735937965E+02 -0.43448249014E+02  0.11115811412E+03  0.41800000000E+01 0. -1.
         -5    1    3    3    0  502  0.14281409628E+03 -0.84418129624E+02  0.84410460190E+02  0.18618508236E+03  0.41800000000E+01 0. -1.
        -11    1    1    2    0    0 -0.83758804081E+02  0.55337716601E+01  0.20075167485E+03  0.21759456529E+03  0.00000000000E+00 0. -1.
         11    1    1    2    0    0 -0.15623416764E+03  0.11062029593E+03  0.27668482880E+03  0.33645275969E+03  0.00000000000E+00 0.  1.
</event>
<event>
 7    1  0.2686828E-009  0.1936971E+03  0.7561462E-02  0.1155168E+00
         -1   -1    0    0    0  501 -0.00000000000E+00  0.00000000000E+00  0.31265112838E+03  0.31265112838E+03  0.00000000000E+00 0.  1.
          1   -1    0    0  501    0  0.00000000000E+00 -0.00000000000E+00 -0.15305484214E+03  0.15305484214E+03  0.00000000000E+00 0. -1.
         25    2    1    2    0    0 -0.86786289774E+02 -0.16026370652E+03  0.27323103021E+02  0.22273383012E+03  0.12508993324E+03 0.  0.
          5    1    3    3  502    0 -0.15302915121E+02 -0.12254718748E+03  0.57586453704E+02  0.13632925006E+03  0.41800000000E+01 0. -1.
         -5    1    3    3    0  502 -0.71483374653E+02 -0.37716519040E+02 -0.30263350683E+02  0.86404580057E+02  0.41800000000E+01 0. -1.
        -11    1    1    2    0    0  0.74155454380E+02  0.12387479043E+03  0.14277392700E+03  0.20304775140E+03  0.00000000000E+00 0. -1.
         11    1    1    2    0    0  0.12630835394E+02  0.36388916089E+02 -0.10500743784E+02  0.39924388999E+02  0.00000000000E+00 0.  1.
</event>
<event>
 7    1  0.2686828E-009  0.1363780E+03  0.7561462E-02  0.1218287E+00
         -2   -1    0    0    0  501 -0.00000000000E+00  0.00000000000E+00  0.51642710327E+02  0.51642710327E+02  0.00000000000E+00 0.  1.
          2   -1    0    0  501    0  0.00000000000E+00 -0.00000000000E+00 -0.44801071951E+03  0.44801071951E+03  0.00000000000E+00 0. -1.
         25    2    1    2    0    0  0.23581561094E+01 -0.10300222895E+03 -0.26272223855E+03  0.30868137120E+03  0.12508474820E+03 0.  0.
          5    1    3    3  502    0 -0.51732613749E+02 -0.33159711878E+02 -0.16875202760E+03  0.17964005410E+03  0.41800000000E+01 0. -1.
         -5    1    3    3    0  502  0.54090769859E+02 -0.69842517069E+02 -0.93970210942E+02  0.12904131710E+03  0.41800000000E+01 0. -1.
        -11    1    1    2    0    0 -0.33338784425E+02  0.69586461868E+02 -0.12129968252E+03  0.14376148024E+03  0.00000000000E+00 0.  1.
         11    1    1    2    0    0  0.30980628315E+02  0.33415767079E+02 -0.12346088117E+02  0.47210578392E+02  0.00000000000E+00 0. -1.
</event>
<event>
 7    1  0.2686828E-009  0.3024207E+03  0.7561462E-02  0.1084037E+00
         -2   -1    0    0    0  501 -0.00000000000E+00  0.00000000000E+00  0.27046257932E+03  0.27046257932E+03  0.00000000000E+00 0.  1.
          2   -1    0    0  501    0  0.00000000000E+00 -0.00000000000E+00 -0.75663989286E+03  0.75663989286E+03  0.00000000000E+00 0. -1.
         25    2    1    2    0    0 -0.11444924743E+02 -0.29458649707E+03 -0.61438376311E+03  0.69283937067E+03  0.12508714813E+03 0.  0.
          5    1    3    3  502    0  0.16973189177E+02 -0.21641271227E+03 -0.31854306363E+03  0.38549929568E+03  0.41800000000E+01 0.  1.
         -5    1    3    3    0  502 -0.28418113920E+02 -0.78173784794E+02 -0.29584069948E+03  0.30734007499E+03  0.41800000000E+01 0.  1.
        -11    1    1    2    0    0 -0.17545041263E+02  0.25377143994E+03  0.85206011398E+02  0.26826821761E+03  0.00000000000E+00 0.  1.
         11    1    1    2    0    0  0.28989966007E+02  0.40815057129E+02  0.43000438178E+02  0.65994883900E+02  0.00000000000E+00 0. -1.
</event>
<event>
 7    1  0.2686828E-009  0.7700309E+02  0.7561462E-02  0.1337778E+00
          2   -1    0    0  501    0  0.00000000000E+00  0.00000000000E+00  0.82097578577E+02  0.82097578577E+02  0.00000000000E+00 0. -1.
         -2   -1    0    0    0  501 -0.00000000000E+00 -0.00000000000E+00 -0.15962712581E+03  0.15962712581E+03  0.00000000000E+00 0.  1.
         25    2    1    2    0    0  0.29582165860E+02 -0.16028510250E+01 -0.20698902901E+02  0.13020570958E+03  0.12508960212E+03 0.  0.
          5    1    3    3  502    0  0.62583777106E+02  0.14996830330E+02 -0.51019612488E+02  0.82232033510E+02  0.41800000000E+01 0.  1.
         -5    1    3    3    0  502 -0.33001611247E+02 -0.16599681355E+02  0.30320709587E+02  0.47973676072E+02  0.41800000000E+01 0.  1.
        -11    1    1    2    0    0 -0.88247987370E+00  0.18839461756E+02  0.20134471876E+02  0.27588059876E+02  0.00000000000E+00 0. -1.
         11    1    1    2    0    0 -0.28699685986E+02 -0.17236610731E+02 -0.76965116211E+02  0.83930934932E+02  0.00000000000E+00 0.  1.
</event>
<event>
 7    1  0.2686828E-009  0.1758701E+03  0.7561462E-02  0.1171861E+00
          2   -1    0    0  501    0  0.00000000000E+00  0.00000000000E+00  0.13086694504E+03  0.13086694504E+03  0.00000000000E+00 0.  1.
         -2   -1    0    0    0  501 -0.00000000000E+00 -0.00000000000E+00 -0.33574534369E+03  0.33574534369E+03  0.00000000000E+00 0. -1.
         25    2    1    2    0    0  0.75559381060E+02  0.14739590395E+03 -0.31747182934E+02  0.20998137270E+03  0.12509804432E+03 0.  0.
          5    1    3    3  502    0  0.21149271856E+02  0.56808420413E+02  0.48078027161E+02  0.77481981296E+02  0.41800000000E+01 0.  1.
         -5    1    3    3    0  502  0.54410109204E+02  0.90587483535E+02 -0.79825210095E+02  0.13249939141E+03  0.41800000000E+01 0.  1.
        -11    1    1    2    0    0  0.75975131266E+01 -0.73761534420E+02 -0.96452047291E+02  0.12166134798E+03  0.00000000000E+00 0. -1.
         11    1    1    2    0    0 -0.83156894187E+02 -0.73634369528E+02 -0.76679168426E+02  0.13496956804E+03  0.00000000000E+00 0.  1.
</event>
<event>
 7    1  0.2686828E-009  0.1493062E+03  0.7561462E-02  0.1201328E+00
         -2   -1    0    0    0  501 -0.00000000000E+00  0.00000000000E+00  0.35038948673E+02  0.35038948673E+02  0.00000000000E+00 0.  1.
          2   -1    0    0  501    0  0.00000000000E+00 -0.00000000000E+00 -0.97600360189E+03  0.97600360189E+03  0.00000000000E+00 0. -1.
         25    2    1    2    0    0 -0.12578708371E+03  0.55748212899E+02 -0.65856757833E+03  0.68431846643E+03  0.12510097759E+03 0.  0.
          5    1    3    3  502    0 -0.55053741847E+01 -0.17825310638E+02 -0.27450902329E+03  0.27517399425E+03  0.41800000000E+01 0.  1.
         -5    1    3    3    0  502 -0.12028170953E+03  0.73573523537E+02 -0.38405855505E+03  0.40914447218E+03  0.41800000000E+01 0.  1.
        -11    1    1    2    0    0  0.82777272645E+02 -0.44480907457E+02 -0.26096161232E+03  0.27736544684E+03  0.00000000000E+00 0. -1.
         11    1    1    2    0    0  0.43009811068E+02 -0.11267305442E+02 -0.21435462559E+02  0.49358637290E+02  0.00000000000E+00 0.  1.
</event>
<event>
 7    1  0.2686828E-009  0.1250338E+03  0.7561462E-02  0.1235017E+00
          1   -1    0    0  501    0  0.00000000000E+00  0.00000000000E+00  0.99308961781E+03  0.99308961781E+03  0.00000000000E+00 0. -1.
         -1   -1    0    0    0  501 -0.00000000000E+00 -0.00000000000E+00 -0.23654271047E+02  0.23654271047E+02  0.00000000000E+00 0.  1.
         25    2    1    2    0    0  0.32588899824E+02  0.78684556376E+02  0.74491774018E+03  0.76013263381E+03  0.12508351426E+03 0.  0.
          5    1    3    3  502    0 -0.28378834485E+02 -0.16766099338E+02  0.26173351445E+03  0.26383397303E+03  0.41800000000E+01 0. -1.
         -5    1    3    3    0  502  0.60967734309E+02  0.95450655715E+02  0.48318422573E+03  0.49629866078E+03  0.41800000000E+01 0. -1.
        -11    1    1    2    0    0 -0.11449513630E+01 -0.71164827815E+02  0.74048429479E+02  0.10270790398E+03  0.00000000000E+00 0.  1.
         11    1    1    2    0    0 -0.31443948461E+02 -0.75197285607E+01  0.15046917710E+03  0.15390335107E+03  0.00000000000E+00 0. -1.
</event>
<event>
 7    1  0.2686828E-009  0.1884832E+03  0.7561462E-02  0.1159837E+00
          2   -1    0    0  501    0  0.00000000000E+00  0.00000000000E+00  0.12988545170E+03  0.12988545170E+03  0.00000000000E+00 0. -1.
         -2   -1    0    0    0  501 -0.00000000000E+00 -0.00000000000E+00 -0.42516269097E+03  0.42516269097E+03  0.00000000000E+00 0.  1.
         25    2    1    2    0    0  0.14812815107E+03  0.11374997091E+03 -0.43410360342E+02  0.22893888549E+03  0.12509016302E+03 0.  0.
          5    1    3    3  502    0  0.12218125560E+03  0.75238228714E+02  0.25440430534E+02  0.14578661868E+03  0.41800000000E+01 0.  1.
         -5    1    3    3    0  502  0.25946895466E+02  0.38511742191E+02 -0.68850790876E+02  0.83152266807E+02  0.41800000000E+01 0.  1.
        -11    1    1    2    0    0 -0.77094638885E+02 -0.57186856616E+02 -0.58310764279E+02  0.11231235527E+03  0.00000000000E+00 0. -1.
         11    1    1    2    0    0 -0.71033512181E+02 -0.56563114289E+02 -0.19355611465E+03  0.21379690192E+03  0.00000000000E+00 0.  1.
</event>
<event>
 7    1  0.2686828E-009  0.7149497E+02  0.7561462E-02  0.1355082E+00
         -3   -1    0    0    0  501 -0.00000000000E+00  0.00000000000E+00  0.23810383645E+03  0.23810383645E+03  0.00000000000E+00 0.  1.
          3   -1    0    0  501    0  0.00000000000E+00 -0.00000000000E+00 -0.63967224838E+02  0.63967224838E+02  0.00000000000E+00 0. -1.
         25    2    1    2    0    0 -0.20243126332E+02 -0.60804174964E+02  0.17137376900E+03  0.22163695745E+03  0.12508813033E+03 0.  0.
          5    1    3    3  502    0 -0.47272974712E+01 -0.60931007208E+02  0.18846937592E+03  0.19817445102E+03  0.41800000000E+01 0. -1.
         -5    1    3    3    0  502 -0.15515828861E+02  0.12683224382E+00 -0.17095606919E+02  0.23462506422E+02  0.41800000000E+01 0. -1.
        -11    1    1    2    0    0  0.10484496931E+02  0.12185539610E+02 -0.20176187943E+02  0.25797104710E+02  0.00000000000E+00 0. -1.
         11    1    1    2    0    0  0.97586294012E+01  0.48618635353E+02  0.22939030561E+02  0.54636999135E+02  0.00000000000E+00 0.  1.
</event>
<event>
 7    1  0.2686828E-009  0.1125628E+03  0.7561462E-02  0.1255896E+00
         -1   -1    0    0    0  501 -0.00000000000E+00  0.00000000000E+00  0.68442598104E+02  0.68442598104E+02  0.00000000000E+00 0.  1.
          1   -1    0    0  501    0  0.00000000000E+00 -0.00000000000E+00 -0.56978915930E+03  0.56978915930E+03  0.00000000000E+00 0. -1.
         25    2    1    2    0    0  0.36511272989E+02  0.12246380703E+02 -0.34019076748E+01  0.13092833179E+03  0.12509040008E+03 0.  0.
          5    1    3    3  502    0 -0.42894277281E+02 -0.12523341538E+02  0.11479732790E+02  0.46325044756E+02  0.41800000000E+01 0. -1.
         -5    1    3    3    0  502  0.79405550270E+02  0.24769722241E+02 -0.14881640464E+02  0.84603287031E+02  0.41800000000E+01 0. -1.
        -11    1    1    2    0    0  0.20185184278E+02 -0.31217581691E+02 -0.19738994775E+03  0.20086007703E+03  0.00000000000E+00 0.  1.
         11    1    1    2    0    0 -0.56696457267E+02  0.18971200988E+02 -0.30055470576E+03  0.30644334858E+03  0.00000000000E+00 0. -1.
</event>
<event>
 7    1  0.2686828E-009  0.1849629E+03  0.7561462E-02  0.1163085E+00
          1   -1    0    0  501    0  0.00000000000E+00  0.00000000000E+00  0.15447320981E+04  0.15447320981E+04  0.00000000000E+00 0. -1.
         -1   -1    0    0    0  501 -0.00000000000E+00 -0.00000000000E+00 -0.25264336934E+02  0.25264336934E+02  0.00000000000E+00 0.  1.
         25    2    1    2    0    0 -0.16113550538E+03 -0.32945412451E+02  0.81376600971E+03  0.83959050542E+03  0.12508815670E+03 0.  0.
          5    1    3    3  502    0 -0.26404996818E+02 -0.38828108850E+02  0.43430614440E+03  0.43685712236E+03  0.41800000000E+01 0. -1.
         -5    1    3    3    0  502 -0.13473050856E+03  0.58826963985E+01  0.37945986530E+03  0.40273338306E+03  0.41800000000E+01 0. -1.
        -11    1    1    2    0    0  0.15467396716E+03  0.55553041193E+02  0.59841598815E+03  0.62057382428E+03  0.00000000000E+00 0. -1.
         11    1    1    2    0    0  0.64615382177E+01 -0.22607628742E+02  0.10728576332E+03  0.10983210535E+03  0.00000000000E+00 0.  1.
</event>
<event>
 7    1  0.2686828E-009  0.2990947E+03  0.7561462E-02  0.1085694E+00
         -1   -1    0    0    0  501 -0.00000000000E+00  0.00000000000E+00  0.60923052848E+02  0.60923052848E+02  0.00000000000E+00 0.  1.
          1   -1    0    0  501    0  0.00000000000E+00 -0.00000000000E+00 -0.15992971862E+04  0.15992971862E+04  0.00000000000E+00 0. -1.
         25    2    1    2    0    0  0.28365434818E+03  0.62474147303E+02 -0.70974399644E+03  0.77701111079E+03  0.12508763921E+03 0.  0.
          5    1    3    3  502    0  0.73153323338E+02 -0.30474425904E+01 -0.74300243025E+02  0.10439681094E+03  0.41800000000E+01 0.  1.
         -5    1    3    3    0  502  0.21050102484E+03  0.65521589894E+02 -0.63544375342E+03  0.67261429985E+03  0.41800000000E+01 0.  1.
        -11    1    1    2    0    0 -0.13551300330E+03  0.16432515430E+02 -0.41268607359E+03  0.43467642789E+03  0.00000000000E+00 0.  1.
         11    1    1    2    0    0 -0.14814134488E+03 -0.78906662733E+02 -0.41594406330E+03  0.44853270035E+03  0.00000000000E+00 0. -1.
</event>
<event>
 7    1  0.2686828E-009  0.1406775E+03  0.7561462E-02  0.1212420E+00
         -1   -1    0    0    0  501 -0.00000000000E+00  0.00000000000E+00  0.50303449720E+02  0.50303449720E+02  0.00000000000E+00 0.  1.
          1   -1    0    0  501    0  0.00000000000E+00 -0.00000000000E+00 -0.85404495723E+03  0.85404495723E+03  0.00000000000E+00 0. -1.
         25    2    1    2    0    0 -0.45253915172E+02  0.98061668329E+02 -0.72822174742E+03  0.74673880075E+03  0.12509162845E+03 0.  0.
          5    1    3    3  502    0  0.14358979762E+02  0.82198294521E+02 -0.23017327658E+03  0.24486720804E+03  0.41800000000E+01 0. -1.
         -5    1    3    3    0  502 -0.59612894934E+02  0.15863373808E+02 -0.49804847083E+03  0.50187159271E+03  0.41800000000E+01 0. -1.
        -11    1    1    2    0    0 -0.19116343671E+02 -0.53492939240E+00 -0.12805793202E+01  0.19166654069E+02  0.00000000000E+00 0.  1.
         11    1    1    2    0    0  0.64370258843E+02 -0.97526738936E+02 -0.74239180770E+02  0.13844295212E+03  0.00000000000E+00 0. -1.
</event>
<event>
 7    1  0.2686828E-009  0.1098479E+03  0.7561462E-02  0.1260852E+00
          3   -1    0    0  501    0  0.00000000000E+00  0.00000000000E+00  0.25561270917E+03  0.25561270917E+03  0.00000000000E+00 0. -1.
         -3   -1    0    0    0  501 -0.00000000000E+00 -0.00000000000E+00 -0.56205266345E+02  0.56205266345E+02  0.00000000000E+00 0.  1.
         25    2    1    2    0    0 -0.26280039645E+02 -0.21088058119E+02  0.69071527026E+02  0.14681528190E+03  0.12509398257E+03 0.  0.
          5    1    3    3  502    0 -0.17445718374E+02  0.46713209827E+02  0.59345432417E+02  0.77626218578E+02  0.41800000000E+01 0. -1.
         -5    1    3    3    0  502 -0.88343212710E+01 -0.67801267946E+02  0.97260946088E+01  0.69189063325E+02  0.41800000000E+01 0. -1.
        -11    1    1    2    0    0  0.23430005715E+02  0.58820013474E+02  0.83545382604E+02  0.10482647618E+03  0.00000000000E+00 0. -1.
         11    1    1    2    0    0  0.28500339297E+01 -0.37731955355E+02  0.46790533197E+02  0.60176217439E+02  0.00000000000E+00 0.  1.
</event>
<event>
 7    1  0.2686828E-009  0.1436566E+03  0.7561462E-02  0.1208492E+00
          2   -1    0    0  501    0  0.00000000000E+00  0.00000000000E+00  0.19752608478E+03  0.19752608478E+03  0.00000000000E+00 0. -1.
         -2   -1    0    0    0  501 -0.00000000000E+00 -0.00000000000E+00 -0.12437345615E+03  0.12437345615E+03  0.00000000000E+00 0.  1.
         25    2    1    2    0    0 -0.22103198914E+02 -0.10540673683E+03  0.27078855725E+01  0.16509100947E+03  0.12509427322E+03 0.  0.
          5    1    3    3  502    0 -0.47771194806E+02  0.12725097360E+01  0.23370136885E+02  0.53360491305E+02  0.41800000000E+01 0.  1.
         -5    1    3    3    0  502  0.25667995892E+02 -0.10667924657E+03 -0.20662251313E+02  0.11173051817E+03  0.41800000000E+01 0.  1.
        -11    1    1    2    0    0 -0.25199470133E+02  0.21091321425E+02  0.46965535473E+02  0.57320316265E+02  0.00000000000E+00 0. -1.
         11    1    1    2    0    0  0.47302669048E+02  0.84315415405E+02  0.23479207587E+02  0.99488215196E+02  0.00000000000E+00 0.  1.
</event>
<event>
 7    1  0.2686828E-009  0.1415682E+03  0.7561462E-02  0.1211234E+00
         -2   -1    0    0    0  501 -0.00000000000E+00  0.00000000000E+00  0.29368851700E+02  0.29368851700E+02  0.00000000000E+00 0.  1.
          2   -1    0    0  501    0  0.00000000000E+00 -0.00000000000E+00 -0.94832837099E+03  0.94832837099E+03  0.00000000000E+00 0. -1.
         25    2    1    2    0    0 -0.21817924077E+02 -0.12792169428E+03 -0.58274256149E+03  0.60998086766E+03  0.12509110381E+03 0.  0.
          5    1    3    3  502    0  0.13675458929E+02 -0.78851093077E+02 -0.50512962182E+03  0.51144688902E+03  0.41800000000E+01 0.  1.
         -5    1    3    3    0  502 -0.35493383006E+02 -0.49070601204E+02 -0.77612939679E+02  0.98533978633E+02  0.41800000000E+01 0.  1.
        -11    1    1    2    0    0  0.41957190525E+02  0.91881719619E+02 -0.18289919472E+03  0.20893724337E+03  0.00000000000E+00 0.  1.
         11    1    1    2    0    0 -0.20139266449E+02  0.36039974662E+02 -0.15331776308E+03  0.15877911167E+03  0.00000000000E+00 0. -1.
</event>
<event>
 7    1  0.3700234E-009  0.1059760E+03  0.7561462E-02  0.1268209E+00
          2   -1    0    0  501    0  0.00000000000E+00  0.00000000000E+00  0.36414754164E+03  0.36414754164E+03  0.00000000000E+00 0. -1.
         -2   -1    0    0    0  501 -0.00000000000E+00 -0.00000000000E+00 -0.40784990473E+02  0.40784990473E+02  0.00000000000E+00 0.  1.
         25    2    1    2    0    0  0.16031890317E+02  0.32652901117E+02  0.24988245249E+03  0.28180180436E+03  0.12509110047E+03 0.  0.
          5    1    3    3  502    0 -0.50762591954E+02  0.36546302672E+02  0.13365869050E+03  0.14762991204E+03  0.41800000000E+01 0. -1.
         -5    1    3    3    0  502  0.66794482271E+02 -0.38934015549E+01  0.11622376199E+03  0.13417189232E+03  0.41800000000E+01 0. -1.
        -11    1    1    2    0    0 -0.32106637325E+02 -0.49460277358E+02  0.15963415815E+02  0.61089981512E+02  0.00000000000E+00 0.  1.
         11    1    1    2    0    0  0.16074747008E+02  0.16807376241E+02  0.57516682859E+02  0.62040746244E+02  0.00000000000E+00 0. -1.
</event>
<event>
 7    1  0.2686828E-009  0.4804963E+02  0.7561462E-02  0.1456154E+00
         -1   -1    0    0    0  501 -0.00000000000E+00  0.00000000000E+00  0.13201204906E+03  0.13201204906E+03  0.00000000000E+00 0.  1.
          1   -1    0    0  501    0  0.00000000000E+00 -0.00000000000E+00 -0.12228232373E+03  0.12228232373E+03  0.00000000000E+00 0. -1.
         25    2    1    2    0    0  0.54958802832E+00 -0.21868945037E+02  0.67178195953E+02  0.14366290772E+03  0.12509024039E+03 0.  0.
          5    1    3    3  502    0  0.24903377808E+02  0.32540016777E+01  0.95259963274E+02  0.98603751227E+02  0.41800000000E+01 0. -1.
         -5    1    3    3    0  502 -0.24353789780E+02 -0.25122946715E+02 -0.28081767321E+02  0.45059156496E+02  0.41800000000E+01 0. -1.
        -11    1    1    2    0    0 -0.13904870068E+02  0.14731829449E+02 -0.80522903316E+02  0.83031982808E+02  0.00000000000E+00 0. -1.
         11    1    1    2    0    0  0.13355282040E+02  0.71371155882E+01  0.23074432691E+02  0.27599482265E+02  0.00000000000E+00 0.  1.
</event>
<event>
 7    1  0.2686828E-009  0.9776014E+02  0.7561462E-02  0.1285078E+00
          2   -1    0    0  501    0  0.00000000000E+00  0.00000000000E+00  0.14075180998E+03  0.14075180998E+03  0.00000000000E+00 0. -1.
         -2   -1    0    0    0  501 -0.00000000000E+00 -0.00000000000E+00 -0.13774232507E+03  0.13774232507E+03  0.00000000000E+00 0.  1.
         25    2    1    2    0    0 -0.54837719842E+01  0.66749002544E+02 -0.55904609051E+02  0.15251073540E+03  0.12509475609E+03 0.  0.
          5    1    3    3  502    0 -0.31839553082E+02 -0.14804317639E+02  0.17623084515E+02  0.39509118809E+02  0.41800000000E+01 0. -1.
         -5    1    3    3    0  502  0.26355781098E+02  0.81553320183E+02 -0.73527693566E+02  0.11300161659E+03  0.41800000000E+01 0. -1.
        -11    1    1    2    0    0  0.18850132238E+02 -0.32273525576E+02  0.76422046449E+02  0.85071952616E+02  0.00000000000E+00 0. -1.
         11    1    1    2    0    0 -0.13366360254E+02 -0.34475476968E+02 -0.17507952480E+02  0.40911447037E+02  0.00000000000E+00 0.  1.
</event>
<event>
 7    1  0.2686828E-009  0.3681270E+03  0.7561462E-02  0.1055411E+00
          1   -1    0    0  501    0  0.00000000000E+00  0.00000000000E+00  0.40146499729E+03  0.40146499729E+03  0.00000000000E+00 0. -1.
         -1   -1    0    0    0  501 -0.00000000000E+00 -0.00000000000E+00 -0.34449559498E+03  0.34449559498E+03  0.00000000000E+00 0.  1.
         25    2    1    2    0    0 -0.19490215356E+03  0.29452128454E+03 -0.12391926758E+02  0.37487451263E+03  0.12509078249E+03 0.  0.
          5    1    3    3  502    0 -0.73658039774E+02  0.23845452866E+02  0.53988781603E+01  0.77722150839E+02  0.41800000000E+01 0.  1.
         -5    1    3    3    0  502 -0.12124411378E+03  0.27067583168E+03 -0.17790804919E+02  0.29715236179E+03  0.41800000000E+01 0.  1.
        -11    1    1    2    0    0  0.52886198640E+02 -0.15184756094E+03  0.95283601167E+01  0.16107582505E+03  0.00000000000E+00 0.  1.
         11    1    1    2    0    0  0.14201595492E+03 -0.14267372360E+03  0.59832968949E+02  0.21001025458E+03  0.00000000000E+00 0. -1.
</event>
<event>
 7    1  0.2686828E-009  0.8849786E+02  0.7561462E-02  0.1306531E+00
          2   -1    0    0  501    0  0.00000000000E+00  0.00000000000E+00  0.48953626738E+03  0.48953626738E+03  0.00000000000E+00 0. -1.
         -2   -1    0    0    0  501 -0.00000000000E+00 -0.00000000000E+00 -0.27854680582E+02  0.27854680582E+02  0.00000000000E+00 0.  1.
         25    2    1    2    0    0 -0.22849709972E+02 -0.35253588522E+02  0.23756478921E+03  0.27175128695E+03  0.12508720213E+03 0.  0.
          5    1    3    3  502    0 -0.41416620976E+02 -0.40521149998E+01  0.23082980297E+03  0.23458820616E+03  0.41800000000E+01 0.  1.
         -5    1    3    3    0  502  0.18566911004E+02 -0.31201473522E+02  0.67349862411E+01  0.37163080791E+02  0.41800000000E+01 0.  1.
        -11    1    1    2    0    0  0.29207845446E+01  0.63768537733E+02  0.12090060171E+03  0.13671837068E+03  0.00000000000E+00 0.  1.
         11    1    1    2    0    0  0.19928925428E+02 -0.28514949211E+02  0.10321619587E+03  0.10892129033E+03  0.00000000000E+00 0. -1.
</event>
<event>
 7    1  0.2686828E-009  0.9821869E+02  0.7561462E-02  0.1284087E+00
         -2   -1    0    0    0  501 -0.00000000000E+00  0.00000000000E+00  0.19189166539E+02  0.19189166539E+02  0.00000000000E+00 0.  1.
          2   -1    0    0  501    0  0.00000000000E+00 -0.00000000000E+00 -0.59339159622E+03  0.59339159622E+03  0.00000000000E+00 0. -1.
         25    2    1    2    0    0  0.20497330773E+02 -0.10830329018E+02 -0.42701003425E+03  0.44555804475E+03  0.12508783033E+03 0.  0.
          5    1    3    3  502    0  0.28659066383E+02 -0.61999034595E+02 -0.16835357163E+03  0.18172952390E+03  0.41800000000E+01 0. -1.
         -5    1    3    3    0  502 -0.81617356108E+01  0.51168705578E+02 -0.25865646262E+03  0.26382852085E+03  0.41800000000E+01 0. -1.
        -11    1    1    2    0    0 -0.27354893339E+02 -0.26489493680E+02 -0.96195176140E+02  0.10345769849E+03  0.00000000000E+00 0.  1.
         11    1    1    2    0    0  0.68575625663E+01  0.37319822697E+02 -0.50997219296E+02  0.63565019519E+02  0.00000000000E+00 0. -1.
</event>
<event>
 7    1  0.2686828E-009  0.1146656E+03  0.7561462E-02  0.1252166E+00
          1   -1    0    0  501    0  0.00000000000E+00  0.00000000000E+00  0.16139634514E+03  0.16139634514E+03  0.00000000000E+00 0. -1.
         -1   -1    0    0    0  501 -0.00000000000E+00 -0.00000000000E+00 -0.96561065505E+02  0.96561065505E+02  0.00000000000E+00 0.  1.
         25    2    1    2    0    0  0.60398241120E+01 -0.63201287920E+02  0.25206491820E+02  0.14253472017E+03  0.12509954818E+03 0.  0.
          5    1    3    3  502    0 -0.49578409661E+02 -0.38012422468E+02 -0.20793008796E+02  0.65975636270E+02  0.41800000000E+01 0. -1.
         -5    1    3    3    0  502  0.55618233773E+02 -0.25188865451E+02  0.45999500616E+02  0.76559083900E+02  0.41800000000E+01 0. -1.
        -11    1    1    2    0    0  0.17458001154E+02 -0.15523670837E+02 -0.17626243526E+01  0.23428038867E+02  0.00000000000E+00 0.  1.
         11    1    1    2    0    0 -0.23497825266E+02  0.78724958757E+02  0.41391412169E+02  0.91994651610E+02  0.00000000000E+00 0. -1.
</event>
<event>
 7    1  0.2686828E-009  0.1301611E+03  0.7561462E-02  0.1227217E+00
         -1   -1    0    0    0  501 -0.00000000000E+00  0.00000000000E+00  0.69472401784E+02  0.69472401784E+02  0.00000000000E+00 0.  1.
          1   -1    0    0  501    0  0.00000000000E+00 -0.00000000000E+00 -0.32226965615E+03  0.32226965615E+03  0.00000000000E+00 0. -1.
         25    2    1    2    0    0 -0.72341615765E+02  0.28821279543E+02 -0.49205900837E+02  0.15534769837E+03  0.12509081176E+03 0.  0.
          5    1    3    3  502    0 -0.25455900425E+01  0.62540563243E+02 -0.45752689950E+02  0.77643950937E+02  0.41800000000E+01 0. -1.
         -5    1    3    3    0  502 -0.69796025723E+02 -0.33719283700E+02 -0.34532108861E+01  0.77703747435E+02  0.41800000000E+01 0. -1.
        -11    1    1    2    0    0  0.56267936388E+02  0.26614229124E+02 -0.99282041254E+02  0.11718072185E+03  0.00000000000E+00 0. -1.
         11    1    1    2    0    0  0.16073679377E+02 -0.55435508667E+02 -0.10430931227E+03  0.11921363771E+03  0.00000000000E+00 0.  1.
</event>
<event>
 7    1  0.2686828E-009  0.1821106E+03  0.7561462E-02  0.1165776E+00
         -1   -1    0    0    0  501 -0.00000000000E+00  0.00000000000E+00  0.39823819597E+03  0.39823819597E+03  0.00000000000E+00 0.  1.
          1   -1    0    0  501    0  0.00000000000E+00 -0.00000000000E+00 -0.12283643986E+03  0.12283643986E+03  0.00000000000E+00 0. -1.
         25    2    1    2    0    0 -0.74989001853E+02 -0.14277693224E+03  0.19701068047E+02  0.20504585290E+03  0.12508823658E+03 0.  0.
          5    1    3    3  502    0 -0.45453221796E+02  0.10300620793E+02 -0.53207898390E+01  0.47094387828E+02  0.41800000000E+01 0. -1.
         -5    1    3    3    0  502 -0.29535780057E+02 -0.15307755303E+03  0.25021857886E+02  0.15795146507E+03  0.41800000000E+01 0. -1.
        -11    1    1    2    0    0  0.46364253502E+02  0.96436341276E+02  0.23417012231E+03  0.25745923581E+03  0.00000000000E+00 0. -1.
         11    1    1    2    0    0  0.28624748351E+02  0.46340590960E+02  0.21530565754E+02  0.58569547124E+02  0.00000000000E+00 0.  1.
</event>
<event>
 7    1  0.2686828E-009  0.1209137E+03  0.7561462E-02  0.1241597E+00
          1   -1    0    0  501    0  0.00000000000E+00  0.00000000000E+00  0.10470368572E+03  0.10470368572E+03  0.00000000000E+00 0. -1.
         -1   -1    0    0    0  501 -0.00000000000E+00 -0.00000000000E+00 -0.21192182735E+03  0.21192182735E+03  0.00000000000E+00 0.  1.
         25    2    1    2    0    0  0.43091616477E+01 -0.96759023433E+02 -0.25572672682E+02  0.16025506719E+03  0.12508735940E+03 0.  0.
          5    1    3    3  502    0  0.69449768585E+01 -0.12013451505E+03 -0.45925958361E+02  0.12886892744E+03  0.41800000000E+01 0. -1.
         -5    1    3    3    0  502 -0.26358152109E+01  0.23375491613E+02  0.20353285679E+02  0.31386139742E+02  0.41800000000E+01 0. -1.
        -11    1    1    2    0    0 -0.78988639130E+01  0.79973401288E+02 -0.80099824567E+01  0.80760737885E+02  0.00000000000E+00 0. -1.
         11    1    1    2    0    0  0.35897022653E+01  0.16785622145E+02 -0.73635486487E+02  0.75609707996E+02  0.00000000000E+00 0.  1.
</event>
<event>
 7    1  0.2686828E-009  0.1144061E+03  0.7561462E-02  0.1252621E+00
         -1   -1    0    0    0  501 -0.00000000000E+00  0.00000000000E+00  0.82402027829E+02  0.82402027829E+02  0.00000000000E+00 0.  1.
          1   -1    0    0  501    0  0.00000000000E+00 -0.00000000000E+00 -0.17456717306E+03  0.17456717306E+03  0.00000000000E+00 0. -1.
         25    2    1    2    0    0  0.50137649782E+02  0.70258145032E+01 -0.73769461079E+02  0.15379491083E+03  0.12509114762E+03 0.  0.
          5    1    3    3  502    0  0.67462473964E+01  0.62620911713E+02 -0.24721458839E+02  0.67790215849E+02  0.41800000000E+01 0. -1.
         -5    1    3    3    0  502  0.43391402386E+02 -0.55595097210E+02 -0.49048002239E+02  0.86004694979E+02  0.41800000000E+01 0. -1.
        -11    1    1    2    0    0 -0.37479215099E+02 -0.42920526235E+02 -0.28618100439E+02  0.63764087145E+02  0.00000000000E+00 0. -1.
         11    1    1    2    0    0 -0.12658434683E+02  0.35894711731E+02  0.10222416290E+02  0.39410202914E+02  0.00000000000E+00 0.  1.
</event>
<event>
 7    1  0.2686828E-009  0.7937222E+02  0.7561462E-02  0.1330842E+00
          1   -1    0    0  501    0  0.00000000000E+00  0.00000000000E+00  0.11572008537E+04  0.11572008537E+04  0.00000000000E+00 0. -1.
         -1   -1    0    0    0  501 -0.00000000000E+00 -0.00000000000E+00 -0.14327027930E+02  0.14327027930E+02  0.00000000000E+00 0.  1.
         25    2    1    2    0    0  0.48292665196E+02 -0.23838405651E+02  0.83931496434E+03  0.85029272294E+03  0.12509058404E+03 0.  0.
          5    1    3    3  502    0  0.45924530140E+02 -0.34959689880E+02  0.83562826663E+03  0.83762958089E+03  0.41800000000E+01 0.  1.
         -5    1    3    3    0  502  0.23681350560E+01  0.11121284229E+02  0.36866977101E+01  0.12663142049E+02  0.41800000000E+01 0.  1.
        -11    1    1    2    0    0 -0.30961097198E+02 -0.23162996116E+02  0.52359379655E+02  0.65089312231E+02  0.00000000000E+00 0.  1.
         11    1    1    2    0    0 -0.17331567998E+02  0.47001401767E+02  0.25119948178E+03  0.25614584647E+03  0.00000000000E+00 0. -1.
</event>
<event>
 7    1  0.2686828E-009  0.6602745E+02  0.7561462E-02  0.1374148E+00
          1   -1    0    0  501    0  0.00000000000E+00  0.00000000000E+00  0.10110925873E+04  0.10110925873E+04  0.00000000000E+00 0. -1.
         -1   -1    0    0    0  501 -0.00000000000E+00 -0.00000000000E+00 -0.14881300464E+02  0.14881300464E+02  0.00000000000E+00 0.  1.
         25    2    1    2    0    0 -0.12383266094E+02 -0.27376450217E+02  0.81537133717E+03  0.82545792118E+03  0.12509015490E+03 0.  0.
          5    1    3    3  502    0 -0.39298950261E+02  0.54705029477E+00  0.81781317416E+02  0.90831509037E+02  0.41800000000E+01 0. -1.
         -5    1    3    3    0  502  0.26915684166E+02 -0.27923500512E+02  0.73359001975E+03  0.73462641214E+03  0.41800000000E+01 0. -1.
        -11    1    1    2    0    0 -0.12369714655E+02 -0.45006462294E+01 -0.19649428287E+01  0.13308893923E+02  0.00000000000E+00 0.  1.
         11    1    1    2    0    0  0.24752980750E+02  0.31877096446E+02  0.18280489245E+03  0.18720707261E+03  0.00000000000E+00 0. -1.
</event>
<event>
 7    1  0.2686828E-009  0.1006382E+03  0.7561462E-02  0.1278960E+00
         -1   -1    0    0    0  501 -0.00000000000E+00  0.00000000000E+00  0.11214978218E+03  0.11214978218E+03  0.00000000000E+00 0.  1.
          1   -1    0    0  501    0  0.00000000000E+00 -0.00000000000E+00 -0.14838411974E+03  0.14838411974E+03  0.00000000000E+00 0. -1.
         25    2    1    2    0    0  0.19787215624E+02 -0.66012260551E+02 -0.31636416611E+01  0.14285158372E+03  0.12508962346E+03 0.  0.
          5    1    3    3  502    0  0.41720854073E+02 -0.42811085021E+02  0.51761023327E+02  0.79183928933E+02  0.41800000000E+01 0. -1.
         -5    1    3    3    0  502 -0.21933638449E+02 -0.23201175530E+02 -0.54924664989E+02  0.63667654784E+02  0.41800000000E+01 0. -1.
        -11    1    1    2    0    0  0.32413832498E+02  0.13513701822E+02  0.31570142594E+01  0.35259657020E+02  0.00000000000E+00 0.  1.
         11    1    1    2    0    0 -0.52201048121E+02  0.52498558729E+02 -0.36227710150E+02  0.82422661182E+02  0.00000000000E+00 0. -1.
</event>
<event>
 7    1  0.2686828E-009  0.1006926E+03  0.7561462E-02  0.1278846E+00
          3   -1    0    0  501    0  0.00000000000E+00  0.00000000000E+00  0.27258580896E+03  0.27258580896E+03  0.00000000000E+00 0. -1.
         -3   -1    0    0    0  501 -0.00000000000E+00 -0.00000000000E+00 -0.54446124061E+02  0.54446124061E+02  0.00000000000E+00 0.  1.
         25    2    1    2    0    0  0.14440214706E+01  0.35359308248E+02  0.16373896102E+03  0.20906915448E+03  0.12508836126E+03 0.  0.
          5    1    3    3  502    0 -0.17865658147E+02 -0.33848880974E+02  0.10716268638E+02  0.39965476323E+02  0.41800000000E+01 0.  1.
         -5    1    3    3    0  502  0.19309679618E+02  0.69208189222E+02  0.15302269238E+03  0.16910367816E+03  0.41800000000E+01 0.  1.
        -11    1    1    2    0    0 -0.32977986406E+02  0.11068568277E+02  0.51002271654E+02  0.61735666392E+02  0.00000000000E+00 0. -1.
         11    1    1    2    0    0  0.31533964935E+02 -0.46427876525E+02  0.33984522277E+01  0.56227112150E+02  0.00000000000E+00 0.  1.
</event>
<event>
 7    1  0.2686828E-009  0.1216369E+03  0.7561462E-02  0.1240421E+00
         -2   -1    0    0    0  501 -0.00000000000E+00  0.00000000000E+00  0.50023934504E+02  0.50023934504E+02  0.00000000000E+00 0. -1.
          2   -1    0    0  501    0  0.00000000000E+00 -0.00000000000E+00 -0.51885822307E+03  0.51885822307E+03  0.00000000000E+00 0.  1.
         25    2    1    2    0    0  0.33729241609E+01 -0.96913928534E+02 -0.35833154224E+03  0.39173128380E+03  0.12509283906E+03 0.  0.
          5    1    3    3  502    0  0.41841640948E+02 -0.44159553636E+02 -0.57310120150E+02  0.83682204597E+02  0.41800000000E+01 0.  1.
         -5    1    3    3    0  502 -0.38468716787E+02 -0.52754374898E+02 -0.30102142209E+03  0.30804907921E+03  0.41800000000E+01 0.  1.
        -11    1    1    2    0    0  0.98102133412E+01 -0.70467834929E+01 -0.59299683278E+02  0.60517351894E+02  0.00000000000E+00 0.  1.
         11    1    1    2    0    0 -0.13183137502E+02  0.10396071203E+03 -0.51203063043E+02  0.11663352187E+03  0.00000000000E+00 0. -1.
</event>
<event>
 7    1  0.2686828E-009  0.2067781E+03  0.7561462E-02  0.1144143E+00
          1   -1    0    0  501    0  0.00000000000E+00  0.00000000000E+00  0.29726364217E+03  0.29726364217E+03  0.00000000000E+00 0. -1.
         -1   -1    0    0    0  501 -0.00000000000E+00 -0.00000000000E+00 -0.31299409139E+03  0.31299409139E+03  0.00000000000E+00 0.  1.
         25    2    1    2    0    0 -0.17975717171E+03 -0.36045961631E+02  0.20994818007E+03  0.30551337588E+03  0.12509289507E+03 0.  0.
          5    1    3    3  502    0 -0.12269520255E+03  0.25417260786E+02  0.73586950629E+02  0.14537077278E+03  0.41800000000E+01 0. -1.
         -5    1    3    3    0  502 -0.57061969154E+02 -0.61463222417E+02  0.13636122944E+03  0.16014260310E+03  0.41800000000E+01 0. -1.
        -11    1    1    2    0    0  0.17937090540E+03  0.53170389056E+02 -0.21258406309E+03  0.28318367865E+03  0.00000000000E+00 0.  1.
         11    1    1    2    0    0  0.38626630841E+00 -0.17124427425E+02 -0.13094566206E+02  0.21560679034E+02  0.00000000000E+00 0. -1.
</event>
<event>
 7    1  0.2686828E-009  0.1046521E+03  0.7561462E-02  0.1270807E+00
          1   -1    0    0  501    0  0.00000000000E+00  0.00000000000E+00  0.25426199425E+03  0.25426199425E+03  0.00000000000E+00 0. -1.
         -1   -1    0    0    0  501 -0.00000000000E+00 -0.00000000000E+00 -0.13432950169E+03  0.13432950169E+03  0.00000000000E+00 0.  1.
         25    2    1    2    0    0  0.79754440383E+02 -0.17854719603E+02 -0.69258684600E+02  0.16469317457E+03  0.12509002592E+03 0.  0.
          5    1    3    3  502    0  0.43642686220E+02 -0.58375407928E+02 -0.80956530528E+02  0.10901286413E+03  0.41800000000E+01 0.  1.
         -5    1    3    3    0  502  0.36111754163E+02  0.40520688325E+02  0.11697845928E+02  0.55680310438E+02  0.41800000000E+01 0.  1.
        -11    1    1    2    0    0 -0.26550013063E+02  0.37075832824E+01 -0.54334969460E-01  0.26807691429E+02  0.00000000000E+00 0.  1.
         11    1    1    2    0    0 -0.53204427320E+02  0.14147136320E+02  0.18924551213E+03  0.19709062995E+03  0.00000000000E+00 0. -1.
</event>
<event>
 7    1  0.2686828E-009  0.1866063E+03  0.7561462E-02  0.1161558E+00
          1   -1    0    0  501    0  0.00000000000E+00  0.00000000000E+00  0.28790907809E+03  0.28790907809E+03  0.00000000000E+00 0. -1.
         -1   -1    0    0    0  501 -0.00000000000E+00 -0.00000000000E+00 -0.12937235214E+03  0.12937235214E+03  0.00000000000E+00 0.  1.
         25    2    1    2    0    0  0.12465669123E+03 -0.94153491036E+02  0.54464842724E+02  0.20740845760E+03  0.12509068170E+03 0.  0.
          5    1    3    3  502    0 -0.20585129892E+02 -0.30181343832E+02 -0.65054216972E+01  0.37342388778E+02  0.41800000000E+01 0. -1.
         -5    1    3    3    0  502  0.14524182112E+03 -0.63972147204E+02  0.60970264421E+02  0.17006606882E+03  0.41800000000E+01 0. -1.
        -11    1    1    2    0    0 -0.49964730013E+01 -0.14940589881E+02 -0.26019476081E+01  0.15967344795E+02  0.00000000000E+00 0.  1.
         11    1    1    2    0    0 -0.11966021823E+03  0.10909408092E+03  0.10667383084E+03  0.19390562783E+03  0.00000000000E+00 0. -1.
</event>
<event>
 7    1  0.2686828E-009  0.1048629E+03  0.7561462E-02  0.1270390E+00
          1   -1    0    0  501    0  0.00000000000E+00  0.00000000000E+00  0.19990446302E+02  0.19990446302E+02  0.00000000000E+00 0. -1.
         -1   -1    0    0    0  501 -0.00000000000E+00 -0.00000000000E+00 -0.64561258731E+03  0.64561258731E+03  0.00000000000E+00 0.  1.
         25    2    1    2    0    0 -0.25722775839E+02  0.79879602718E+00 -0.29667354002E+03  0.32299106387E+03  0.12508292738E+03 0.  0.
          5    1    3    3  502    0  0.48653402410E+02  0.73309864139E+01 -0.15667771624E+03  0.16427500143E+03  0.41800000000E+01 0.  1.
         -5    1    3    3    0  502 -0.74376178249E+02 -0.65321903867E+01 -0.13999582378E+03  0.15871606244E+03  0.41800000000E+01 0.  1.
        -11    1    1    2    0    0 -0.29367566083E+02 -0.68174144531E+01 -0.51438844425E+02  0.59622863008E+02  0.00000000000E+00 0. -1.
         11    1    1    2    0    0  0.55090341922E+02  0.60186184259E+01 -0.27750975656E+03  0.28298910673E+03  0.00000000000E+00 0.  1.
</event>
<event>
 7    1  0.2686828E-009  0.1287517E+03  0.7561462E-02  0.1229320E+00
          2   -1    0    0  501    0  0.00000000000E+00  0.00000000000E+00  0.24354082222E+03  0.24354082222E+03  0.00000000000E+00 0. -1.
         -2   -1    0    0    0  501 -0.00000000000E+00 -0.00000000000E+00 -0.74704538032E+02  0.74704538032E+02  0.00000000000E+00 0.  1.
         25    2    1    2    0    0 -0.42280178568E+02 -0.67559228252E+02  0.81152080702E+02  0.16907043042E+03  0.12508911790E+03 0.  0.
          5    1    3    3  502    0 -0.41659238999E+02 -0.10199891976E+03  0.76186045578E+02  0.13401887094E+03  0.41800000000E+01 0. -1.
         -5    1    3    3    0  502 -0.62093956928E+00  0.34439691509E+02  0.49660351241E+01  0.35051559481E+02  0.41800000000E+01 0. -1.
        -11    1    1    2    0    0  0.35502032190E+02  0.85925369136E+02  0.90079161015E+02  0.12945199342E+03  0.00000000000E+00 0.  1.
         11    1    1    2    0    0  0.67781463778E+01 -0.18366140884E+02 -0.23949575292E+01  0.19722936416E+02  0.00000000000E+00 0. -1.
</event>
<event>
 7    1  0.2686828E-009  0.8863238E+02  0.7561462E-02  0.1306198E+00
          2   -1    0    0  501    0  0.00000000000E+00  0.00000000000E+00  0.24411327264E+03  0.24411327264E+03  0.00000000000E+00 0.  1.
         -2   -1    0    0    0  501 -0.00000000000E+00 -0.00000000000E+00 -0.58900169066E+02  0.58900169066E+02  0.00000000000E+00 0. -1.
         25    2    1    2    0    0  0.12523783774E+02  0.51023327112E+02  0.11494689306E+03  0.17782057540E+03  0.12508854360E+03 0.  0.
          5    1    3    3  502    0  0.18730124955E+02 -0.47163934560E+01  0.11975601099E+03  0.12137560100E+03  0.41800000000E+01 0. -1.
         -5    1    3    3    0  502 -0.62063411806E+01  0.55739720568E+02 -0.48091179286E+01  0.56444974401E+02  0.41800000000E+01 0. -1.
        -11    1    1    2    0    0 -0.48931617883E+02 -0.40065525925E+02  0.30630412014E+02  0.70269280176E+02  0.00000000000E+00 0. -1.
         11    1    1    2    0    0  0.36407834108E+02 -0.10957801187E+02  0.39635798492E+02  0.54923586130E+02  0.00000000000E+00 0.  1.
</event>
<event>
 7    1  0.2686828E-009  0.9529799E+02  0.7561462E-02  0.1290506E+00
          1   -1    0    0  501    0  0.00000000000E+00  0.00000000000E+00  0.75775800315E+03  0.75775800315E+03  0.00000000000E+00 0. -1.
         -1   -1    0    0    0  501 -0.00000000000E+00 -0.00000000000E+00 -0.28901241538E+02  0.28901241538E+02  0.00000000000E+00 0.  1.
         25    2    1    2    0    0 -0.33058321002E+02  0.44464721189E+02  0.58886470819E+03  0.60454849010E+03  0.12508904156E+03 0.  0.
          5    1    3    3  502    0 -0.46261110408E+02 -0.26757019960E+02  0.37262316604E+03  0.37645919397E+03  0.41800000000E+01 0. -1.
         -5    1    3    3    0  502  0.13202789406E+02  0.71221741148E+02  0.21624154215E+03  0.22808929613E+03  0.41800000000E+01 0. -1.
        -11    1    1    2    0    0  0.27407326964E+02 -0.94852042999E+01 -0.78792073507E+01  0.30053495311E+02  0.00000000000E+00 0.  1.
         11    1    1    2    0    0  0.56509940376E+01 -0.34979516889E+02  0.14787126077E+03  0.15205725927E+03  0.00000000000E+00 0. -1.
</event>
<event>
 7    1  0.2686828E-009  0.1140370E+03  0.7561462E-02  0.1253272E+00
          1   -1    0    0  501    0  0.00000000000E+00  0.00000000000E+00  0.55585999753E+03  0.55585999753E+03  0.00000000000E+00 0. -1.
         -1   -1    0    0    0  501 -0.00000000000E+00 -0.00000000000E+00 -0.51303235311E+02  0.51303235311E+02  0.00000000000E+00 0.  1.
         25    2    1    2    0    0 -0.72588328612E+02  0.23422452367E+02  0.45362536665E+03  0.47669836596E+03  0.12509069559E+03 0.  0.
          5    1    3    3  502    0 -0.45852271731E+02  0.75129735900E+02  0.27793209011E+03  0.29156581959E+03  0.41800000000E+01 0. -1.
         -5    1    3    3    0  502 -0.26736056881E+02 -0.51707283533E+02  0.17569327653E+03  0.18513254637E+03  0.41800000000E+01 0. -1.
        -11    1    1    2    0    0  0.26838647880E+02  0.56033413212E+01 -0.25054487961E+02  0.37140783796E+02  0.00000000000E+00 0.  1.
         11    1    1    2    0    0  0.45749680732E+02 -0.29025793689E+02  0.75985883539E+02  0.93324083084E+02  0.00000000000E+00 0. -1.
</event>
<event>
 7    1  0.4381549E-009  0.1546446E+03  0.7561462E-02  0.1194879E+00
          1   -1    0    0  501    0  0.00000000000E+00  0.00000000000E+00  0.82806454644E+03  0.82806454644E+03  0.00000000000E+00 0. -1.
         -1   -1    0    0    0  501 -0.00000000000E+00 -0.00000000000E+00 -0.34892872866E+02  0.34892872866E+02  0.00000000000E+00 0.  1.
         25    2    1    2    0    0  0.10260947937E+03  0.80358135870E+02  0.43021957964E+03  0.46660781325E+03  0.12509128439E+03 0.  0.
          5    1    3    3  502    0  0.10866474636E+03  0.14719294720E+02  0.21356284346E+03  0.24010673719E+03  0.41800000000E+01 0.  1.
         -5    1    3    3    0  502 -0.60552669915E+01  0.65638841149E+02  0.21665673618E+03  0.22650107606E+03  0.41800000000E+01 0.  1.
        -11    1    1    2    0    0 -0.52738909641E+02 -0.23113876804E+02  0.27126776439E+03  0.27731181707E+03  0.00000000000E+00 0. -1.
         11    1    1    2    0    0 -0.49870569728E+02 -0.57244259066E+02  0.91684329551E+02  0.11903778898E+03  0.00000000000E+00 0.  1.
</event>
<event>
 7    1  0.2686828E-009  0.6510156E+02  0.7561462E-02  0.1377590E+00
          2   -1    0    0  501    0  0.00000000000E+00  0.00000000000E+00  0.34099453160E+02  0.34099453160E+02  0.00000000000E+00 0. -1.
         -2   -1    0    0    0  501 -0.00000000000E+00 -0.00000000000E+00 -0.51997675539E+03  0.51997675539E+03  0.00000000000E+00 0.  1.
         25    2    1    2    0    0 -0.45767990145E+01 -0.33513304931E+02 -0.41449719670E+03  0.43427979990E+03  0.12508768855E+03 0.  0.
          5    1    3    3  502    0  0.96762778012E+01 -0.32797772893E+02 -0.20676670609E+02  0.40178618273E+02  0.41800000000E+01 0.  1.
         -5    1    3    3    0  502 -0.14253076816E+02 -0.71553203716E+00 -0.39382052610E+03  0.39410118163E+03  0.41800000000E+01 0.  1.
        -11    1    1    2    0    0  0.32357668121E+02  0.40885104165E+02 -0.74448172815E+02  0.90890818372E+02  0.00000000000E+00 0.  1.
         11    1    1    2    0    0 -0.27780869106E+02 -0.73717992340E+01  0.30680672942E+01  0.28905590276E+02  0.00000000000E+00 0. -1.
</event>
<event>
 7    1  0.2686828E-009  0.2115430E+03  0.7561462E-02  0.1140350E+00
         -1   -1    0    0    0  501 -0.00000000000E+00  0.00000000000E+00  0.22241560723E+03  0.22241560723E+03  0.00000000000E+00 0.  1.
          1   -1    0    0  501    0  0.00000000000E+00 -0.00000000000E+00 -0.23605213025E+03  0.23605213025E+03  0.00000000000E+00 0. -1.
         25    2    1    2    0    0  0.17244330781E+03  0.10476395456E+03 -0.30698970023E+01  0.23742236164E+03  0.12509105865E+03 0.  0.
          5    1    3    3  502    0  0.92792228293E+02  0.76759495621E+02 -0.60886520084E+02  0.13500762396E+03  0.41800000000E+01 0. -1.
         -5    1    3    3    0  502  0.79651079522E+02  0.28004458941E+02  0.57816623082E+02  0.10241473768E+03  0.41800000000E+01 0. -1.
        -11    1    1    2    0    0 -0.15978204962E+03 -0.58606761344E+02 -0.22622341152E+02  0.17168816551E+03  0.00000000000E+00 0. -1.
         11    1    1    2    0    0 -0.12661258194E+02 -0.46157193217E+02  0.12055715138E+02  0.49357210337E+02  0.00000000000E+00 0.  1.
</event>
<event>
 7    1  0.2686828E-009  0.8362033E+02  0.7561462E-02  0.1319080E+00
         -2   -1    0    0    0  501 -0.00000000000E+00  0.00000000000E+00  0.42933482702E+02  0.42933482702E+02  0.00000000000E+00 0.  1.
          2   -1    0    0  501    0  0.00000000000E+00 -0.00000000000E+00 -0.34805447559E+03  0.34805447559E+03  0.00000000000E+00 0. -1.
         25    2    1    2    0    0 -0.32016041118E+02  0.25796244234E+02 -0.24544693711E+03  0.27853547034E+03  0.12508931289E+03 0.  0.
          5    1    3    3  502    0 -0.68921574116E+02  0.24044989132E+02 -0.77597946663E+02  0.10661734665E+03  0.41800000000E+01 0. -1.
         -5    1    3    3    0  502  0.36905532998E+02  0.17512551015E+01 -0.16784899044E+03  0.17191812369E+03  0.41800000000E+01 0. -1.
        -11    1    1    2    0    0  0.20817386632E+02  0.72554036748E+01  0.17243786660E+02  0.27988437739E+02  0.00000000000E+00 0.  1.
         11    1    1    2    0    0  0.11198654486E+02 -0.33051647909E+02 -0.76917842443E+02  0.84464050209E+02  0.00000000000E+00 0. -1.
</event>
<event>
 7    1  0.2686828E-009  0.1642587E+03  0.7561462E-02  0.1183971E+00
         -2   -1    0    0    0  501 -0.00000000000E+00  0.00000000000E+00  0.85680194820E+02  0.85680194820E+02  0.00000000000E+00 0.  1.
          2   -1    0    0  501    0  0.00000000000E+00 -0.00000000000E+00 -0.36238024190E+03  0.36238024190E+03  0.00000000000E+00 0. -1.
         25    2    1    2    0    0 -0.13935741853E+03 -0.82903550138E-01 -0.16998658193E+03  0.25291471815E+03  0.12509963888E+03 0.  0.
          5    1    3    3  502    0  0.91684146337E+01  0.25991429645E+02 -0.60194933809E+02  0.66336390452E+02  0.41800000000E+01 0. -1.
         -5    1    3    3    0  502 -0.14852583317E+03 -0.26074333195E+02 -0.10979164812E+03  0.18657832770E+03  0.41800000000E+01 0. -1.
        -11    1    1    2    0    0  0.11356227296E+03 -0.22184982353E+02 -0.44039300565E+02  0.12380639432E+03  0.00000000000E+00 0.  1.
         11    1    1    2    0    0  0.25795145575E+02  0.22267885903E+02 -0.62674164586E+02  0.71339324250E+02  0.00000000000E+00 0. -1.
</event>
<event>
 7    1  0.2686828E-009  0.1525486E+03  0.7561462E-02  0.1197376E+00
         -1   -1    0    0    0  501 -0.00000000000E+00  0.00000000000E+00  0.69750823078E+02  0.69750823078E+02  0.00000000000E+00 0.  1.
          1   -1    0    0  501    0  0.00000000000E+00 -0.00000000000E+00 -0.42524577444E+03  0.42524577444E+03  0.00000000000E+00 0. -1.
         25    2    1    2    0    0 -0.12051626709E+03 -0.38765983553E+02 -0.12598718376E+03  0.21805964720E+03  0.12510102778E+03 0.  0.
          5    1    3    3  502    0 -0.78359326691E+02 -0.78640979131E+02 -0.48643126115E+02  0.12127742492E+03  0.41800000000E+01 0. -1.
         -5    1    3    3    0  502 -0.42156940396E+02  0.39874995578E+02 -0.77344057643E+02  0.96782222275E+02  0.41800000000E+01 0. -1.
        -11    1    1    2    0    0  0.74929673683E+02  0.48438102931E+02 -0.20653021149E+03  0.22497874138E+03  0.00000000000E+00 0. -1.
         11    1    1    2    0    0  0.45586593403E+02 -0.96721193774E+01 -0.22977556116E+02  0.51958208942E+02  0.00000000000E+00 0.  1.
</event>
<event>
 7    1  0.2686828E-009  0.1151153E+03  0.7561462E-02  0.1251380E+00
         -1   -1    0    0    0  501 -0.00000000000E+00  0.00000000000E+00  0.49253765781E+03  0.49253765781E+03  0.00000000000E+00 0.  1.
          1   -1    0    0  501    0  0.00000000000E+00 -0.00000000000E+00 -0.48593776676E+02  0.48593776676E+02  0.00000000000E+00 0. -1.
         25    2    1    2    0    0 -0.39465806096E+02 -0.67170121465E+02  0.37666425141E+03  0.40446684576E+03  0.12509234974E+03 0.  0.
          5    1    3    3  502    0  0.84707651100E+01  0.14102199550E+02  0.22606265416E+03  0.22669896757E+03  0.41800000000E+01 0.  1.
         -5    1    3    3    0  502 -0.47936571206E+02 -0.81272321015E+02  0.15060159725E+03  0.17776787819E+03  0.41800000000E+01 0.  1.
        -11    1    1    2    0    0  0.24009541337E+02 -0.19400930832E+02  0.14528619797E+02  0.34116491402E+02  0.00000000000E+00 0.  1.
         11    1    1    2    0    0  0.15456264759E+02  0.86571052297E+02  0.52751009932E+02  0.10254809732E+03  0.00000000000E+00 0. -1.
</event>
<event>
 7    1  0.2686828E-009  0.5316337E+02  0.7561462E-02  0.1428990E+00
          1   -1    0    0  501    0  0.00000000000E+00  0.00000000000E+00  0.63968639738E+02  0.63968639738E+02  0.00000000000E+00 0. -1.
         -1   -1    0    0    0  501 -0.00000000000E+00 -0.00000000000E+00 -0.19884036408E+03  0.19884036408E+03  0.00000000000E+00 0.  1.
         25    2    1    2    0    0 -0.13319939106E+02 -0.29014384602E+02 -0.66967851905E+02  0.14543502488E+03  0.12508955984E+03 0.  0.
          5    1    3    3  502    0  0.22402047406E+02 -0.23460836227E+02  0.28427251418E+02  0.43334092671E+02  0.41800000000E+01 0.  1.
         -5    1    3    3    0  502 -0.35721986512E+02 -0.55535483750E+01 -0.95395103323E+02  0.10210093221E+03  0.41800000000E+01 0.  1.
        -11    1    1    2    0    0 -0.28342666276E+01  0.16638105608E+02 -0.87505803118E+02  0.89118601902E+02  0.00000000000E+00 0.  1.
         11    1    1    2    0    0  0.16154205734E+02  0.12376278994E+02  0.19601930685E+02  0.28255377032E+02  0.00000000000E+00 0. -1.
</event>
<event>
 7    1  0.2686828E-009  0.1276920E+03  0.7561462E-02  0.1230921E+00
          4   -1    0    0  501    0  0.00000000000E+00  0.00000000000E+00  0.19325929309E+03  0.19325929309E+03  0.00000000000E+00 0. -1.
         -4   -1    0    0    0  501 -0.00000000000E+00 -0.00000000000E+00 -0.17054918083E+03  0.17054918083E+03  0.00000000000E+00 0.  1.
         25    2    1    2    0    0 -0.74593709718E+02  0.63746019440E+02 -0.95527019226E+02  0.18547657407E+03  0.12509345147E+03 0.  0.
          5    1    3    3  502    0  0.19520921560E+02  0.17699222949E+02  0.17024122697E+02  0.31648412679E+02  0.41800000000E+01 0.  1.
         -5    1    3    3    0  502 -0.94114631278E+02  0.46046796492E+02 -0.11255114192E+03  0.15382816139E+03  0.41800000000E+01 0.  1.
        -11    1    1    2    0    0  0.81433816482E+02 -0.25998276399E+02  0.10962530912E+03  0.13901469434E+03  0.00000000000E+00 0. -1.
         11    1    1    2    0    0 -0.68401067634E+01 -0.37747743041E+02  0.86118223646E+01  0.39317205517E+02  0.00000000000E+00 0.  1.
</event>
<event>
 7    1  0.2686828E-009  0.1261332E+03  0.7561462E-02  0.1233309E+00
         -2   -1    0    0    0  501 -0.00000000000E+00  0.00000000000E+00  0.42059047325E+02  0.42059047325E+02  0.00000000000E+00 0.  1.
          2   -1    0    0  501    0  0.00000000000E+00 -0.00000000000E+00 -0.44068086628E+03  0.44068086628E+03  0.00000000000E+00 0. -1.
         25    2    1    2    0    0 -0.23104924271E+02  0.78554991022E+02 -0.21448522776E+03  0.26145288785E+03  0.12509586522E+03 0.  0.
          5    1    3    3  502    0 -0.42880746791E+02 -0.20997068045E+02 -0.68630745519E+02  0.83709539136E+02  0.41800000000E+01 0. -1.
         -5    1    3    3    0  502  0.19775822520E+02  0.99552059066E+02 -0.14585448224E+03  0.17774334871E+03  0.41800000000E+01 0. -1.
        -11    1    1    2    0    0 -0.92353312241E+01  0.68065032441E+01  0.40203919108E+01  0.12156618788E+02  0.00000000000E+00 0.  1.
         11    1    1    2    0    0  0.32340255496E+02 -0.85361494266E+02 -0.18815698311E+03  0.20913040697E+03  0.00000000000E+00 0. -1.
</event>
<event>
 7    1  0.2686828E-009  0.1081746E+03  0.7561462E-02  0.1263988E+00
          1   -1    0    0  501    0  0.00000000000E+00  0.00000000000E+00  0.87943112729E+02  0.87943112729E+02  0.00000000000E+00 0. -1.
         -1   -1    0    0    0  501 -0.00000000000E+00 -0.00000000000E+00 -0.28969165734E+03  0.28969165734E+03  0.00000000000E+00 0.  1.
         25    2    1    2    0    0 -0.50056295965E+02 -0.25484442756E+02 -0.22979527265E+03  0.26759765905E+03  0.12509016830E+03 0.  0.
          5    1    3    3  502    0 -0.55758680368E+02  0.35475050815E+02 -0.69687772725E+02  0.96132032820E+02  0.41800000000E+01 0. -1.
         -5    1    3    3    0  502  0.57023844025E+01 -0.60959493572E+02 -0.16010749993E+03  0.17146562623E+03  0.41800000000E+01 0. -1.
        -11    1    1    2    0    0 -0.20004788462E+01  0.35663246579E+02  0.42054045405E+02  0.55176188769E+02  0.00000000000E+00 0. -1.
         11    1    1    2    0    0  0.52056774811E+02 -0.10178803823E+02 -0.14007317365E+02  0.54860922256E+02  0.00000000000E+00 0.  1.
</event>
<event>
 7    1  0.2686828E-009  0.1126486E+03  0.7561462E-02  0.1255742E+00
         -2   -1    0    0    0  501 -0.00000000000E+00  0.00000000000E+00  0.31687010475E+02  0.31687010475E+02  0.00000000000E+00 0.  1.
          2   -1    0    0  501    0  0.00000000000E+00 -0.00000000000E+00 -0.45067666521E+03  0.45067666521E+03  0.00000000000E+00 0. -1.
         25    2    1    2    0    0  0.36662724558E+02 -0.20198140889E+02 -0.28814113774E+03  0.31689366837E+03  0.12507662263E+03 0.  0.
          5    1    3    3  502    0 -0.22922210620E+02 -0.51794149758E+02 -0.18555522406E+03  0.19405224880E+03  0.41800000000E+01 0. -1.
         -5    1    3    3    0  502  0.59584935178E+02  0.31596008869E+02 -0.10258591368E+03  0.12284141957E+03  0.41800000000E+01 0. -1.
        -11    1    1    2    0    0 -0.66100794313E+02  0.16214156508E+01 -0.92174527350E+02  0.11343759293E+03  0.00000000000E+00 0.  1.
         11    1    1    2    0    0  0.29438069755E+02  0.18576725238E+02 -0.38673989641E+02  0.52032414380E+02  0.00000000000E+00 0. -1.
</event>
<event>
 7    1  0.2686828E-009  0.1832673E+03  0.7561462E-02  0.1164678E+00
          3   -1    0    0  501    0  0.00000000000E+00  0.00000000000E+00  0.53065386017E+02  0.53065386017E+02  0.00000000000E+00 0. -1.
         -3   -1    0    0    0  501 -0.00000000000E+00 -0.00000000000E+00 -0.66402335847E+03  0.66402335847E+03  0.00000000000E+00 0.  1.
         25    2    1    2    0    0 -0.55291226465E+02  0.14388086534E+03 -0.37624039379E+03  0.42539902843E+03  0.12509466948E+03 0.  0.
          5    1    3    3  502    0 -0.33184089905E+01  0.14486431975E+03 -0.25315686929E+03  0.29172342354E+03  0.41800000000E+01 0.  1.
         -5    1    3    3    0  502 -0.51972817475E+02 -0.98345440088E+00 -0.12308352450E+03  0.13367560489E+03  0.41800000000E+01 0.  1.
        -11    1    1    2    0    0  0.54081320033E+02 -0.44505811627E+02 -0.68132787309E+02  0.97711990828E+02  0.00000000000E+00 0. -1.
         11    1    1    2    0    0  0.12099064325E+01 -0.99375053717E+02 -0.16658479135E+03  0.19397772523E+03  0.00000000000E+00 0.  1.
</event>
<event>
 7    1  0.2686828E-009  0.1076464E+03  0.7561462E-02  0.1264992E+00
         -2   -1    0    0    0  501 -0.00000000000E+00  0.00000000000E+00  0.14219410631E+02  0.14219410631E+02  0.00000000000E+00 0.  1.
          2   -1    0    0  501    0  0.00000000000E+00 -0.00000000000E+00 -0.99114488430E+03  0.99114488430E+03  0.00000000000E+00 0. -1.
         25    2    1    2    0    0  0.37837790848E+02 -0.18794643115E+02 -0.64471986646E+03  0.65810008965E+03  0.12508830788E+03 0.  0.
          5    1    3    3  502    0 -0.37632510501E+02  0.32728329545E+01 -0.38059291090E+03  0.38248575596E+03  0.41800000000E+01 0.  1.
         -5    1    3    3    0  502  0.75470301349E+02 -0.22067476070E+02 -0.26412695555E+03  0.27561433369E+03  0.41800000000E+01 0.  1.
        -11    1    1    2    0    0 -0.41059062109E+02 -0.29238150960E+02 -0.20887837721E+03  0.21487413181E+03  0.00000000000E+00 0. -1.
         11    1    1    2    0    0  0.32212712609E+01  0.48032794075E+02 -0.12332723000E+03  0.13239007348E+03  0.00000000000E+00 0.  1.
</event>
<event>
 7    1  0.2686828E-009  0.1321021E+03  0.7561462E-02  0.1224370E+00
          1   -1    0    0  501    0  0.00000000000E+00  0.00000000000E+00  0.30238001039E+03  0.30238001039E+03  0.00000000000E+00 0. -1.
         -1   -1    0    0    0  501 -0.00000000000E+00 -0.00000000000E+00 -0.77485165977E+02  0.77485165977E+02  0.00000000000E+00 0.  1.
         25    2    1    2    0    0  0.65201756682E+01 -0.10549237746E+03  0.14879738453E+03  0.22126325517E+03  0.12508242105E+03 0.  0.
          5    1    3    3  502    0  0.32843081943E+02 -0.21725385440E+02  0.12364375936E+03  0.12983032016E+03  0.41800000000E+01 0. -1.
         -5    1    3    3    0  502 -0.26322906275E+02 -0.83766992018E+02  0.25153625173E+02  0.91432935017E+02  0.41800000000E+01 0. -1.
        -11    1    1    2    0    0  0.15233942100E+02  0.11274410329E+03  0.51216021385E+02  0.12476532637E+03  0.00000000000E+00 0.  1.
         11    1    1    2    0    0 -0.21754117768E+02 -0.72517258318E+01  0.24881438501E+02  0.33836594824E+02  0.00000000000E+00 0. -1.
</event>
<event>
 7    1  0.2686828E-009  0.5996954E+02  0.7561462E-02  0.1397960E+00
         -2   -1    0    0    0  501 -0.00000000000E+00  0.00000000000E+00  0.20130162404E+02  0.20130162404E+02  0.00000000000E+00 0.  1.
          2   -1    0    0  501    0  0.00000000000E+00 -0.00000000000E+00 -0.76790119161E+03  0.76790119161E+03  0.00000000000E+00 0. -1.
         25    2    1    2    0    0 -0.47406164698E+01  0.23796047331E+02 -0.59379555878E+03  0.60731370591E+03  0.12509215182E+03 0.  0.
          5    1    3    3  502    0  0.98311919205E+01  0.38408177191E+01  0.15352068774E+01  0.11455718026E+02  0.41800000000E+01 0. -1.
         -5    1    3    3    0  502 -0.14571808390E+02  0.19955229612E+02 -0.59533076565E+03  0.59585798788E+03  0.41800000000E+01 0. -1.
        -11    1    1    2    0    0 -0.15779165211E+02  0.25580536033E+02 -0.10127733928E+03  0.10564300890E+03  0.00000000000E+00 0. -1.
         11    1    1    2    0    0  0.20519781681E+02 -0.49376583364E+02 -0.52698131150E+02  0.75074639204E+02  0.00000000000E+00 0.  1.
</event>
<event>
 7    1  0.2702192E-009  0.1485491E+03  0.7561462E-02  0.1202267E+00
         -1   -1    0    0    0  501 -0.00000000000E+00  0.00000000000E+00  0.79867038310E+02  0.79867038310E+02  0.00000000000E+00 0.  1.
          1   -1    0    0  501    0  0.00000000000E+00 -0.00000000000E+00 -0.49653097102E+03  0.49653097102E+03  0.00000000000E+00 0. -1.
         25    2    1    2    0    0  0.10377557222E+03  0.77540830345E+02 -0.37010870386E+03  0.41159757451E+03  0.12510060318E+03 0.  0.
          5    1    3    3  502    0  0.32040841378E+02  0.81811570299E+02 -0.10543063466E+03  0.13730564328E+03  0.41800000000E+01 0. -1.
         -5    1    3    3    0  502  0.71734730841E+02 -0.42707399539E+01 -0.26467806920E+03  0.27429193124E+03  0.41800000000E+01 0. -1.
        -11    1    1    2    0    0 -0.70034371972E+02 -0.24317251103E+02  0.16178343573E+02  0.75880700836E+02  0.00000000000E+00 0.  1.
         11    1    1    2    0    0 -0.33741200248E+02 -0.53223579242E+02 -0.62733572429E+02  0.88919733981E+02  0.00000000000E+00 0. -1.
</event>
<event>
 7    1  0.2686828E-009  0.9435211E+02  0.7561462E-02  0.1292642E+00
          1   -1    0    0  501    0  0.00000000000E+00  0.00000000000E+00  0.23580915789E+02  0.23580915789E+02  0.00000000000E+00 0. -1.
         -1   -1    0    0    0  501 -0.00000000000E+00 -0.00000000000E+00 -0.55994428443E+03  0.55994428443E+03  0.00000000000E+00 0.  1.
         25    2    1    2    0    0  0.19454341672E+02 -0.89206047874E+01 -0.38449304788E+03  0.40489653884E+03  0.12509298419E+03 0.  0.
          5    1    3    3  502    0  0.38809830250E+02  0.37084659778E+02 -0.31304594280E+03  0.31764242414E+03  0.41800000000E+01 0.  1.
         -5    1    3    3    0  502 -0.19355488578E+02 -0.46005264565E+02 -0.71447105086E+02  0.87254114694E+02  0.41800000000E+01 0.  1.
        -11    1    1    2    0    0  0.13942667273E+02  0.38010349527E+02 -0.34543333854E+02  0.53220546367E+02  0.00000000000E+00 0. -1.
         11    1    1    2    0    0 -0.33397008945E+02 -0.29089744739E+02 -0.11732698690E+03  0.12540811501E+03  0.00000000000E+00 0.  1.
</event>
<event>
 7    1  0.2686828E-009  0.1015860E+03  0.7561462E-02  0.1276996E+00
          4   -1    0    0  501    0  0.00000000000E+00  0.00000000000E+00  0.37841681189E+03  0.37841681189E+03  0.00000000000E+00 0. -1.
         -4   -1    0    0    0  501 -0.00000000000E+00 -0.00000000000E+00 -0.32974585142E+02  0.32974585142E+02  0.00000000000E+00 0.  1.
         25    2    1    2    0    0  0.20634578797E+02  0.17814490955E+02  0.20829400918E+03  0.24449280544E+03  0.12508875139E+03 0.  0.
          5    1    3    3  502    0  0.65381362437E+02 -0.20285234279E+02  0.10096753060E+03  0.12205788757E+03  0.41800000000E+01 0.  1.
         -5    1    3    3    0  502 -0.44746783640E+02  0.38099725235E+02  0.10732647858E+03  0.12243491787E+03  0.41800000000E+01 0.  1.
        -11    1    1    2    0    0  0.69270765848E+01 -0.39809853400E+02  0.12200424352E+03  0.12852176569E+03  0.00000000000E+00 0. -1.
         11    1    1    2    0    0 -0.27561655382E+02  0.21995362444E+02  0.15143974046E+02  0.38376825903E+02  0.00000000000E+00 0.  1.
</event>
<event>
 7    1  0.2686828E-009  0.1327735E+03  0.7561462E-02  0.1223397E+00
         -2   -1    0    0    0  501 -0.00000000000E+00  0.00000000000E+00  0.45736747081E+03  0.45736747081E+03  0.00000000000E+00 0.  1.
          2   -1    0    0  501    0  0.00000000000E+00 -0.00000000000E+00 -0.66122556836E+02  0.66122556836E+02  0.00000000000E+00 0. -1.
         25    2    1    2    0    0 -0.56433626809E+00  0.93220564930E+02  0.59349806378E+02  0.16691609695E+03  0.12509273241E+03 0.  0.
          5    1    3    3  502    0 -0.61623770849E+02  0.43028707200E+02  0.40793515415E+02  0.85618584880E+02  0.41800000000E+01 0.  1.
         -5    1    3    3    0  502  0.61059434581E+02  0.50191857729E+02  0.18556290963E+02  0.81297512065E+02  0.41800000000E+01 0.  1.
        -11    1    1    2    0    0  0.26925962894E+02 -0.73266997371E+02  0.30225295658E+03  0.31216968165E+03  0.00000000000E+00 0.  1.
         11    1    1    2    0    0 -0.26361626626E+02 -0.19953567559E+02  0.29642151016E+02  0.44404249049E+02  0.00000000000E+00 0. -1.
</event>
<event>
 7    1  0.2775822E-009  0.1098568E+03  0.7561462E-02  0.1260835E+00
         -2   -1    0    0    0  501 -0.00000000000E+00  0.00000000000E+00  0.50717765910E+02  0.50717765910E+02  0.00000000000E+00 0.  1.
          2   -1    0    0  501    0  0.00000000000E+00 -0.00000000000E+00 -0.29936466081E+03  0.29936466081E+03  0.00000000000E+00 0. -1.
         25    2    1    2    0    0  0.47761978539E+02 -0.72750995036E+01 -0.18602331656E+03  0.22931684038E+03  0.12508958915E+03 0.  0.
          5    1    3    3  502    0  0.82808211770E+02 -0.20147721945E+02 -0.80505332903E+02  0.11731032206E+03  0.41800000000E+01 0.  1.
         -5    1    3    3    0  502 -0.35046233231E+02  0.12872622441E+02 -0.10551798365E+03  0.11200651832E+03  0.41800000000E+01 0.  1.
        -11    1    1    2    0    0 -0.60587877385E+02  0.32328016283E+02 -0.23525774948E+02  0.72591002265E+02  0.00000000000E+00 0. -1.
         11    1    1    2    0    0  0.12825898846E+02 -0.25052916780E+02 -0.39097803395E+02  0.48174584074E+02  0.00000000000E+00 0.  1.
</event>
<event>
 7    1  0.2686828E-009  0.9658316E+02  0.7561462E-02  0.1287650E+00
         -2   -1    0    0    0  501 -0.00000000000E+00  0.00000000000E+00  0.25356449640E+02  0.25356449640E+02  0.00000000000E+00 0.  1.
          2   -1    0    0  501    0  0.00000000000E+00 -0.00000000000E+00 -0.68552676215E+03  0.68552676215E+03  0.00000000000E+00 0. -1.
         25    2    1    2    0    0 -0.30675189628E+02  0.68280809037E+02 -0.35515453867E+03  0.38390701923E+03  0.12508643786E+03 0.  0.
          5    1    3    3  502    0  0.17146129929E+02  0.54173407550E+02 -0.31398558500E+03  0.31911309570E+03  0.41800000000E+01 0.  1.
         -5    1    3    3    0  502 -0.47821319557E+02  0.14107401486E+02 -0.41168953666E+02  0.64793923533E+02  0.41800000000E+01 0.  1.
        -11    1    1    2    0    0  0.10704446475E+02  0.38014456299E+01  0.15073539120E+01  0.11458982461E+02  0.00000000000E+00 0.  1.
         11    1    1    2    0    0  0.19970743153E+02 -0.72082254667E+02 -0.30652312776E+03  0.31551721010E+03  0.00000000000E+00 0. -1.
</event>
<event>
 7    1  0.2686828E-009  0.1776148E+03  0.7561462E-02  0.1170132E+00
         -1   -1    0    0    0  501 -0.00000000000E+00  0.00000000000E+00  0.11933543656E+03  0.11933543656E+03  0.00000000000E+00 0.  1.
          1   -1    0    0  501    0  0.00000000000E+00 -0.00000000000E+00 -0.43853018642E+03  0.43853018642E+03  0.00000000000E+00 0. -1.
         25    2    1    2    0    0 -0.86859993741E+02  0.14223591125E+03 -0.30225393742E+03  0.36712508176E+03  0.12509064715E+03 0.  0.
          5    1    3    3  502    0 -0.93706200041E+02  0.13115120858E+03 -0.17052134913E+03  0.23468381782E+03  0.41800000000E+01 0.  1.
         -5    1    3    3    0  502  0.68462062994E+01  0.11084702672E+02 -0.13173258830E+03  0.13244126394E+03  0.41800000000E+01 0.  1.
        -11    1    1    2    0    0 -0.38906088771E+01 -0.52621651646E+02 -0.32937185701E+02  0.62201553528E+02  0.00000000000E+00 0. -1.
         11    1    1    2    0    0  0.90750602618E+02 -0.89614259603E+02  0.15996373272E+02  0.12853898769E+03  0.00000000000E+00 0.  1.
</event>
<event>
 7    1  0.2686828E-009  0.2006527E+03  0.7561462E-02  0.1149190E+00
         -2   -1    0    0    0  501 -0.00000000000E+00  0.00000000000E+00  0.57394438586E+02  0.57394438586E+02  0.00000000000E+00 0.  1.
          2   -1    0    0  501    0  0.00000000000E+00 -0.00000000000E+00 -0.11091738377E+04  0.11091738377E+04  0.00000000000E+00 0. -1.
         25    2    1    2    0    0 -0.98513580381E+02  0.15867175968E+03 -0.24021385784E+03  0.32898871495E+03  0.12509685937E+03 0.  0.
          5    1    3    3  502    0 -0.41685908833E+02  0.11971454258E+03 -0.22503086649E+03  0.25831308518E+03  0.41800000000E+01 0. -1.
         -5    1    3    3    0  502 -0.56827671548E+02  0.38957217099E+02 -0.15182991356E+02  0.70675629776E+02  0.41800000000E+01 0. -1.
        -11    1    1    2    0    0  0.45707257560E+02 -0.14335217216E+03 -0.54409561303E+03  0.56451663817E+03  0.00000000000E+00 0.  1.
         11    1    1    2    0    0  0.52806322821E+02 -0.15319587526E+02 -0.26746992821E+03  0.27306292313E+03  0.00000000000E+00 0. -1.
</event>
<event>
 7    1  0.2686828E-009  0.1026696E+03  0.7561462E-02  0.1274780E+00
          2   -1    0    0  501    0  0.00000000000E+00  0.00000000000E+00  0.24431451170E+03  0.24431451170E+03  0.00000000000E+00 0. -1.
         -2   -1    0    0    0  501 -0.00000000000E+00 -0.00000000000E+00 -0.91797669361E+02  0.91797669361E+02  0.00000000000E+00 0.  1.
         25    2    1    2    0    0 -0.51693486678E+02 -0.41731643959E+02 -0.63357048964E+01  0.14177498955E+03  0.12508501043E+03 0.  0.
          5    1    3    3  502    0 -0.17418466280E+02  0.17411666505E+02 -0.53211741848E+02  0.58783764498E+02  0.41800000000E+01 0.  1.
         -5    1    3    3    0  502 -0.34275020397E+02 -0.59143310464E+02  0.46876036952E+02  0.82991225055E+02  0.41800000000E+01 0.  1.
        -11    1    1    2    0    0  0.58245841645E+02  0.65246652424E+02  0.12115946869E+03  0.14942998553E+03  0.00000000000E+00 0.  1.
         11    1    1    2    0    0 -0.65523549670E+01 -0.23515008465E+02  0.37693078545E+02  0.44907205980E+02  0.00000000000E+00 0. -1.
</event>
<event>
 7    1  0.2686828E-009  0.1512034E+03  0.7561462E-02  0.1199002E+00
         -2   -1    0    0    0  501 -0.00000000000E+00  0.00000000000E+00  0.58521305742E+02  0.58521305742E+02  0.00000000000E+00 0. -1.
          2   -1    0    0  501    0  0.00000000000E+00 -0.00000000000E+00 -0.41662507080E+03  0.41662507080E+03  0.00000000000E+00 0.  1.
         25    2    1    2    0    0  0.10912356591E+03 -0.50541193273E+01 -0.20723858674E+03  0.26557599196E+03  0.12509707797E+03 0.  0.
          5    1    3    3  502    0  0.46442535660E+02  0.54599242497E+02 -0.13446650224E+03  0.15243588497E+03  0.41800000000E+01 0.  1.
         -5    1    3    3    0  502  0.62681030245E+02 -0.59653361824E+02 -0.72772084496E+02  0.11314010700E+03  0.41800000000E+01 0.  1.
        -11    1    1    2    0    0  0.17381095922E+02  0.62620922088E+00 -0.29268022270E+02  0.34045730438E+02  0.00000000000E+00 0.  1.
         11    1    1    2    0    0 -0.12650466183E+03  0.44279101064E+01 -0.12159715605E+03  0.17552465414E+03  0.00000000000E+00 0. -1.
</event>
<event>
 7    1  0.2686828E-009  0.9499757E+02  0.7561462E-02  0.1291182E+00
          2   -1    0    0  501    0  0.00000000000E+00  0.00000000000E+00  0.17779329744E+03  0.17779329744E+03  0.00000000000E+00 0. -1.
         -2   -1    0    0    0  501 -0.00000000000E+00 -0.00000000000E+00 -0.10025347785E+03  0.10025347785E+03  0.00000000000E+00 0.  1.
         25    2    1    2    0    0 -0.27861143487E+02  0.70774570953E+02  0.62488692190E+02  0.15917663152E+03  0.12508828946E+03 0.  0.
          5    1    3    3  502    0  0.14687848187E+01  0.30803346385E+02 -0.36754780797E+02  0.48160043489E+02  0.41800000000E+01 0. -1.
         -5    1    3    3    0  502 -0.29329928306E+02  0.39971224568E+02  0.99243472987E+02  0.11101658803E+03  0.41800000000E+01 0. -1.
        -11    1    1    2    0    0 -0.27506956511E+02 -0.20145805504E+02  0.26227989173E+02  0.43016201041E+02  0.00000000000E+00 0. -1.
         11    1    1    2    0    0  0.55368099998E+02 -0.50628765449E+02 -0.11176861777E+02  0.75853942728E+02  0.00000000000E+00 0.  1.
</event>
<event>
 7    1  0.2686828E-009  0.1314997E+03  0.7561462E-02  0.1225247E+00
         -2   -1    0    0    0  501 -0.00000000000E+00  0.00000000000E+00  0.29420740215E+03  0.29420740215E+03  0.00000000000E+00 0.  1.
          2   -1    0    0  501    0  0.00000000000E+00 -0.00000000000E+00 -0.75432124338E+02  0.75432124338E+02  0.00000000000E+00 0. -1.
         25    2    1    2    0    0  0.97802981098E+02  0.22705479991E+02  0.13932549743E+03  0.21246048692E+03  0.12508757866E+03 0.  0.
          5    1    3    3  502    0 -0.21782676110E+02  0.22163689647E+02  0.36677613059E+01  0.31569589644E+02  0.41800000000E+01 0. -1.
         -5    1    3    3    0  502  0.11958565721E+03  0.54179034459E+00  0.13565773613E+03  0.18089089728E+03  0.41800000000E+01 0. -1.
        -11    1    1    2    0    0 -0.90546330132E+02 -0.35514355995E+02  0.24512396991E+02  0.10030336479E+03  0.00000000000E+00 0. -1.
         11    1    1    2    0    0 -0.72566509661E+01  0.12808876004E+02  0.54937383387E+02  0.56875674775E+02  0.00000000000E+00 0.  1.
</event>
<event>
 7    1  0.2686828E-009  0.1064089E+03  0.7561462E-02  0.1267368E+00
         -2   -1    0    0    0  501 -0.00000000000E+00  0.00000000000E+00  0.20180932304E+02  0.20180932304E+02  0.00000000000E+00 0.  1.
          2   -1    0    0  501    0  0.00000000000E+00 -0.00000000000E+00 -0.83566350057E+03  0.83566350057E+03  0.00000000000E+00 0. -1.
         25    2    1    2    0    0 -0.44085012025E+02 -0.94883271478E+01 -0.62582836395E+03  0.63979526187E+03  0.12507325589E+03 0.  0.
          5    1    3    3  502    0  0.72148426746E+00 -0.62613621472E+02 -0.26717265906E+03  0.27444432638E+03  0.41800000000E+01 0.  1.
         -5    1    3    3    0  502 -0.44806496293E+02  0.53125294324E+02 -0.35865570489E+03  0.36535093548E+03  0.41800000000E+01 0.  1.
        -11    1    1    2    0    0  0.83183685431E+01 -0.27651477395E+02 -0.12360560707E+02  0.31409917516E+02  0.00000000000E+00 0.  1.
         11    1    1    2    0    0  0.35766643482E+02  0.37139804543E+02 -0.17729364360E+03  0.18463925349E+03  0.00000000000E+00 0. -1.
</event>
<event>
 7    1  0.2686828E-009  0.1251881E+03  0.7561462E-02  0.1234776E+00
          2   -1    0    0  501    0  0.00000000000E+00  0.00000000000E+00  0.21000535113E+03  0.21000535113E+03  0.00000000000E+00 0. -1.
         -2   -1    0    0    0  501 -0.00000000000E+00 -0.00000000000E+00 -0.14719870415E+03  0.14719870415E+03  0.00000000000E+00 0.  1.
         25    2    1    2    0    0 -0.81977689512E+02  0.64556162407E+02  0.12470937690E+03  0.20515333412E+03  0.12509045579E+03 0.  0.
          5    1    3    3  502    0 -0.39872576336E+02 -0.23580320987E+02  0.90180123598E+02  0.10146812787E+03  0.41800000000E+01 0. -1.
         -5    1    3    3    0  502 -0.42105113176E+02  0.88136483393E+02  0.34529253304E+02  0.10368520625E+03  0.41800000000E+01 0. -1.
        -11    1    1    2    0    0  0.50648982308E+02 -0.27711097635E+02  0.16398166863E+02  0.60017699201E+02  0.00000000000E+00 0. -1.
         11    1    1    2    0    0  0.31328707204E+02 -0.36845064772E+02 -0.78300896784E+02  0.92033021956E+02  0.00000000000E+00 0.  1.
</event>
<event>
 7    1  0.2686828E-009  0.1064875E+03  0.7561462E-02  0.1267216E+00
          1   -1    0    0  501    0  0.00000000000E+00  0.00000000000E+00  0.73179085861E+02  0.73179085861E+02  0.00000000000E+00 0. -1.
         -1   -1    0    0    0  501 -0.00000000000E+00 -0.00000000000E+00 -0.26059202873E+03  0.26059202873E+03  0.00000000000E+00 0.  1.
         25    2    1    2    0    0 -0.34989330230E+02 -0.30599721841E+02 -0.12668887987E+03  0.18401135089E+03  0.12509799665E+03 0.  0.
          5    1    3    3  502    0  0.20523953737E+02  0.36795791410E+01 -0.11579558022E+03  0.11773215694E+03  0.41800000000E+01 0.  1.
         -5    1    3    3    0  502 -0.55513283968E+02 -0.34279300982E+02 -0.10893299645E+02  0.66279193944E+02  0.41800000000E+01 0.  1.
        -11    1    1    2    0    0  0.42578728685E+02 -0.38146422305E+02  0.82776404293E+00  0.57173270542E+02  0.00000000000E+00 0. -1.
         11    1    1    2    0    0 -0.75893984547E+01  0.68746144146E+02 -0.61551827050E+02  0.92586493168E+02  0.00000000000E+00 0.  1.
</event>
<event>
 7    1  0.2686828E-009  0.1961670E+03  0.7561462E-02  0.1153014E+00
          1   -1    0    0  501    0  0.00000000000E+00  0.00000000000E+00  0.12449653091E+04  0.12449653091E+04  0.00000000000E+00 0. -1.
         -1   -1    0    0    0  501 -0.00000000000E+00 -0.00000000000E+00 -0.36581039899E+02  0.36581039899E+02  0.00000000000E+00 0.  1.
         25    2    1    2    0    0  0.16595616169E+03  0.19654334016E+02  0.39819640079E+03  0.44959556834E+03  0.12509221007E+03 0.  0.
          5    1    3    3  502    0  0.57791837884E+02 -0.48542904631E+02  0.10205092716E+03  0.12699674897E+03  0.41800000000E+01 0. -1.
         -5    1    3    3    0  502  0.10816432381E+03  0.68197238647E+02  0.29614547364E+03  0.32259881937E+03  0.41800000000E+01 0. -1.
        -11    1    1    2    0    0 -0.68126050145E+02 -0.52070401693E+02  0.34731331969E+03  0.35774156520E+03  0.00000000000E+00 0.  1.
         11    1    1    2    0    0 -0.97830111548E+02  0.32416067676E+02  0.46287454875E+03  0.47420921548E+03  0.00000000000E+00 0. -1.
</event>
<event>
 7    1  0.5376619E-009  0.1375943E+03  0.7561462E-02  0.1216603E+00
         -1   -1    0    0    0  501 -0.00000000000E+00  0.00000000000E+00  0.26993172687E+02  0.26993172687E+02  0.00000000000E+00 0.  1.
          1   -1    0    0  501    0  0.00000000000E+00 -0.00000000000E+00 -0.79325106370E+03  0.79325106370E+03  0.00000000000E+00 0. -1.
         25    2    1    2    0    0 -0.61702783195E+02 -0.75315848471E+02 -0.41833715159E+03  0.44736410338E+03  0.12509579573E+03 0.  0.
          5    1    3    3  502    0  0.19689629421E+02 -0.73263307900E+02 -0.22717281938E+03  0.23954155392E+03  0.41800000000E+01 0. -1.
         -5    1    3    3    0  502 -0.81392412617E+02 -0.20525405714E+01 -0.19116433221E+03  0.20782254946E+03  0.41800000000E+01 0. -1.
        -11    1    1    2    0    0 -0.12353544838E+02  0.25785186157E+02 -0.25282115508E+02  0.38166362936E+02  0.00000000000E+00 0.  1.
         11    1    1    2    0    0  0.74056328033E+02  0.49530662314E+02 -0.32263862391E+03  0.33471377007E+03  0.00000000000E+00 0. -1.
</event>
<event>
 7    1  0.2686828E-009  0.8454023E+02  0.7561462E-02  0.1316639E+00
          2   -1    0    0  501    0  0.00000000000E+00  0.00000000000E+00  0.27715103431E+03  0.27715103431E+03  0.00000000000E+00 0. -1.
         -2   -1    0    0    0  501 -0.00000000000E+00 -0.00000000000E+00 -0.45651490381E+02  0.45651490381E+02  0.00000000000E+00 0.  1.
         25    2    1    2    0    0  0.28206933805E+02 -0.43973756439E+01  0.15350193771E+03  0.20006560712E+03  0.12509370185E+03 0.  0.
          5    1    3    3  502    0  0.73995867926E+02  0.55259706124E+01  0.60447691516E+02  0.95798333133E+02  0.41800000000E+01 0.  1.
         -5    1    3    3    0  502 -0.45788934121E+02 -0.99233462563E+01  0.93054246198E+02  0.10426727398E+03  0.41800000000E+01 0.  1.
        -11    1    1    2    0    0 -0.10384736504E+02  0.20960834800E+02  0.91820828836E+02  0.94753701542E+02  0.00000000000E+00 0. -1.
         11    1    1    2    0    0 -0.17822197301E+02 -0.16563459156E+02 -0.13823222621E+02  0.27983216032E+02  0.00000000000E+00 0.  1.
</event>
<event>
 7    1  0.2686828E-009  0.1273256E+03  0.7561462E-02  0.1231479E+00
         -2   -1    0    0    0  501 -0.00000000000E+00  0.00000000000E+00  0.28942825107E+03  0.28942825107E+03  0.00000000000E+00 0.  1.
          2   -1    0    0  501    0  0.00000000000E+00 -0.00000000000E+00 -0.80726125392E+02  0.80726125392E+02  0.00000000000E+00 0. -1.
         25    2    1    2    0    0 -0.89046169430E+02 -0.55871508004E+01  0.40990530477E+02  0.15902036723E+03  0.12508723780E+03 0.  0.
          5    1    3    3  502    0 -0.63024917550E+02  0.40232262712E+02  0.66660134788E+02  0.10025877101E+03  0.41800000000E+01 0. -1.
         -5    1    3    3    0  502 -0.26021251880E+02 -0.45819413512E+02 -0.25669604311E+02  0.58761596213E+02  0.41800000000E+01 0. -1.
        -11    1    1    2    0    0  0.75874058991E+02 -0.35492332756E+02  0.12464955930E+03  0.15018019558E+03  0.00000000000E+00 0. -1.
         11    1    1    2    0    0  0.13172110440E+02  0.41079483556E+02  0.43062035904E+02  0.60953813653E+02  0.00000000000E+00 0.  1.
</event>
<event>
 7    1  0.2686828E-009  0.1460326E+03  0.7561462E-02  0.1205435E+00
          2   -1    0    0  501    0  0.00000000000E+00  0.00000000000E+00  0.25865016268E+04  0.25865016268E+04  0.00000000000E+00 0. -1.
         -2   -1    0    0    0  501 -0.00000000000E+00 -0.00000000000E+00 -0.28932403210E+02  0.28932403210E+02  0.00000000000E+00 0.  1.
         25    2    1    2    0    0  0.10634779130E+03  0.94083215659E+02  0.22808343538E+04  0.22886708582E+04  0.12508974064E+03 0.  0.
          5    1    3    3  502    0  0.10997008396E+03  0.93199374227E+02  0.22776831811E+04  0.22822440028E+04  0.41800000000E+01 0. -1.
         -5    1    3    3    0  502 -0.36222926601E+01  0.88384143192E+00  0.31511727704E+01  0.64268553447E+01  0.41800000000E+01 0. -1.
        -11    1    1    2    0    0 -0.41381209787E+02 -0.31076495399E+02  0.21645446734E+02  0.56095262313E+02  0.00000000000E+00 0.  1.
         11    1    1    2    0    0 -0.64966581518E+02 -0.63006720260E+02  0.25508942306E+03  0.27066790957E+03  0.00000000000E+00 0. -1.
</event>
<event>
 7    1  0.2686828E-009  0.1264940E+03  0.7561462E-02  0.1232753E+00
          2   -1    0    0  501    0  0.00000000000E+00  0.00000000000E+00  0.12900976331E+03  0.12900976331E+03  0.00000000000E+00 0. -1.
         -2   -1    0    0    0  501 -0.00000000000E+00 -0.00000000000E+00 -0.18427078742E+03  0.18427078742E+03  0.00000000000E+00 0.  1.
         25    2    1    2    0    0 -0.62420733851E+02  0.85557467771E+02 -0.57266487043E+02  0.17361400711E+03  0.12508375043E+03 0.  0.
          5    1    3    3  502    0 -0.76260940976E+02  0.54614868216E+02 -0.87244448308E+02  0.12817012565E+03  0.41800000000E+01 0.  1.
         -5    1    3    3    0  502  0.13840207125E+02  0.30942599556E+02  0.29977961265E+02  0.45443881460E+02  0.41800000000E+01 0.  1.
        -11    1    1    2    0    0  0.76533033963E+02 -0.76260666793E+02  0.25226052838E+02  0.11094750258E+03  0.00000000000E+00 0. -1.
         11    1    1    2    0    0 -0.14112300112E+02 -0.92968009785E+01 -0.23220589907E+02  0.28719041044E+02  0.00000000000E+00 0.  1.
</event>
<event>
 7    1  0.2686828E-009  0.1560809E+03  0.7561462E-02  0.1193194E+00
          1   -1    0    0  501    0  0.00000000000E+00  0.00000000000E+00  0.12761175760E+03  0.12761175760E+03  0.00000000000E+00 0. -1.
         -1   -1    0    0    0  501 -0.00000000000E+00 -0.00000000000E+00 -0.36953935348E+03  0.36953935348E+03  0.00000000000E+00 0.  1.
         25    2    1    2    0    0 -0.49412634529E+02  0.10965323582E+03  0.33489511686E+02  0.17673207844E+03  0.12508892670E+03 0.  0.
          5    1    3    3  502    0 -0.18952368154E+02 -0.27060792282E+02  0.40723573933E+01  0.33548997486E+02  0.41800000000E+01 0. -1.
         -5    1    3    3    0  502 -0.30460266375E+02  0.13671402810E+03  0.29417154293E+02  0.14318308096E+03  0.41800000000E+01 0. -1.
        -11    1    1    2    0    0 -0.43792247600E+01 -0.74152631694E+02 -0.22966874541E+03  0.24138252425E+03  0.00000000000E+00 0.  1.
         11    1    1    2    0    0  0.53791859289E+02 -0.35500604122E+02 -0.45748362157E+02  0.79036508392E+02  0.00000000000E+00 0. -1.
</event>
<event>
 7    1  0.2686828E-009  0.9274657E+02  0.7561462E-02  0.1296334E+00
          1   -1    0    0  501    0  0.00000000000E+00  0.00000000000E+00  0.12207724710E+03  0.12207724710E+03  0.00000000000E+00 0.  1.
         -1   -1    0    0    0  501 -0.00000000000E+00 -0.00000000000E+00 -0.99490717409E+02  0.99490717409E+02  0.00000000000E+00 0. -1.
         25    2    1    2    0    0 -0.44582638731E+01  0.49778290938E+01  0.23543784068E+02  0.12746196647E+03  0.12509032028E+03 0.  0.
          5    1    3    3  502    0  0.37378062893E+02  0.28639060740E+02 -0.29528836880E+02  0.55738137691E+02  0.41800000000E+01 0. -1.
         -5    1    3    3    0  502 -0.41836326766E+02 -0.23661231646E+02  0.53072620948E+02  0.71723828778E+02  0.41800000000E+01 0. -1.
        -11    1    1    2    0    0  0.46424378897E+02  0.54188548118E+01 -0.14267611052E+02  0.48868718712E+02  0.00000000000E+00 0. -1.
         11    1    1    2    0    0 -0.41966115024E+02 -0.10396683906E+02  0.13310356679E+02  0.45237279332E+02  0.00000000000E+00 0.  1.
</event>
<event>
 7    1  0.2686828E-009  0.1483184E+03  0.7561462E-02  0.1202555E+00
         -2   -1    0    0    0  501 -0.00000000000E+00  0.00000000000E+00  0.93038930614E+02  0.93038930614E+02  0.00000000000E+00 0.  1.
          2   -1    0    0  501    0  0.00000000000E+00 -0.00000000000E+00 -0.46818391639E+03  0.46818391639E+03  0.00000000000E+00 0. -1.
         25    2    1    2    0    0 -0.33409379876E+02 -0.10231063022E+03 -0.40905645636E+01  0.16506817364E+03  0.12508843875E+03 0.  0.
          5    1    3    3  502    0  0.89481925121E+01 -0.11503976491E+03 -0.21326267760E+02  0.11741592633E+03  0.41800000000E+01 0. -1.
         -5    1    3    3    0  502 -0.42357572389E+02  0.12729134689E+02  0.17235703196E+02  0.47652247305E+02  0.41800000000E+01 0. -1.
        -11    1    1    2    0    0 -0.10671212840E+02  0.90480286852E+02 -0.27726013238E+03  0.29184540102E+03  0.00000000000E+00 0. -1.
         11    1    1    2    0    0  0.44080592717E+02  0.11830343371E+02 -0.93794288835E+02  0.10430927234E+03  0.00000000000E+00 0.  1.
</event>
<event>
 7    1  0.2686828E-009  0.9011728E+02  0.7561462E-02  0.1302568E+00
         -2   -1    0    0    0  501 -0.00000000000E+00  0.00000000000E+00  0.26297252542E+03  0.26297252542E+03  0.00000000000E+00 0.  1.
          2   -1    0    0  501    0  0.00000000000E+00 -0.00000000000E+00 -0.49269357372E+02  0.49269357372E+02  0.00000000000E+00 0. -1.
         25    2    1    2    0    0 -0.20896695992E+02  0.20606572920E+02  0.90918559936E+02  0.15740088197E+03  0.12509016889E+03 0.  0.
          5    1    3    3  502    0 -0.85423739108E+01  0.73438265950E+02  0.51119082532E+02  0.89982131874E+02  0.41800000000E+01 0. -1.
         -5    1    3    3    0  502 -0.12354322081E+02 -0.52831693030E+02  0.39799477404E+02  0.67418750093E+02  0.41800000000E+01 0. -1.
        -11    1    1    2    0    0  0.20626674657E+02  0.87512043671E+01  0.12345748123E+03  0.12547427209E+03  0.00000000000E+00 0.  1.
         11    1    1    2    0    0  0.27002133531E+00 -0.29357777287E+02 -0.67287311028E+00  0.29366728741E+02  0.00000000000E+00 0. -1.
</event>
<event>
 7    1  0.2686828E-009  0.1081481E+03  0.7561462E-02  0.1264038E+00
         -1   -1    0    0    0  501 -0.00000000000E+00  0.00000000000E+00  0.46198166833E+02  0.46198166833E+02  0.00000000000E+00 0.  1.
          1   -1    0    0  501    0  0.00000000000E+00 -0.00000000000E+00 -0.29376020754E+03  0.29376020754E+03  0.00000000000E+00 0. -1.
         25    2    1    2    0    0 -0.60741460298E+00  0.23446794226E+02 -0.10466784666E+03  0.16478183403E+03  0.12509026177E+03 0.  0.
          5    1    3    3  502    0 -0.95364502733E+01  0.69755158063E+02 -0.30612868345E+02  0.76885278621E+02  0.41800000000E+01 0. -1.
         -5    1    3    3    0  502  0.89290356704E+01 -0.46308363837E+02 -0.74054978314E+02  0.87896555407E+02  0.41800000000E+01 0. -1.
        -11    1    1    2    0    0  0.29094898978E+02  0.27510903691E+02 -0.38394613715E+02  0.55475303791E+02  0.00000000000E+00 0.  1.
         11    1    1    2    0    0 -0.28487484375E+02 -0.50957697917E+02 -0.10449958034E+03  0.11970123656E+03  0.00000000000E+00 0. -1.
</event>
<event>
 7    1  0.2686828E-009  0.1109735E+03  0.7561462E-02  0.1258778E+00
         -1   -1    0    0    0  501 -0.00000000000E+00  0.00000000000E+00  0.11943032723E+03  0.11943032723E+03  0.00000000000E+00 0.  1.
          1   -1    0    0  501    0  0.00000000000E+00 -0.00000000000E+00 -0.12827402634E+03  0.12827402634E+03  0.00000000000E+00 0. -1.
         25    2    1    2    0    0 -0.40642963183E+02  0.22384518773E+02 -0.36187965806E+02  0.13823559841E+03  0.12508634883E+03 0.  0.
          5    1    3    3  502    0 -0.61073338644E+02 -0.32250063834E+02  0.51334663021E+00  0.69193606896E+02  0.41800000000E+01 0.  1.
         -5    1    3    3    0  502  0.20430375462E+02  0.54634582607E+02 -0.36701312436E+02  0.69041991517E+02  0.41800000000E+01 0.  1.
        -11    1    1    2    0    0 -0.22197086600E+02 -0.22260130334E+02 -0.13826914745E+02  0.34342504675E+02  0.00000000000E+00 0. -1.
         11    1    1    2    0    0  0.62840049782E+02 -0.12438843955E+00  0.41171181446E+02  0.75126250477E+02  0.00000000000E+00 0.  1.
</event>
<event>
 7    1  0.2686828E-009  0.9189898E+02  0.7561462E-02  0.1298317E+00
          1   -1    0    0  501    0  0.00000000000E+00  0.00000000000E+00  0.32087047148E+03  0.32087047148E+03  0.00000000000E+00 0. -1.
         -1   -1    0    0    0  501 -0.00000000000E+00 -0.00000000000E+00 -0.46148157174E+02  0.46148157174E+02  0.00000000000E+00 0.  1.
         25    2    1    2    0    0 -0.37655369975E+02  0.72327840058E+01  0.88053547539E+02  0.15771921059E+03  0.12510668288E+03 0.  0.
          5    1    3    3  502    0 -0.26917420213E+01  0.63824731572E+02  0.47276010597E+02  0.79582255644E+02  0.41800000000E+01 0.  1.
         -5    1    3    3    0  502 -0.34963627954E+02 -0.56591947567E+02  0.40777536942E+02  0.78136954945E+02  0.41800000000E+01 0.  1.
        -11    1    1    2    0    0  0.31729663347E+01 -0.16995741034E+02 -0.18650307033E+01  0.17389688559E+02  0.00000000000E+00 0.  1.
         11    1    1    2    0    0  0.34482403640E+02  0.97629570283E+01  0.18853379747E+03  0.19190972951E+03  0.00000000000E+00 0. -1.
</event>
<event>
 7    1  0.2686828E-009  0.8674157E+02  0.7561462E-02  0.1310940E+00
          1   -1    0    0  501    0  0.00000000000E+00  0.00000000000E+00  0.31060599372E+02  0.31060599372E+02  0.00000000000E+00 0. -1.
         -1   -1    0    0    0  501 -0.00000000000E+00 -0.00000000000E+00 -0.40599325824E+03  0.40599325824E+03  0.00000000000E+00 0.  1.
         25    2    1    2    0    0  0.23434810038E+02 -0.47075725807E+01 -0.17885475932E+03  0.21956197763E+03  0.12508831093E+03 0.  0.
          5    1    3    3  502    0  0.14435003491E+01  0.48074145018E+02 -0.22959428709E+02  0.53458534203E+02  0.41800000000E+01 0. -1.
         -5    1    3    3    0  502  0.21991309689E+02 -0.52781717599E+02 -0.15589533061E+03  0.16610344343E+03  0.41800000000E+01 0. -1.
        -11    1    1    2    0    0  0.70201549361E+01  0.28421103026E+02 -0.16077400615E+02  0.33399468305E+02  0.00000000000E+00 0. -1.
         11    1    1    2    0    0 -0.30454964974E+02 -0.23713530445E+02 -0.18000049893E+03  0.18409241167E+03  0.00000000000E+00 0.  1.
</event>
<event>
 7    1  0.2686828E-009  0.1270055E+03  0.7561462E-02  0.1231968E+00
         -2   -1    0    0    0  501 -0.00000000000E+00  0.00000000000E+00  0.23374740664E+02  0.23374740664E+02  0.00000000000E+00 0.  1.
          2   -1    0    0  501    0  0.00000000000E+00 -0.00000000000E+00 -0.81096476347E+03  0.81096476347E+03  0.00000000000E+00 0. -1.
         25    2    1    2    0    0 -0.29088269084E+01 -0.82071449988E+02 -0.49580422035E+03  0.51789492171E+03  0.12509652611E+03 0.  0.
          5    1    3    3  502    0  0.42240392259E+02 -0.91983914208E+02 -0.37618741947E+03  0.38958919156E+03  0.41800000000E+01 0. -1.
         -5    1    3    3    0  502 -0.45149219168E+02  0.99124642196E+01 -0.11961680088E+03  0.12830573016E+03  0.41800000000E+01 0. -1.
        -11    1    1    2    0    0  0.35140572754E+02  0.46595782186E+02 -0.23497932612E+03  0.24211838112E+03  0.00000000000E+00 0. -1.
         11    1    1    2    0    0 -0.32231745845E+02  0.35475667802E+02 -0.56806476340E+02  0.74326201305E+02  0.00000000000E+00 0.  1.
</event>
<event>
 7    1  0.2686828E-009  0.1364253E+03  0.7561462E-02  0.1218221E+00
          2   -1    0    0  501    0  0.00000000000E+00  0.00000000000E+00  0.54309464062E+02  0.54309464062E+02  0.00000000000E+00 0. -1.
         -2   -1    0    0    0  501 -0.00000000000E+00 -0.00000000000E+00 -0.43868020702E+03  0.43868020702E+03  0.00000000000E+00 0.  1.
         25    2    1    2    0    0 -0.37411236240E+02 -0.96422233557E+02 -0.14729497890E+03  0.21918256840E+03  0.12509332420E+03 0.  0.
          5    1    3    3  502    0 -0.34623335978E+02 -0.11661627137E+03 -0.15492229648E+03  0.19701908661E+03  0.41800000000E+01 0.  1.
         -5    1    3    3    0  502 -0.27879002617E+01  0.20194037817E+02  0.76273175826E+01  0.22163481782E+02  0.41800000000E+01 0.  1.
        -11    1    1    2    0    0  0.11850654280E+02  0.10319961040E+03 -0.14748480525E+03  0.18039502591E+03  0.00000000000E+00 0. -1.
         11    1    1    2    0    0  0.25560581959E+02 -0.67773768450E+01 -0.89590958803E+02  0.93412076769E+02  0.00000000000E+00 0.  1.
</event>
<event>
 7    1  0.2686828E-009  0.1072781E+03  0.7561462E-02  0.1265695E+00
         -1   -1    0    0    0  501 -0.00000000000E+00  0.00000000000E+00  0.36724236214E+02  0.36724236214E+02  0.00000000000E+00 0.  1.
          1   -1    0    0  501    0  0.00000000000E+00 -0.00000000000E+00 -0.35697985585E+03  0.35697985585E+03  0.00000000000E+00 0. -1.
         25    2    1    2    0    0 -0.19873595847E+01  0.11976477934E+02 -0.11975717717E+03  0.17359341399E+03  0.12508199820E+03 0.  0.
          5    1    3    3  502    0  0.72922492415E+00  0.67750946799E+02 -0.50932687746E+02  0.84866563747E+02  0.41800000000E+01 0. -1.
         -5    1    3    3    0  502 -0.27165845088E+01 -0.55774468866E+02 -0.68824489427E+02  0.88726850240E+02  0.41800000000E+01 0. -1.
        -11    1    1    2    0    0  0.30466179556E+02  0.28143315135E+02 -0.85463843334E+02  0.94996330461E+02  0.00000000000E+00 0.  1.
         11    1    1    2    0    0 -0.28478819972E+02 -0.40119793069E+02 -0.11503459913E+03  0.12511434762E+03  0.00000000000E+00 0. -1.
</event>
<event>
 7    1  0.2686828E-009  0.1204390E+03  0.7561462E-02  0.1242375E+00
         -2   -1    0    0    0  501 -0.00000000000E+00  0.00000000000E+00  0.33101074812E+02  0.33101074812E+02  0.00000000000E+00 0. -1.
          2   -1    0    0  501    0  0.00000000000E+00 -0.00000000000E+00 -0.62150079082E+03  0.62150079082E+03  0.00000000000E+00 0.  1.
         25    2    1    2    0    0 -0.34034511022E+02 -0.49707448317E+02 -0.15737283483E+03  0.20986827227E+03  0.12509717904E+03 0.  0.
          5    1    3    3  502    0 -0.68852710108E+02 -0.63453888595E+02 -0.77717078836E+02  0.12175593788E+03  0.41800000000E+01 0. -1.
         -5    1    3    3    0  502  0.34818199086E+02  0.13746440278E+02 -0.79655755992E+02  0.88112334384E+02  0.41800000000E+01 0. -1.
        -11    1    1    2    0    0  0.64153363025E+02  0.20042896819E+02 -0.27259389672E+03  0.28075755418E+03  0.00000000000E+00 0. -1.
         11    1    1    2    0    0 -0.30118852003E+02  0.29664551498E+02 -0.15843298446E+03  0.16397603919E+03  0.00000000000E+00 0.  1.
</event>
<event>
 7    1  0.2686828E-009  0.2936844E+03  0.7561462E-02  0.1088441E+00
          1   -1    0    0  501    0  0.00000000000E+00  0.00000000000E+00  0.92248316885E+03  0.92248316885E+03  0.00000000000E+00 0. -1.
         -1   -1    0    0    0  501 -0.00000000000E+00 -0.00000000000E+00 -0.96169261606E+02  0.96169261606E+02  0.00000000000E+00 0.  1.
         25    2    1    2    0    0 -0.27681193772E+03  0.71711475519E+01  0.44561258185E+03  0.53934639747E+03  0.12509072363E+03 0.  0.
          5    1    3    3  502    0 -0.18675543783E+03  0.61297287589E+02  0.25927063448E+03  0.32538236788E+03  0.41800000000E+01 0. -1.
         -5    1    3    3    0  502 -0.90056499897E+02 -0.54126140037E+02  0.18634194737E+03  0.21396402959E+03  0.41800000000E+01 0. -1.
        -11    1    1    2    0    0  0.23903118979E+03  0.18795730976E+02  0.27980737537E+03  0.36848521885E+03  0.00000000000E+00 0.  1.
         11    1    1    2    0    0  0.37780747930E+02 -0.25966878528E+02  0.10089395002E+03  0.11082081413E+03  0.00000000000E+00 0. -1.
</event>
<event>
 7    1  0.2686828E-009  0.1433788E+03  0.7561462E-02  0.1208854E+00
          1   -1    0    0  501    0  0.00000000000E+00  0.00000000000E+00  0.19987088709E+03  0.19987088709E+03  0.00000000000E+00 0. -1.
         -1   -1    0    0    0  501 -0.00000000000E+00 -0.00000000000E+00 -0.14292394742E+03  0.14292394742E+03  0.00000000000E+00 0.  1.
         25    2    1    2    0    0 -0.10185085840E+03 -0.19814764332E+02  0.10853116355E+03  0.19542925662E+03  0.12508940258E+03 0.  0.
          5    1    3    3  502    0  0.16522544570E+02 -0.25232817709E+02 -0.54784802912E+01  0.30938256495E+02  0.41800000000E+01 0. -1.
         -5    1    3    3    0  502 -0.11837340297E+03  0.54180533772E+01  0.11400964384E+03  0.16449100013E+03  0.41800000000E+01 0. -1.
        -11    1    1    2    0    0  0.14776642827E+02  0.44779764519E+02 -0.13048317903E+02  0.48926833985E+02  0.00000000000E+00 0.  1.
         11    1    1    2    0    0  0.87074215573E+02 -0.24965000188E+02 -0.38535905980E+02  0.98438743906E+02  0.00000000000E+00 0. -1.
</event>
<event>
 7    1  0.2686828E-009  0.1112965E+03  0.7561462E-02  0.1258188E+00
          2   -1    0    0  501    0  0.00000000000E+00  0.00000000000E+00  0.36086036917E+03  0.36086036917E+03  0.00000000000E+00 0.  1.
         -2   -1    0    0    0  501 -0.00000000000E+00 -0.00000000000E+00 -0.61694252644E+02  0.61694252644E+02  0.00000000000E+00 0. -1.
         25    2    1    2    0    0  0.40139161313E+02  0.81589705779E+02  0.91613044598E+02  0.17975367216E+03  0.12510156016E+03 0.  0.
          5    1    3    3  502    0  0.62398895575E+02  0.88136829315E+02  0.27602816518E+02  0.11153972714E+03  0.41800000000E+01 0. -1.
         -5    1    3    3    0  502 -0.22259734262E+02 -0.65471235362E+01  0.64010228080E+02  0.68213945018E+02  0.41800000000E+01 0. -1.
        -11    1    1    2    0    0 -0.16605668502E+02 -0.35775377158E+02  0.18023391801E+03  0.18449902721E+03  0.00000000000E+00 0.  1.
         11    1    1    2    0    0 -0.23533492811E+02 -0.45814328621E+02  0.27319153913E+02  0.58301922450E+02  0.00000000000E+00 0. -1.
</event>
<event>
 7    1  0.2686828E-009  0.2103542E+03  0.7561462E-02  0.1141286E+00
         -2   -1    0    0    0  501 -0.00000000000E+00  0.00000000000E+00  0.21223687447E+03  0.21223687447E+03  0.00000000000E+00 0.  1.
          2   -1    0    0  501    0  0.00000000000E+00 -0.00000000000E+00 -0.24241308665E+03  0.24241308665E+03  0.00000000000E+00 0. -1.
         25    2    1    2    0    0  0.16901706292E+03  0.78958624784E+02 -0.86682115502E+02  0.24075412210E+03  0.12509007225E+03 0.  0.
          5    1    3    3  502    0  0.56472270021E+02 -0.25398155624E+02 -0.57219765644E+02  0.84414202423E+02  0.41800000000E+01 0.  1.
         -5    1    3    3    0  502  0.11254479290E+03  0.10435678041E+03 -0.29462349858E+02  0.15633991968E+03  0.41800000000E+01 0.  1.
        -11    1    1    2    0    0 -0.11650341237E+03 -0.79276503801E+01  0.43482730478E+02  0.12460594121E+03  0.00000000000E+00 0.  1.
         11    1    1    2    0    0 -0.52513650547E+02 -0.71030974404E+02  0.13023172839E+02  0.89289897801E+02  0.00000000000E+00 0. -1.
</event>
<event>
 7    1  0.2686828E-009  0.9682263E+02  0.7561462E-02  0.1287123E+00
          1   -1    0    0  501    0  0.00000000000E+00  0.00000000000E+00  0.21012764686E+03  0.21012764686E+03  0.00000000000E+00 0. -1.
         -1   -1    0    0    0  501 -0.00000000000E+00 -0.00000000000E+00 -0.77231268998E+02  0.77231268998E+02  0.00000000000E+00 0.  1.
         25    2    1    2    0    0  0.38276291725E+02 -0.56921779350E+02  0.55839394367E+02  0.15320108670E+03  0.12508945411E+03 0.  0.
          5    1    3    3  502    0  0.58947145977E+02  0.51600599995E+01  0.63843234746E+02  0.87148283178E+02  0.41800000000E+01 0.  1.
         -5    1    3    3    0  502 -0.20670854252E+02 -0.62081839349E+02 -0.80038403792E+01  0.66052803523E+02  0.41800000000E+01 0.  1.
        -11    1    1    2    0    0 -0.12596990548E+02  0.14890149038E+02 -0.18354741150E+02  0.26782405268E+02  0.00000000000E+00 0.  1.
         11    1    1    2    0    0 -0.25679301177E+02  0.42031630312E+02  0.95411724642E+02  0.10737542389E+03  0.00000000000E+00 0. -1.
</event>
<event>
 7    1  0.2686828E-009  0.1465715E+03  0.7561462E-02  0.1204750E+00
          2   -1    0    0  501    0  0.00000000000E+00  0.00000000000E+00  0.73462292452E+02  0.73462292452E+02  0.00000000000E+00 0. -1.
         -2   -1    0    0    0  501 -0.00000000000E+00 -0.00000000000E+00 -0.48812040077E+03  0.48812040077E+03  0.00000000000E+00 0.  1.
         25    2    1    2    0    0 -0.87920913033E+02 -0.11533061018E+03 -0.15328534420E+03  0.24530622059E+03  0.12509000169E+03 0.  0.
          5    1    3    3  502    0 -0.64635525757E+02 -0.80602092459E+02 -0.19692124708E+02  0.10526015711E+03  0.41800000000E+01 0.  1.
         -5    1    3    3    0  502 -0.23285387276E+02 -0.34728517718E+02 -0.13359321949E+03  0.14004606348E+03  0.41800000000E+01 0.  1.
        -11    1    1    2    0    0  0.51578421625E+02  0.88914774521E+02 -0.24944089792E+03  0.26979053405E+03  0.00000000000E+00 0.  1.
         11    1    1    2    0    0  0.36342491409E+02  0.26415835655E+02 -0.11931866199E+02  0.46485938585E+02  0.00000000000E+00 0. -1.
</event>
<event>
 7    1  0.2686828E-009  0.1360195E+03  0.7561462E-02  0.1218788E+00
         -1   -1    0    0    0  501 -0.00000000000E+00  0.00000000000E+00  0.11260437874E+04  0.11260437874E+04  0.00000000000E+00 0.  1.
          1   -1    0    0  501    0  0.00000000000E+00 -0.00000000000E+00 -0.25169226410E+02  0.25169226410E+02  0.00000000000E+00 0. -1.
         25    2    1    2    0    0  0.11600301105E+03 -0.65991844951E+01  0.77751239575E+03  0.79603710834E+03  0.12509718022E+03 0.  0.
          5    1    3    3  502    0  0.74796005722E+02 -0.41648652484E+02  0.67148353843E+03  0.67693180418E+03  0.41800000000E+01 0. -1.
         -5    1    3    3    0  502  0.41207005331E+02  0.35049467989E+02  0.10602885731E+03  0.11910530415E+03  0.41800000000E+01 0. -1.
        -11    1    1    2    0    0 -0.86929785248E+02 -0.23674284943E+02  0.13576008821E+03  0.16293575692E+03  0.00000000000E+00 0. -1.
         11    1    1    2    0    0 -0.29073225806E+02  0.30273469438E+02  0.18760207706E+03  0.19224014859E+03  0.00000000000E+00 0.  1.
</event>
<event>
 7    1  0.2686828E-009  0.1416949E+03  0.7561462E-02  0.1211066E+00
         -2   -1    0    0    0  501 -0.00000000000E+00  0.00000000000E+00  0.26635377384E+03  0.26635377384E+03  0.00000000000E+00 0.  1.
          2   -1    0    0  501    0  0.00000000000E+00 -0.00000000000E+00 -0.10845311397E+03  0.10845311397E+03  0.00000000000E+00 0. -1.
         25    2    1    2    0    0 -0.11461534912E+02  0.11155589236E+03  0.15937956103E+03  0.23157135994E+03  0.12508943347E+03 0.  0.
          5    1    3    3  502    0  0.31023951633E+02  0.11915308716E+03  0.10392300614E+03  0.16117508293E+03  0.41800000000E+01 0.  1.
         -5    1    3    3    0  502 -0.42485486544E+02 -0.75971947927E+01  0.55456554888E+02  0.70396277002E+02  0.41800000000E+01 0.  1.
        -11    1    1    2    0    0 -0.92290876060E+01 -0.11946776036E+02 -0.33364137505E+02  0.36620584200E+02  0.00000000000E+00 0. -1.
         11    1    1    2    0    0  0.20690622518E+02 -0.99609116328E+02  0.31885236349E+02  0.10661494367E+03  0.00000000000E+00 0.  1.
</event>
<event>
 7    1  0.2686828E-009  0.1827292E+03  0.7561462E-02  0.1165188E+00
         -1   -1    0    0    0  501 -0.00000000000E+00  0.00000000000E+00  0.56243285308E+02  0.56243285308E+02  0.00000000000E+00 0.  1.
          1   -1    0    0  501    0  0.00000000000E+00 -0.00000000000E+00 -0.70153738270E+03  0.70153738270E+03  0.00000000000E+00 0. -1.
         25    2    1    2    0    0  0.85842618488E+01 -0.16397319761E+03 -0.38654605533E+03  0.43820814858E+03  0.12509048530E+03 0.  0.
          5    1    3    3  502    0  0.59766687828E+02 -0.58128210743E+02 -0.21073759692E+03  0.22666881792E+03  0.41800000000E+01 0. -1.
         -5    1    3    3    0  502 -0.51182425980E+02 -0.10584498687E+03 -0.17580845840E+03  0.21153933067E+03  0.41800000000E+01 0. -1.
        -11    1    1    2    0    0 -0.97130173011E+01  0.15211845927E+03 -0.26530695330E+03  0.30597736490E+03  0.00000000000E+00 0. -1.
         11    1    1    2    0    0  0.11287554523E+01  0.11854738337E+02  0.65589112417E+01  0.13595154526E+02  0.00000000000E+00 0.  1.
</event>
<event>
 7    1  0.2686828E-009  0.9670905E+02  0.7561462E-02  0.1287373E+00
          2   -1    0    0  501    0  0.00000000000E+00  0.00000000000E+00  0.11898503281E+02  0.11898503281E+02  0.00000000000E+00 0.  1.
         -2   -1    0    0    0  501 -0.00000000000E+00 -0.00000000000E+00 -0.19937314902E+04  0.19937314902E+04  0.00000000000E+00 0. -1.
         25    2    1    2    0    0 -0.49184865880E+02 -0.52545287112E+02 -0.15891421960E+04  0.15956805501E+04  0.12507334172E+03 0.  0.
          5    1    3    3  502    0 -0.51623361134E+02 -0.27133118900E+02 -0.26882843934E+03  0.27511339436E+03  0.41800000000E+01 0.  1.
         -5    1    3    3    0  502  0.24384952546E+01 -0.25412168211E+02 -0.13203137566E+04  0.13205671558E+04  0.41800000000E+01 0.  1.
        -11    1    1    2    0    0 -0.12229900899E+01  0.58328679195E+02 -0.13127679288E+03  0.14365697641E+03  0.00000000000E+00 0.  1.
         11    1    1    2    0    0  0.50407855970E+02 -0.57833920836E+01 -0.26141399811E+03  0.26629246699E+03  0.00000000000E+00 0. -1.
</event>
<event>
 7    1  0.2686828E-009  0.1790304E+03  0.7561462E-02  0.1168745E+00
          2   -1    0    0  501    0  0.00000000000E+00  0.00000000000E+00  0.17531264754E+04  0.17531264754E+04  0.00000000000E+00 0. -1.
         -2   -1    0    0    0  501 -0.00000000000E+00 -0.00000000000E+00 -0.19199764457E+02  0.19199764457E+02  0.00000000000E+00 0.  1.
         25    2    1    2    0    0  0.14709373676E+03 -0.10066389298E+02  0.10007201494E+04  0.10192304504E+04  0.12510792992E+03 0.  0.
          5    1    3    3  502    0  0.15711330574E+03 -0.38649157365E+02  0.80159176002E+03  0.81776840874E+03  0.41800000000E+01 0. -1.
         -5    1    3    3    0  502 -0.10019568983E+02  0.28582768067E+02  0.19912838934E+03  0.20146204167E+03  0.41800000000E+01 0. -1.
        -11    1    1    2    0    0 -0.57548726589E+02 -0.32927345562E+02  0.39787374917E+03  0.40336036779E+03  0.00000000000E+00 0.  1.
         11    1    1    2    0    0 -0.89545010171E+02  0.42993734860E+02  0.33533281239E+03  0.34973542164E+03  0.00000000000E+00 0. -1.
</event>
<event>
 7    1  0.2686828E-009  0.9578360E+02  0.7561462E-02  0.1289421E+00
          2   -1    0    0  501    0  0.00000000000E+00  0.00000000000E+00  0.75321405275E+03  0.75321405275E+03  0.00000000000E+00 0. -1.
         -2   -1    0    0    0  501 -0.00000000000E+00 -0.00000000000E+00 -0.17462884915E+02  0.17462884915E+02  0.00000000000E+00 0.  1.
         25    2    1    2    0    0 -0.30221530070E+02  0.24596450924E+02  0.44588869858E+03  0.46473447452E+03  0.12507227514E+03 0.  0.
          5    1    3    3  502    0  0.18566398317E+02  0.38379772869E+02  0.51097378386E+02  0.66679326556E+02  0.41800000000E+01 0.  1.
         -5    1    3    3    0  502 -0.48787928387E+02 -0.13783321945E+02  0.39479132019E+03  0.39805514796E+03  0.41800000000E+01 0.  1.
        -11    1    1    2    0    0 -0.32052435860E+02 -0.41836558346E+01  0.98800272224E+02  0.10395362145E+03  0.00000000000E+00 0.  1.
         11    1    1    2    0    0  0.62273965931E+02 -0.20412795089E+02  0.19106219703E+03  0.20198884170E+03  0.00000000000E+00 0. -1.
</event>
<event>
 7    1  0.2686828E-009  0.2849779E+03  0.7561462E-02  0.1093001E+00
          1   -1    0    0  501    0  0.00000000000E+00  0.00000000000E+00  0.30656106392E+03  0.30656106392E+03  0.00000000000E+00 0. -1.
         -1   -1    0    0    0  501 -0.00000000000E+00 -0.00000000000E+00 -0.33617880306E+03  0.33617880306E+03  0.00000000000E+00 0.  1.
         25    2    1    2    0    0  0.18050048670E+03  0.20165494549E+03 -0.14827128268E+03  0.33298300097E+03  0.12509261741E+03 0.  0.
          5    1    3    3  502    0 -0.16866880659E+02  0.35001380652E+01 -0.14652550441E+02  0.22998092618E+02  0.41800000000E+01 0. -1.
         -5    1    3    3    0  502  0.19736736736E+03  0.19815480742E+03 -0.13361873223E+03  0.30998490835E+03  0.41800000000E+01 0. -1.
        -11    1    1    2    0    0 -0.14064767535E+03 -0.13556070595E+03  0.39677498913E+02  0.19933082426E+03  0.00000000000E+00 0.  1.
         11    1    1    2    0    0 -0.39852811347E+02 -0.66094239538E+02  0.78976044627E+02  0.11042604175E+03  0.00000000000E+00 0. -1.
</event>
<event>
 7    1  0.2686828E-009  0.7375699E+02  0.7561462E-02  0.1347764E+00
          2   -1    0    0  501    0  0.00000000000E+00  0.00000000000E+00  0.20113388988E+03  0.20113388988E+03  0.00000000000E+00 0.  1.
         -2   -1    0    0    0  501 -0.00000000000E+00 -0.00000000000E+00 -0.62498891101E+02  0.62498891101E+02  0.00000000000E+00 0. -1.
         25    2    1    2    0    0  0.73843764347E+01  0.15818975566E+02  0.87754988133E+02  0.15379230307E+03  0.12508543296E+03 0.  0.
          5    1    3    3  502    0 -0.16112072275E+02  0.31482556846E+02 -0.21007089709E+02  0.41346347803E+02  0.41800000000E+01 0. -1.
         -5    1    3    3    0  502  0.23496448710E+02 -0.15663581280E+02  0.10876207784E+03  0.11244595527E+03  0.41800000000E+01 0. -1.
        -11    1    1    2    0    0  0.16936461831E+02 -0.43397190315E+02  0.55858420695E+02  0.72734606819E+02  0.00000000000E+00 0.  1.
         11    1    1    2    0    0 -0.24320838266E+02  0.27578214749E+02 -0.49784100476E+01  0.37105871089E+02  0.00000000000E+00 0. -1.
</event>
<event>
 7    1  0.2686828E-009  0.1566628E+03  0.7561462E-02  0.1192517E+00
         -1   -1    0    0    0  501 -0.00000000000E+00  0.00000000000E+00  0.10261255007E+03  0.10261255007E+03  0.00000000000E+00 0.  1.
          1   -1    0    0  501    0  0.00000000000E+00 -0.00000000000E+00 -0.55368608539E+03  0.55368608539E+03  0.00000000000E+00 0. -1.
         25    2    1    2    0    0 -0.27272808627E+02  0.13760850355E+03 -0.45050239682E+03  0.48813966973E+03  0.12509205123E+03 0.  0.
          5    1    3    3  502    0 -0.37097597605E+02  0.69997960329E+02 -0.84942335216E+02  0.11622658435E+03  0.41800000000E+01 0.  1.
         -5    1    3    3    0  502  0.98247889778E+01  0.67610543218E+02 -0.36556006160E+03  0.37191308537E+03  0.41800000000E+01 0.  1.
        -11    1    1    2    0    0 -0.12968223359E+02  0.74866409335E+01  0.86710889455E+01  0.17303537010E+02  0.00000000000E+00 0.  1.
         11    1    1    2    0    0  0.40241031986E+02 -0.14509514448E+03 -0.92422274365E+01  0.15085542872E+03  0.00000000000E+00 0. -1.
</event>
<event>
 7    1  0.2686828E-009  0.1044522E+03  0.7561462E-02  0.1271203E+00
         -1   -1    0    0    0  501 -0.00000000000E+00  0.00000000000E+00  0.72742896102E+03  0.72742896102E+03  0.00000000000E+00 0.  1.
          1   -1    0    0  501    0  0.00000000000E+00 -0.00000000000E+00 -0.19004981642E+02  0.19004981642E+02  0.00000000000E+00 0. -1.
         25    2    1    2    0    0  0.12029585454E+02 -0.42871837388E+02  0.42054499750E+03  0.44100838244E+03  0.12509033972E+03 0.  0.
          5    1    3    3  502    0  0.59822710518E+02 -0.48063119340E+02  0.32507302691E+03  0.33403407814E+03  0.41800000000E+01 0. -1.
         -5    1    3    3    0  502 -0.47793125064E+02  0.51912819514E+01  0.95471970589E+02  0.10697430430E+03  0.41800000000E+01 0. -1.
        -11    1    1    2    0    0  0.20431055692E+02  0.46832341920E+02  0.25095000405E+03  0.25609881065E+03  0.00000000000E+00 0.  1.
         11    1    1    2    0    0 -0.32460641145E+02 -0.39605045323E+01  0.36928977830E+02  0.49326749571E+02  0.00000000000E+00 0. -1.
</event>
<event>
 7    1  0.2686828E-009  0.1020836E+03  0.7561462E-02  0.1275974E+00
          1   -1    0    0  501    0  0.00000000000E+00  0.00000000000E+00  0.43648357824E+03  0.43648357824E+03  0.00000000000E+00 0. -1.
         -1   -1    0    0    0  501 -0.00000000000E+00 -0.00000000000E+00 -0.30195151816E+02  0.30195151816E+02  0.00000000000E+00 0.  1.
         25    2    1    2    0    0 -0.65826336796E+01 -0.11530293500E+02  0.30011654523E+03  0.32542018366E+03  0.12510825903E+03 0.  0.
          5    1    3    3  502    0 -0.65491057510E+02  0.26578244121E-01  0.15858025001E+03  0.17162239776E+03  0.41800000000E+01 0. -1.
         -5    1    3    3    0  502  0.58908423830E+02 -0.11556871744E+02  0.14153629522E+03  0.15379778590E+03  0.41800000000E+01 0. -1.
        -11    1    1    2    0    0  0.37884594836E+02 -0.11401540382E+02  0.91654277475E+02  0.99828574208E+02  0.00000000000E+00 0. -1.
         11    1    1    2    0    0 -0.31301961156E+02  0.22931833882E+02  0.14517603712E+02  0.41429972182E+02  0.00000000000E+00 0.  1.
</event>
<event>
 7    1  0.2686828E-009  0.1024988E+03  0.7561462E-02  0.1275127E+00
          2   -1    0    0  501    0  0.00000000000E+00  0.00000000000E+00  0.83174283173E+03  0.83174283173E+03  0.00000000000E+00 0. -1.
         -2   -1    0    0    0  501 -0.00000000000E+00 -0.00000000000E+00 -0.25628997503E+02  0.25628997503E+02  0.00000000000E+00 0.  1.
         25    2    1    2    0    0  0.40534455881E+02 -0.43228326675E+02  0.65247709977E+03  0.66699825089E+03  0.12509424701E+03 0.  0.
          5    1    3    3  502    0  0.57147749118E+02 -0.69476163063E+02  0.30251210363E+03  0.31563245668E+03  0.41800000000E+01 0.  1.
         -5    1    3    3    0  502 -0.16613293237E+02  0.26247836388E+02  0.34996499613E+03  0.35136579422E+03  0.41800000000E+01 0.  1.
        -11    1    1    2    0    0 -0.12352221231E+02  0.52496297316E+02  0.27005621388E+02  0.60313698177E+02  0.00000000000E+00 0.  1.
         11    1    1    2    0    0 -0.28182234650E+02 -0.92679706413E+01  0.12663111307E+03  0.13005988016E+03  0.00000000000E+00 0. -1.
</event>
<event>
 7    1  0.2686828E-009  0.1077833E+03  0.7561462E-02  0.1264731E+00
          1   -1    0    0  501    0  0.00000000000E+00  0.00000000000E+00  0.11471193589E+04  0.11471193589E+04  0.00000000000E+00 0. -1.
         -1   -1    0    0    0  501 -0.00000000000E+00 -0.00000000000E+00 -0.17079658051E+02  0.17079658051E+02  0.00000000000E+00 0.  1.
         25    2    1    2    0    0  0.85731879003E+02  0.11900913989E+02  0.67714024688E+03  0.69401611196E+03  0.12509141812E+03 0.  0.
          5    1    3    3  502    0  0.15757308500E+02  0.11028375574E+02  0.80525788413E+01  0.21265800360E+02  0.41800000000E+01 0. -1.
         -5    1    3    3    0  502  0.69974570504E+02  0.87253841487E+00  0.66908766804E+03  0.67275031160E+03  0.41800000000E+01 0. -1.
        -11    1    1    2    0    0 -0.70292651868E+02  0.33469581978E+02  0.25898621518E+03  0.27043507442E+03  0.00000000000E+00 0.  1.
         11    1    1    2    0    0 -0.15439227135E+02 -0.45370495967E+02  0.19391323883E+03  0.19974783061E+03  0.00000000000E+00 0. -1.
</event>
<event>
 7    1  0.2686828E-009  0.1151345E+03  0.7561462E-02  0.1251347E+00
          2   -1    0    0  501    0  0.00000000000E+00  0.00000000000E+00  0.15446190295E+03  0.15446190295E+03  0.00000000000E+00 0. -1.
         -2   -1    0    0    0  501 -0.00000000000E+00 -0.00000000000E+00 -0.19239347925E+03  0.19239347925E+03  0.00000000000E+00 0.  1.
         25    2    1    2    0    0  0.62589517195E+02 -0.50403919966E+02  0.86999716762E+02  0.17226248270E+03  0.12508960556E+03 0.  0.
          5    1    3    3  502    0  0.69816097128E+02  0.23870613130E+02  0.41405756536E+02  0.84711290060E+02  0.41800000000E+01 0.  1.
         -5    1    3    3    0  502 -0.72265799329E+01 -0.74274533095E+02  0.45593960226E+02  0.87551192643E+02  0.41800000000E+01 0.  1.
        -11    1    1    2    0    0 -0.22901488959E+02  0.27552870875E+02 -0.12369562207E+03  0.12877983463E+03  0.00000000000E+00 0.  1.
         11    1    1    2    0    0 -0.39688028236E+02  0.22851049090E+02 -0.12356709910E+01  0.45813064868E+02  0.00000000000E+00 0. -1.
</event>
<event>
 7    1  0.2686828E-009  0.1012372E+03  0.7561462E-02  0.1277716E+00
         -1   -1    0    0    0  501 -0.00000000000E+00  0.00000000000E+00  0.37711785951E+02  0.37711785951E+02  0.00000000000E+00 0.  1.
          1   -1    0    0  501    0  0.00000000000E+00 -0.00000000000E+00 -0.51663860645E+03  0.51663860645E+03  0.00000000000E+00 0. -1.
         25    2    1    2    0    0  0.63439357076E+01  0.54246497832E+02 -0.39616576493E+03  0.41901553913E+03  0.12507510016E+03 0.  0.
          5    1    3    3  502    0  0.51954591811E+02 -0.12275865269E+02 -0.12277854024E+03  0.13394782126E+03  0.41800000000E+01 0. -1.
         -5    1    3    3    0  502 -0.45610656103E+02  0.66522363101E+02 -0.27338722470E+03  0.28506771787E+03  0.41800000000E+01 0. -1.
        -11    1    1    2    0    0 -0.19870303045E+02 -0.50281074048E+02 -0.27962192685E+01  0.54137179393E+02  0.00000000000E+00 0.  1.
         11    1    1    2    0    0  0.13526367337E+02 -0.39654237845E+01 -0.79964836302E+02  0.81197673883E+02  0.00000000000E+00 0. -1.
</event>
<event>
 7    1  0.2686828E-009  0.1078299E+03  0.7561462E-02  0.1264642E+00
          1   -1    0    0  501    0  0.00000000000E+00  0.00000000000E+00  0.94687075234E+03  0.94687075234E+03  0.00000000000E+00 0. -1.
         -1   -1    0    0    0  501 -0.00000000000E+00 -0.00000000000E+00 -0.20405839351E+02  0.20405839351E+02  0.00000000000E+00 0.  1.
         25    2    1    2    0    0 -0.68372878278E+02  0.95707461138E+00  0.68843765225E+03  0.70304382032E+03  0.12509374796E+03 0.  0.
          5    1    3    3  502    0 -0.21286607877E+02  0.52053650015E+02  0.15228225132E+03  0.16238860373E+03  0.41800000000E+01 0.  1.
         -5    1    3    3    0  502 -0.47086270401E+02 -0.51096575404E+02  0.53615540093E+03  0.54065521659E+03  0.41800000000E+01 0.  1.
        -11    1    1    2    0    0  0.66580284849E+02  0.19300100606E+02  0.23326337394E+03  0.24334590573E+03  0.00000000000E+00 0. -1.
         11    1    1    2    0    0  0.17925934294E+01 -0.20257175217E+02  0.47638868028E+01  0.20886865644E+02  0.00000000000E+00 0.  1.
</event>
<event>
 7    1  0.2686828E-009  0.1726967E+03  0.7561462E-02  0.1175064E+00
          1   -1    0    0  501    0  0.00000000000E+00  0.00000000000E+00  0.40577671179E+03  0.40577671179E+03  0.00000000000E+00 0. -1.
         -1   -1    0    0    0  501 -0.00000000000E+00 -0.00000000000E+00 -0.17852811258E+03  0.17852811258E+03  0.00000000000E+00 0.  1.
         25    2    1    2    0    0  0.12930449035E+03  0.10177560190E+03 -0.81996597023E+02  0.22236953815E+03  0.12508735031E+03 0.  0.
          5    1    3    3  502    0  0.42509371146E+02  0.13038891576E+02 -0.87298243650E+02  0.98058732773E+02  0.41800000000E+01 0. -1.
         -5    1    3    3    0  502  0.86795119202E+02  0.88736710324E+02  0.53016466268E+01  0.12431080538E+03  0.41800000000E+01 0. -1.
        -11    1    1    2    0    0 -0.11596284021E+03 -0.55850029085E+02  0.27335548787E+03  0.30214206726E+03  0.00000000000E+00 0. -1.
         11    1    1    2    0    0 -0.13341650139E+02 -0.45925572815E+02  0.35889708367E+02  0.59793218959E+02  0.00000000000E+00 0.  1.
</event>
<event>
 7    1  0.2686828E-009  0.1044032E+03  0.7561462E-02  0.1271300E+00
          2   -1    0    0  501    0  0.00000000000E+00  0.00000000000E+00  0.23878059155E+03  0.23878059155E+03  0.00000000000E+00 0. -1.
         -2   -1    0    0    0  501 -0.00000000000E+00 -0.00000000000E+00 -0.83237355011E+02  0.83237355011E+02  0.00000000000E+00 0.  1.
         25    2    1    2    0    0  0.55989742579E+02 -0.46958063852E+02  0.14388652337E+03  0.20418176968E+03  0.12508777888E+03 0.  0.
          5    1    3    3  502    0  0.59382451843E+02  0.10499691149E+02  0.13994695461E+02  0.62047103092E+02  0.41800000000E+01 0.  1.
         -5    1    3    3    0  502 -0.33927092635E+01 -0.57457755001E+02  0.12989182791E+03  0.14213466658E+03  0.41800000000E+01 0.  1.
        -11    1    1    2    0    0 -0.29850268684E+02  0.55609685244E+02 -0.28415278467E+02  0.69216354164E+02  0.00000000000E+00 0.  1.
         11    1    1    2    0    0 -0.26139473895E+02 -0.86516213915E+01  0.40071991631E+02  0.48619822722E+02  0.00000000000E+00 0. -1.
</event>
<event>
 7    1  0.2686828E-009  0.1069329E+03  0.7561462E-02  0.1266357E+00
          1   -1    0    0  501    0  0.00000000000E+00  0.00000000000E+00  0.17382538422E+03  0.17382538422E+03  0.00000000000E+00 0. -1.
         -1   -1    0    0    0  501 -0.00000000000E+00 -0.00000000000E+00 -0.10972628998E+03  0.10972628998E+03  0.00000000000E+00 0.  1.
         25    2    1    2    0    0 -0.77128201861E+01 -0.22162364585E+02  0.11898399155E+03  0.17422826115E+03  0.12509052219E+03 0.  0.
          5    1    3    3  502    0  0.53563595304E+02  0.14139178774E+02  0.45529226449E+02  0.71828671012E+02  0.41800000000E+01 0. -1.
         -5    1    3    3    0  502 -0.61276415490E+02 -0.36301543359E+02  0.73454765099E+02  0.10239959014E+03  0.41800000000E+01 0. -1.
        -11    1    1    2    0    0 -0.21027352371E+02  0.45382322577E+02 -0.96891455708E+01  0.50946877158E+02  0.00000000000E+00 0. -1.
         11    1    1    2    0    0  0.28740172557E+02 -0.23219957993E+02 -0.45195751734E+02  0.58376535891E+02  0.00000000000E+00 0.  1.
</event>
<event>
 7    1  0.2686828E-009  0.1738750E+03  0.7561462E-02  0.1173866E+00
         -1   -1    0    0    0  501 -0.00000000000E+00  0.00000000000E+00  0.29879816836E+02  0.29879816836E+02  0.00000000000E+00 0.  1.
          1   -1    0    0  501    0  0.00000000000E+00 -0.00000000000E+00 -0.12316078717E+04  0.12316078717E+04  0.00000000000E+00 0. -1.
         25    2    1    2    0    0 -0.15241059918E+03  0.30833188280E+02 -0.74411915793E+03  0.77041540182E+03  0.12508754505E+03 0.  0.
          5    1    3    3  502    0  0.52608392420E+01  0.25738244029E+02 -0.35070096859E+02  0.44017243541E+02  0.41800000000E+01 0.  1.
         -5    1    3    3    0  502 -0.15767143843E+03  0.50949442511E+01 -0.70904906107E+03  0.72639815828E+03  0.41800000000E+01 0.  1.
        -11    1    1    2    0    0  0.14382869989E+03 -0.41455739771E+02 -0.45229288720E+03  0.47641801927E+03  0.00000000000E+00 0. -1.
         11    1    1    2    0    0  0.85818992963E+01  0.10622551491E+02 -0.53160097800E+01  0.14654267491E+02  0.00000000000E+00 0.  1.
</event>
<event>
 7    1  0.2686828E-009  0.1065097E+03  0.7561462E-02  0.1267173E+00
         -1   -1    0    0    0  501 -0.00000000000E+00  0.00000000000E+00  0.25109133738E+02  0.25109133738E+02  0.00000000000E+00 0.  1.
          1   -1    0    0  501    0  0.00000000000E+00 -0.00000000000E+00 -0.55479326835E+03  0.55479326835E+03  0.00000000000E+00 0. -1.
         25    2    1    2    0    0 -0.16789110418E+02 -0.38028749657E+02 -0.26213536139E+03  0.29341182909E+03  0.12508994256E+03 0.  0.
          5    1    3    3  502    0  0.22208859503E+02 -0.73421614933E+02 -0.12848757548E+03  0.14970135748E+03  0.41800000000E+01 0. -1.
         -5    1    3    3    0  502 -0.38997969921E+02  0.35392865276E+02 -0.13364778591E+03  0.14371047161E+03  0.41800000000E+01 0. -1.
        -11    1    1    2    0    0 -0.25902428577E+02  0.30506383802E+02 -0.21343634803E+03  0.21715581945E+03  0.00000000000E+00 0. -1.
         11    1    1    2    0    0  0.42691538995E+02  0.75223658555E+01 -0.54112425187E+02  0.69334753547E+02  0.00000000000E+00 0.  1.
</event>
<event>
 7    1  0.2686828E-009  0.9610443E+02  0.7561462E-02  0.1288708E+00
         -2   -1    0    0    0  501 -0.00000000000E+00  0.00000000000E+00  0.18018441347E+03  0.18018441347E+03  0.00000000000E+00 0. -1.
          2   -1    0    0  501    0  0.00000000000E+00 -0.00000000000E+00 -0.71798927144E+02  0.71798927144E+02  0.00000000000E+00 0.  1.
         25    2    1    2    0    0 -0.10591577154E+02  0.46492061176E+01  0.94376053467E+02  0.15712155196E+03  0.12508615431E+03 0.  0.
          5    1    3    3  502    0  0.46043476332E+02  0.30132060028E+02  0.16851068337E+02  0.57700724938E+02  0.41800000000E+01 0. -1.
         -5    1    3    3    0  502 -0.56635053486E+02 -0.25482853911E+02  0.77524985131E+02  0.99420827025E+02  0.41800000000E+01 0. -1.
        -11    1    1    2    0    0 -0.31826503987E+02  0.17814865735E+01  0.34795154681E+02  0.47189011853E+02  0.00000000000E+00 0.  1.
         11    1    1    2    0    0  0.42418081141E+02 -0.64306926911E+01 -0.20785721821E+02  0.47672776800E+02  0.00000000000E+00 0. -1.
</event>
<event>
 7    1  0.2686828E-009  0.8463093E+02  0.7561462E-02  0.1316401E+00
          3   -1    0    0  501    0  0.00000000000E+00  0.00000000000E+00  0.31052820968E+02  0.31052820968E+02  0.00000000000E+00 0. -1.
         -3   -1    0    0    0  501 -0.00000000000E+00 -0.00000000000E+00 -0.53965640235E+03  0.53965640235E+03  0.00000000000E+00 0.  1.
         25    2    1    2    0    0 -0.65836480740E+01  0.18349956338E+02 -0.43394503578E+03  0.45203550197E+03  0.12509090953E+03 0.  0.
          5    1    3    3  502    0  0.35059228883E+02  0.14208604634E+02 -0.37719464420E+02  0.53584180237E+02  0.41800000000E+01 0.  1.
         -5    1    3    3    0  502 -0.41642876957E+02  0.41413517039E+01 -0.39622557136E+03  0.39845132174E+03  0.41800000000E+01 0.  1.
        -11    1    1    2    0    0  0.91852182642E+01 -0.53306897335E+02 -0.29846945377E+02  0.61780528376E+02  0.00000000000E+00 0. -1.
         11    1    1    2    0    0 -0.26015701902E+01  0.34956940998E+02 -0.44811600231E+02  0.56893192972E+02  0.00000000000E+00 0.  1.
</event>
<event>
 7    1  0.2686828E-009  0.7950169E+02  0.7561462E-02  0.1330472E+00
          2   -1    0    0  501    0  0.00000000000E+00  0.00000000000E+00  0.14289417082E+03  0.14289417082E+03  0.00000000000E+00 0. -1.
         -2   -1    0    0    0  501 -0.00000000000E+00 -0.00000000000E+00 -0.13765243839E+03  0.13765243839E+03  0.00000000000E+00 0.  1.
         25    2    1    2    0    0  0.51653346575E+02 -0.34779981325E+02 -0.59590717670E+02  0.15190833137E+03  0.12508945676E+03 0.  0.
          5    1    3    3  502    0  0.18453180884E+01 -0.25141076561E+02 -0.89357872010E+02  0.92939661177E+02  0.41800000000E+01 0.  1.
         -5    1    3    3    0  502  0.49808028486E+02 -0.96389047649E+01  0.29767154340E+02  0.58968670192E+02  0.41800000000E+01 0.  1.
        -11    1    1    2    0    0 -0.10253704494E+02  0.39564163384E+02 -0.10808601914E+02  0.42276321451E+02  0.00000000000E+00 0.  1.
         11    1    1    2    0    0 -0.41399642080E+02 -0.47841820585E+01  0.75641052016E+02  0.86361956396E+02  0.00000000000E+00 0. -1.
</event>
<event>
 7    1  0.2686828E-009  0.1616868E+03  0.7561462E-02  0.1186805E+00
          2   -1    0    0  501    0  0.00000000000E+00  0.00000000000E+00  0.28577683873E+02  0.28577683873E+02  0.00000000000E+00 0. -1.
         -2   -1    0    0    0  501 -0.00000000000E+00 -0.00000000000E+00 -0.98221196930E+03  0.98221196930E+03  0.00000000000E+00 0.  1.
         25    2    1    2    0    0  0.23158726818E+02  0.12020631158E+03 -0.62354168911E+03  0.64764021796E+03  0.12509088652E+03 0.  0.
          5    1    3    3  502    0  0.23987012910E+02 -0.20777069832E+02 -0.81841003639E+02  0.87877674616E+02  0.41800000000E+01 0.  1.
         -5    1    3    3    0  502 -0.82828609239E+00  0.14098338141E+03 -0.54170068547E+03  0.55976254335E+03  0.41800000000E+01 0.  1.
        -11    1    1    2    0    0 -0.42831130655E+02 -0.18380017234E+02 -0.83324654099E+02  0.95474230908E+02  0.00000000000E+00 0.  1.
         11    1    1    2    0    0  0.19672403837E+02 -0.10182629435E+03 -0.24676794222E+03  0.26767520430E+03  0.00000000000E+00 0. -1.
</event>
<event>
 7    1  0.2686828E-009  0.8985378E+02  0.7561462E-02  0.1303206E+00
         -2   -1    0    0    0  501 -0.00000000000E+00  0.00000000000E+00  0.30859544984E+02  0.30859544984E+02  0.00000000000E+00 0. -1.
          2   -1    0    0  501    0  0.00000000000E+00 -0.00000000000E+00 -0.44537999470E+03  0.44537999470E+03  0.00000000000E+00 0.  1.
         25    2    1    2    0    0 -0.32302899479E+02  0.63887329940E+01 -0.17216634679E+03  0.21534606722E+03  0.12509350293E+03 0.  0.
          5    1    3    3  502    0  0.81462459161E+01 -0.34894941402E+02 -0.14838611363E+03  0.15270864211E+03  0.41800000000E+01 0. -1.
         -5    1    3    3    0  502 -0.40449145395E+02  0.41283674396E+02 -0.23780233169E+02  0.62637425110E+02  0.41800000000E+01 0. -1.
        -11    1    1    2    0    0  0.54753467987E+02 -0.21279974264E+02 -0.99709129981E+02  0.11572679103E+03  0.00000000000E+00 0. -1.
         11    1    1    2    0    0 -0.22450568508E+02  0.14891241270E+02 -0.14264497294E+03  0.14516668143E+03  0.00000000000E+00 0.  1.
</event>
<event>
 7    1  0.2686828E-009  0.1034216E+03  0.7561462E-02  0.1273261E+00
          2   -1    0    0  501    0  0.00000000000E+00  0.00000000000E+00  0.72068419991E+02  0.72068419991E+02  0.00000000000E+00 0. -1.
         -2   -1    0    0    0  501 -0.00000000000E+00 -0.00000000000E+00 -0.19038551564E+03  0.19038551564E+03  0.00000000000E+00 0.  1.
         25    2    1    2    0    0 -0.43077479281E+02  0.54000949290E+01 -0.53404187127E+02  0.14277369627E+03  0.12508993124E+03 0.  0.
          5    1    3    3  502    0  0.24896095746E+02  0.45956753213E+02 -0.28561296784E+02  0.59708113547E+02  0.41800000000E+01 0. -1.
         -5    1    3    3    0  502 -0.67973575027E+02 -0.40556658284E+02 -0.24842890344E+02  0.83065582727E+02  0.41800000000E+01 0. -1.
        -11    1    1    2    0    0 -0.28640084554E+01 -0.25024894520E+02 -0.65013818064E+02  0.69722624946E+02  0.00000000000E+00 0.  1.
         11    1    1    2    0    0  0.45941487737E+02  0.19624799591E+02  0.10090954730E+00  0.49957614406E+02  0.00000000000E+00 0. -1.
</event>
<event>
 7    1  0.2686828E-009  0.1083336E+03  0.7561462E-02  0.1263687E+00
         -4   -1    0    0    0  501 -0.00000000000E+00  0.00000000000E+00  0.98934279810E+02  0.98934279810E+02  0.00000000000E+00 0. -1.
          4   -1    0    0  501    0  0.00000000000E+00 -0.00000000000E+00 -0.20521625967E+03  0.20521625967E+03  0.00000000000E+00 0.  1.
         25    2    1    2    0    0  0.32708598902E+02  0.76717853012E+02 -0.41998386756E+02  0.15609591924E+03  0.12508633059E+03 0.  0.
          5    1    3    3  502    0  0.49946921555E+01  0.26920218907E+02  0.44506746510E+02  0.52421064666E+02  0.41800000000E+01 0.  1.
         -5    1    3    3    0  502  0.27713906746E+02  0.49797634105E+02 -0.86505133266E+02  0.10367485457E+03  0.41800000000E+01 0.  1.
        -11    1    1    2    0    0 -0.69795933964E+02 -0.54881343226E+02 -0.53589088813E+02  0.10370739931E+03  0.00000000000E+00 0.  1.
         11    1    1    2    0    0  0.37087335063E+02 -0.21836509786E+02 -0.10694504288E+02  0.44347220924E+02  0.00000000000E+00 0. -1.
</event>
<event>
 7    1  0.2686828E-009  0.1066210E+03  0.7561462E-02  0.1266958E+00
         -1   -1    0    0    0  501 -0.00000000000E+00  0.00000000000E+00  0.13944685881E+03  0.13944685881E+03  0.00000000000E+00 0.  1.
          1   -1    0    0  501    0  0.00000000000E+00 -0.00000000000E+00 -0.85554213130E+02  0.85554213130E+02  0.00000000000E+00 0. -1.
         25    2    1    2    0    0 -0.11807523615E+02  0.66649006161E+01  0.44964606517E+02  0.13361377971E+03  0.12508792018E+03 0.  0.
          5    1    3    3  502    0 -0.60194055141E+02  0.31463484765E+02  0.39810241806E+02  0.78839095001E+02  0.41800000000E+01 0.  1.
         -5    1    3    3    0  502  0.48386531526E+02 -0.24798584149E+02  0.51543647114E+01  0.54774684705E+02  0.41800000000E+01 0.  1.
        -11    1    1    2    0    0  0.15295494107E+01 -0.48021609157E+02  0.83658820777E+01  0.48768867634E+02  0.00000000000E+00 0. -1.
         11    1    1    2    0    0  0.10277974204E+02  0.41356708541E+02  0.56215708750E+00  0.42618424603E+02  0.00000000000E+00 0.  1.
</event>
<event>
 7    1  0.2686828E-009  0.1114622E+03  0.7561462E-02  0.1257886E+00
         -1   -1    0    0    0  501 -0.00000000000E+00  0.00000000000E+00  0.89709196935E+02  0.89709196935E+02  0.00000000000E+00 0.  1.
          1   -1    0    0  501    0  0.00000000000E+00 -0.00000000000E+00 -0.15169963713E+03  0.15169963713E+03  0.00000000000E+00 0. -1.
         25    2    1    2    0    0 -0.66945174065E+01 -0.36841387894E+02 -0.64429759751E+02  0.14561866603E+03  0.12510594522E+03 0.  0.
          5    1    3    3  502    0 -0.60110409215E+02 -0.44511822270E+02 -0.26238546560E+02  0.79375672239E+02  0.41800000000E+01 0.  1.
         -5    1    3    3    0  502  0.53415891809E+02  0.76704343760E+01 -0.38191213192E+02  0.66242993790E+02  0.41800000000E+01 0.  1.
        -11    1    1    2    0    0 -0.39654568233E+02  0.21216070259E+02  0.10590648387E+02  0.46203552377E+02  0.00000000000E+00 0.  1.
         11    1    1    2    0    0  0.46349085640E+02  0.15625317635E+02 -0.81513288319E+01  0.49586615660E+02  0.00000000000E+00 0. -1.
</event>
<event>
 7    1  0.2686828E-009  0.1103058E+03  0.7561462E-02  0.1260005E+00
         -1   -1    0    0    0  501 -0.00000000000E+00  0.00000000000E+00  0.45308940813E+02  0.45308940813E+02  0.00000000000E+00 0.  1.
          1   -1    0    0  501    0  0.00000000000E+00 -0.00000000000E+00 -0.40863014027E+03  0.40863014027E+03  0.00000000000E+00 0. -1.
         25    2    1    2    0    0  0.54036670349E+02  0.49839290179E+02 -0.26483143638E+03  0.30197237180E+03  0.12509079520E+03 0.  0.
          5    1    3    3  502    0  0.45781902224E+02  0.72577209182E+02 -0.26376162923E+03  0.27740061881E+03  0.41800000000E+01 0. -1.
         -5    1    3    3    0  502  0.82547681257E+01 -0.22737919003E+02 -0.10698071529E+01  0.24571752984E+02  0.41800000000E+01 0. -1.
        -11    1    1    2    0    0 -0.74048247463E+02 -0.24785835768E+02 -0.89270333931E+02  0.11860300640E+03  0.00000000000E+00 0. -1.
         11    1    1    2    0    0  0.20011577114E+02 -0.25053454412E+02 -0.92194291454E+01  0.33363702887E+02  0.00000000000E+00 0.  1.
</event>
<event>
 7    1  0.2686828E-009  0.1090390E+03  0.7561462E-02  0.1262360E+00
          2   -1    0    0  501    0  0.00000000000E+00  0.00000000000E+00  0.79145197244E+03  0.79145197244E+03  0.00000000000E+00 0.  1.
         -2   -1    0    0    0  501 -0.00000000000E+00 -0.00000000000E+00 -0.20016039298E+02  0.20016039298E+02  0.00000000000E+00 0. -1.
         25    2    1    2    0    0  0.11921441398E+02 -0.65386408441E+02  0.41494585557E+03  0.43845746118E+03  0.12508948410E+03 0.  0.
          5    1    3    3  502    0  0.45667876602E+02 -0.61469447164E+02  0.12609419610E+03  0.14758477760E+03  0.41800000000E+01 0.  1.
         -5    1    3    3    0  502 -0.33746435203E+02 -0.39169612774E+01  0.28885165947E+03  0.29087268358E+03  0.41800000000E+01 0.  1.
        -11    1    1    2    0    0  0.36377184657E+02  0.24292861904E+02  0.10720147858E+03  0.11578255358E+03  0.00000000000E+00 0. -1.
         11    1    1    2    0    0 -0.48298626056E+02  0.41093546537E+02  0.24928859899E+03  0.25722799699E+03  0.00000000000E+00 0.  1.
</event>
<event>
 7    1  0.2686828E-009  0.1296723E+03  0.7561462E-02  0.1227943E+00
          1   -1    0    0  501    0  0.00000000000E+00  0.00000000000E+00  0.37400439708E+03  0.37400439708E+03  0.00000000000E+00 0. -1.
         -1   -1    0    0    0  501 -0.00000000000E+00 -0.00000000000E+00 -0.61479229878E+02  0.61479229878E+02  0.00000000000E+00 0.  1.
         25    2    1    2    0    0 -0.80320702844E+02 -0.58128842244E+02  0.11873554594E+03  0.19893947879E+03  0.12509359993E+03 0.  0.
          5    1    3    3  502    0 -0.39807645116E+02  0.24209758127E+02 -0.24851228715E+01  0.46844521920E+02  0.41800000000E+01 0.  1.
         -5    1    3    3    0  502 -0.40513057728E+02 -0.82338600371E+02  0.12122066881E+03  0.15209495687E+03  0.41800000000E+01 0.  1.
        -11    1    1    2    0    0  0.92466652543E+02  0.45052373425E+02  0.10889132280E+03  0.14979024790E+03  0.00000000000E+00 0.  1.
         11    1    1    2    0    0 -0.12145949700E+02  0.13076468819E+02  0.84898298460E+02  0.86753900271E+02  0.00000000000E+00 0. -1.
</event>
<event>
 7    1  0.2686828E-009  0.8826471E+02  0.7561462E-02  0.1307109E+00
          1   -1    0    0  501    0  0.00000000000E+00  0.00000000000E+00  0.66020792432E+03  0.66020792432E+03  0.00000000000E+00 0. -1.
         -1   -1    0    0    0  501 -0.00000000000E+00 -0.00000000000E+00 -0.19517310030E+02  0.19517310030E+02  0.00000000000E+00 0.  1.
         25    2    1    2    0    0  0.22673638936E+02  0.15982279430E+02  0.42052050528E+03  0.43960632716E+03  0.12508677132E+03 0.  0.
          5    1    3    3  502    0  0.46381011180E+02 -0.13601084203E+02  0.60398526580E+02  0.77470265926E+02  0.41800000000E+01 0.  1.
         -5    1    3    3    0  502 -0.23707372243E+02  0.29583363633E+02  0.36012197870E+03  0.36213606123E+03  0.41800000000E+01 0.  1.
        -11    1    1    2    0    0 -0.46080094943E+02  0.17270247888E+02  0.77814181619E+02  0.92068906114E+02  0.00000000000E+00 0.  1.
         11    1    1    2    0    0  0.23406456007E+02 -0.33252527317E+02  0.14235592739E+03  0.14805000108E+03  0.00000000000E+00 0. -1.
</event>
<event>
 7    1  0.2686828E-009  0.1101246E+03  0.7561462E-02  0.1260339E+00
         -3   -1    0    0    0  501 -0.00000000000E+00  0.00000000000E+00  0.23954564709E+03  0.23954564709E+03  0.00000000000E+00 0.  1.
          3   -1    0    0  501    0  0.00000000000E+00 -0.00000000000E+00 -0.78257330520E+02  0.78257330520E+02  0.00000000000E+00 0. -1.
         25    2    1    2    0    0 -0.41524932881E+01  0.75762662803E+02  0.12898286941E+03  0.19504050180E+03  0.12508793893E+03 0.  0.
          5    1    3    3  502    0  0.49100734082E+02  0.76436684379E+02  0.65530166580E+02  0.11209426363E+03  0.41800000000E+01 0.  1.
         -5    1    3    3    0  502 -0.53253227370E+02 -0.67402157617E+00  0.63452702826E+02  0.82946238169E+02  0.41800000000E+01 0.  1.
        -11    1    1    2    0    0  0.16238866562E+01 -0.21191868601E+02 -0.31981036468E+02  0.38399466093E+02  0.00000000000E+00 0. -1.
         11    1    1    2    0    0  0.25286066319E+01 -0.54570794202E+02  0.64286483631E+02  0.84363009720E+02  0.00000000000E+00 0.  1.
</event>
<event>
 7    1  0.2686828E-009  0.1192361E+03  0.7561462E-02  0.1244363E+00
          2   -1    0    0  501    0  0.00000000000E+00  0.00000000000E+00  0.12274376509E+03  0.12274376509E+03  0.00000000000E+00 0. -1.
         -2   -1    0    0    0  501 -0.00000000000E+00 -0.00000000000E+00 -0.18306605674E+03  0.18306605674E+03  0.00000000000E+00 0.  1.
         25    2    1    2    0    0 -0.85019927153E+02  0.63929039304E+02 -0.32264336479E+02  0.16734466336E+03  0.12509172182E+03 0.  0.
          5    1    3    3  502    0 -0.77499435784E+02  0.60621808568E+02 -0.74897354748E+02  0.12372652250E+03  0.41800000000E+01 0.  1.
         -5    1    3    3    0  502 -0.75204913695E+01  0.33072307352E+01  0.42633018270E+02  0.43618140863E+02  0.41800000000E+01 0.  1.
        -11    1    1    2    0    0  0.92488037472E+02 -0.31823321852E+02 -0.36566965310E+02  0.10442175942E+03  0.00000000000E+00 0.  1.
         11    1    1    2    0    0 -0.74681103188E+01 -0.32105717451E+02  0.85090101470E+01  0.34043399044E+02  0.00000000000E+00 0. -1.
</event>
<event>
 7    1  0.2686828E-009  0.1417448E+03  0.7561462E-02  0.1211000E+00
          1   -1    0    0  501    0  0.00000000000E+00  0.00000000000E+00  0.32706150259E+03  0.32706150259E+03  0.00000000000E+00 0. -1.
         -1   -1    0    0    0  501 -0.00000000000E+00 -0.00000000000E+00 -0.68750396317E+02  0.68750396317E+02  0.00000000000E+00 0.  1.
         25    2    1    2    0    0  0.69803866552E+02  0.71719724110E+02  0.11013179347E+03  0.19440364946E+03  0.12508984122E+03 0.  0.
          5    1    3    3  502    0 -0.17767155005E+02  0.59913023307E+02  0.78572435103E+02  0.10048055591E+03  0.41800000000E+01 0. -1.
         -5    1    3    3    0  502  0.87571021557E+02  0.11806700803E+02  0.31559358372E+02  0.93923093546E+02  0.41800000000E+01 0. -1.
        -11    1    1    2    0    0 -0.55543892763E+02 -0.92081934196E+02  0.13696528472E+03  0.17413700310E+03  0.00000000000E+00 0. -1.
         11    1    1    2    0    0 -0.14259973789E+02  0.20362210085E+02  0.11214028081E+02  0.27271246356E+02  0.00000000000E+00 0.  1.
</event>
<event>
 7    1  0.2686828E-009  0.1173810E+03  0.7561462E-02  0.1247481E+00
          2   -1    0    0  501    0  0.00000000000E+00  0.00000000000E+00  0.13534386127E+03  0.13534386127E+03  0.00000000000E+00 0.  1.
         -2   -1    0    0    0  501 -0.00000000000E+00 -0.00000000000E+00 -0.17146655761E+03  0.17146655761E+03  0.00000000000E+00 0. -1.
         25    2    1    2    0    0  0.70765299050E+02 -0.69605810144E+02  0.19086364230E+02  0.16082366984E+03  0.12508903679E+03 0.  0.
          5    1    3    3  502    0  0.29431661426E+02 -0.30295387059E+02 -0.53576268465E+02  0.68351460218E+02  0.41800000000E+01 0.  1.
         -5    1    3    3    0  502  0.41333637624E+02 -0.39310423085E+02  0.72662632695E+02  0.92472209623E+02  0.41800000000E+01 0.  1.
        -11    1    1    2    0    0 -0.12587315381E+02  0.75596559419E+02 -0.30013635460E+02  0.82304912478E+02  0.00000000000E+00 0.  1.
         11    1    1    2    0    0 -0.58177983669E+02 -0.59907492751E+01 -0.25195425106E+02  0.63681836555E+02  0.00000000000E+00 0. -1.
</event>
<event>
 7    1  0.2686828E-009  0.1272142E+03  0.7561462E-02  0.1231649E+00
          1   -1    0    0  501    0  0.00000000000E+00  0.00000000000E+00  0.98557174118E+03  0.98557174118E+03  0.00000000000E+00 0. -1.
         -1   -1    0    0    0  501 -0.00000000000E+00 -0.00000000000E+00 -0.25913540134E+02  0.25913540134E+02  0.00000000000E+00 0.  1.
         25    2    1    2    0    0  0.11743571127E+03  0.20184301628E+01  0.54467240333E+03  0.57106103437E+03  0.12508979847E+03 0.  0.
          5    1    3    3  502    0  0.12198667229E+03  0.13612502493E+02  0.27628561887E+03  0.30235287998E+03  0.41800000000E+01 0.  1.
         -5    1    3    3    0  502 -0.45509610138E+01 -0.11594072330E+02  0.26838678446E+03  0.26870815439E+03  0.41800000000E+01 0.  1.
        -11    1    1    2    0    0 -0.99510237645E+02 -0.73293701612E+01  0.40869439202E+03  0.42069836359E+03  0.00000000000E+00 0. -1.
         11    1    1    2    0    0 -0.17925473627E+02  0.53109399983E+01  0.62914056970E+01  0.19725883354E+02  0.00000000000E+00 0.  1.
</event>
<event>
 7    1  0.2686828E-009  0.1824906E+03  0.7561462E-02  0.1165414E+00
          2   -1    0    0  501    0  0.00000000000E+00  0.00000000000E+00  0.53805790299E+03  0.53805790299E+03  0.00000000000E+00 0.  1.
         -2   -1    0    0    0  501 -0.00000000000E+00 -0.00000000000E+00 -0.78860010660E+02  0.78860010660E+02  0.00000000000E+00 0. -1.
         25    2    1    2    0    0  0.16489015647E+03  0.35921976257E+02  0.30758391871E+03  0.37247221785E+03  0.12509410034E+03 0.  0.
          5    1    3    3  502    0  0.63868143711E+02  0.63878669415E+02  0.75577029181E+02  0.11785153341E+03  0.41800000000E+01 0. -1.
         -5    1    3    3    0  502  0.10102201276E+03 -0.27956693159E+02  0.23200688953E+03  0.25462068444E+03  0.41800000000E+01 0. -1.
        -11    1    1    2    0    0 -0.55820078145E+02 -0.20651578302E+02  0.31626001220E+01  0.59601768850E+02  0.00000000000E+00 0. -1.
         11    1    1    2    0    0 -0.10907007832E+03 -0.15270397955E+02  0.14845137350E+03  0.18484392696E+03  0.00000000000E+00 0.  1.
</event>
<event>
 7    1  0.2686828E-009  0.1705901E+03  0.7561462E-02  0.1177234E+00
         -1   -1    0    0    0  501 -0.00000000000E+00  0.00000000000E+00  0.43444213055E+03  0.43444213055E+03  0.00000000000E+00 0.  1.
          1   -1    0    0  501    0  0.00000000000E+00 -0.00000000000E+00 -0.87339200306E+02  0.87339200306E+02  0.00000000000E+00 0. -1.
         25    2    1    2    0    0 -0.54984503783E+02 -0.14499065273E+03  0.23132806576E+03  0.30529721356E+03  0.12509248402E+03 0.  0.
          5    1    3    3  502    0 -0.49307588294E+02 -0.10437171707E+02  0.12102837701E+03  0.13116978790E+03  0.41800000000E+01 0.  1.
         -5    1    3    3    0  502 -0.56769154891E+01 -0.13455348103E+03  0.11029968876E+03  0.17412742566E+03  0.41800000000E+01 0.  1.
        -11    1    1    2    0    0  0.14684721620E+02  0.60540072614E+02 -0.63652579830E+01  0.62619948501E+02  0.00000000000E+00 0. -1.
         11    1    1    2    0    0  0.40299782163E+02  0.84450580120E+02  0.12214012247E+03  0.15386416880E+03  0.00000000000E+00 0.  1.
</event>
<event>
 7    1  0.2686828E-009  0.1033487E+03  0.7561462E-02  0.1273408E+00
         -2   -1    0    0    0  501 -0.00000000000E+00  0.00000000000E+00  0.21182175495E+03  0.21182175495E+03  0.00000000000E+00 0.  1.
          2   -1    0    0  501    0  0.00000000000E+00 -0.00000000000E+00 -0.84592353028E+02  0.84592353028E+02  0.00000000000E+00 0. -1.
         25    2    1    2    0    0  0.89540723552E+01 -0.28313589757E+02 -0.10529265938E+02  0.12899065054E+03  0.12508352293E+03 0.  0.
          5    1    3    3  502    0 -0.47703155543E+02  0.14042682345E+02 -0.26278265845E+02  0.56398649204E+02  0.41800000000E+01 0. -1.
         -5    1    3    3    0  502  0.56657227898E+02 -0.42356272102E+02  0.15748999907E+02  0.72592001333E+02  0.41800000000E+01 0. -1.
        -11    1    1    2    0    0 -0.37777910359E+02 -0.89478931871E+01  0.27657062776E+02  0.47667058070E+02  0.00000000000E+00 0. -1.
         11    1    1    2    0    0  0.28823838004E+02  0.37261482944E+02  0.11010160508E+03  0.11975639937E+03  0.00000000000E+00 0.  1.
</event>
<event>
 7    1  0.2686828E-009  0.1124381E+03  0.7561462E-02  0.1256120E+00
         -1   -1    0    0    0  501 -0.00000000000E+00  0.00000000000E+00  0.98113782002E+03  0.98113782002E+03  0.00000000000E+00 0.  1.
          1   -1    0    0  501    0  0.00000000000E+00 -0.00000000000E+00 -0.13261925576E+02  0.13261925576E+02  0.00000000000E+00 0. -1.
         25    2    1    2    0    0  0.34703350727E+02  0.19094243478E+02  0.53769562049E+03  0.55347362417E+03  0.12509020612E+03 0.  0.
          5    1    3    3  502    0 -0.36897537244E+02 -0.25353990952E+02  0.23363055571E+03  0.23791797341E+03  0.41800000000E+01 0.  1.
         -5    1    3    3    0  502  0.71600887971E+02  0.44448234430E+02  0.30406506478E+03  0.31555565076E+03  0.41800000000E+01 0.  1.
        -11    1    1    2    0    0 -0.36587782905E+01  0.33910131015E+02  0.18856588037E+03  0.19162561124E+03  0.00000000000E+00 0.  1.
         11    1    1    2    0    0 -0.31044572437E+02 -0.53004374493E+02  0.24161439358E+03  0.24930051018E+03  0.00000000000E+00 0. -1.
</event>
<event>
 7    1  0.2686828E-009  0.1095938E+03  0.7561462E-02  0.1261324E+00
          1   -1    0    0  501    0  0.00000000000E+00  0.00000000000E+00  0.12387941956E+03  0.12387941956E+03  0.00000000000E+00 0. -1.
         -1   -1    0    0    0  501 -0.00000000000E+00 -0.00000000000E+00 -0.10302901135E+03  0.10302901135E+03  0.00000000000E+00 0.  1.
         25    2    1    2    0    0  0.13736176077E+02  0.27325989773E+02  0.31711577833E+01  0.12881086101E+03  0.12508712732E+03 0.  0.
          5    1    3    3  502    0 -0.15358282668E+02  0.70937373941E+02  0.16513108774E+02  0.74552954533E+02  0.41800000000E+01 0.  1.
         -5    1    3    3    0  502  0.29094458745E+02 -0.43611384169E+02 -0.13341950991E+02  0.54257906475E+02  0.41800000000E+01 0.  1.
        -11    1    1    2    0    0  0.36035180349E+02 -0.25397445352E+02 -0.29530887739E+01  0.44184671397E+02  0.00000000000E+00 0.  1.
         11    1    1    2    0    0 -0.49771356426E+02 -0.19285444203E+01  0.20632339200E+02  0.53912898502E+02  0.00000000000E+00 0. -1.
</event>
<event>
 7    1  0.2686828E-009  0.1236559E+03  0.7561462E-02  0.1237185E+00
         -1   -1    0    0    0  501 -0.00000000000E+00  0.00000000000E+00  0.39129256935E+02  0.39129256935E+02  0.00000000000E+00 0.  1.
          1   -1    0    0  501    0  0.00000000000E+00 -0.00000000000E+00 -0.62705863667E+03  0.62705863667E+03  0.00000000000E+00 0. -1.
         25    2    1    2    0    0 -0.46026787875E+02  0.91389993129E+02 -0.21786229477E+03  0.27126102209E+03  0.12509183258E+03 0.  0.
          5    1    3    3  502    0 -0.33898486324E+01  0.51157568253E+02 -0.20465982836E+03  0.21102536721E+03  0.41800000000E+01 0. -1.
         -5    1    3    3    0  502 -0.42636939242E+02  0.40232424877E+02 -0.13202466410E+02  0.60235654879E+02  0.41800000000E+01 0. -1.
        -11    1    1    2    0    0 -0.28054947676E+02 -0.27254413920E+02 -0.12574702274E+03  0.13168977521E+03  0.00000000000E+00 0.  1.
         11    1    1    2    0    0  0.74081735551E+02 -0.64135579209E+02 -0.24432006223E+03  0.26323709630E+03  0.00000000000E+00 0. -1.
</event>
<event>
 7    1  0.2686828E-009  0.1263514E+03  0.7561462E-02  0.1232972E+00
          4   -1    0    0  501    0  0.00000000000E+00  0.00000000000E+00  0.15926553873E+02  0.15926553873E+02  0.00000000000E+00 0. -1.
         -4   -1    0    0    0  501 -0.00000000000E+00 -0.00000000000E+00 -0.11467074570E+04  0.11467074570E+04  0.00000000000E+00 0.  1.
         25    2    1    2    0    0  0.53594211385E+02  0.60790943376E+02 -0.56142332485E+03  0.58087112645E+03  0.12508891865E+03 0.  0.
          5    1    3    3  502    0 -0.26907770069E+02  0.56252589204E+02 -0.16798337568E+03  0.17923244346E+03  0.41800000000E+01 0.  1.
         -5    1    3    3    0  502  0.80501981454E+02  0.45383541726E+01 -0.39343994917E+03  0.40163868299E+03  0.41800000000E+01 0.  1.
        -11    1    1    2    0    0  0.16941251764E+02 -0.94933477532E+00 -0.29446564260E+02  0.33985399727E+02  0.00000000000E+00 0. -1.
         11    1    1    2    0    0 -0.70535463149E+02 -0.59841608601E+02 -0.53991101399E+03  0.54777748467E+03  0.00000000000E+00 0.  1.
</event>
<event>
 7    1  0.2686828E-009  0.1472261E+03  0.7561462E-02  0.1203924E+00
          2   -1    0    0  501    0  0.00000000000E+00  0.00000000000E+00  0.18601478553E+03  0.18601478553E+03  0.00000000000E+00 0. -1.
         -2   -1    0    0    0  501 -0.00000000000E+00 -0.00000000000E+00 -0.14224875976E+03  0.14224875976E+03  0.00000000000E+00 0.  1.
         25    2    1    2    0    0 -0.47826523080E+02  0.11120941980E+03  0.22782709854E+02  0.17556075573E+03  0.12509043017E+03 0.  0.
          5    1    3    3  502    0 -0.83900504890E+02  0.10078186919E+03 -0.45866621783E+00  0.13120199180E+03  0.41800000000E+01 0.  1.
         -5    1    3    3    0  502  0.36073981811E+02  0.10427550614E+02  0.23241376072E+02  0.44358763928E+02  0.41800000000E+01 0.  1.
        -11    1    1    2    0    0  0.15692000748E+02 -0.76801274459E+02 -0.29424132140E+02  0.83728455129E+02  0.00000000000E+00 0.  1.
         11    1    1    2    0    0  0.32134522332E+02 -0.34408145343E+02  0.50407448053E+02  0.68974334434E+02  0.00000000000E+00 0. -1.
</event>
<event>
 7    1  0.2686828E-009  0.1451576E+03  0.7561462E-02  0.1206553E+00
         -4   -1    0    0    0  501 -0.00000000000E+00  0.00000000000E+00  0.21246121219E+03  0.21246121219E+03  0.00000000000E+00 0.  1.
          4   -1    0    0  501    0  0.00000000000E+00 -0.00000000000E+00 -0.17335191496E+03  0.17335191496E+03  0.00000000000E+00 0. -1.
         25    2    1    2    0    0  0.12106127722E+03 -0.34558025166E+02  0.11343292611E+03  0.21063301264E+03  0.12509655208E+03 0.  0.
          5    1    3    3  502    0  0.12617758104E+03 -0.20686089608E+02  0.13380164401E+03  0.18511901198E+03  0.41800000000E+01 0. -1.
         -5    1    3    3    0  502 -0.51163038186E+01 -0.13871935559E+02 -0.20368717891E+02  0.25514000655E+02  0.41800000000E+01 0. -1.
        -11    1    1    2    0    0 -0.80180855135E+02  0.58856073783E+02 -0.79515849382E+02  0.12734118444E+03  0.00000000000E+00 0. -1.
         11    1    1    2    0    0 -0.40880422082E+02 -0.24298048616E+02  0.51922205004E+01  0.47838930066E+02  0.00000000000E+00 0.  1.
</event>
<event>
 7    1  0.2686828E-009  0.4085029E+03  0.7561462E-02  0.1040875E+00
         -2   -1    0    0    0  501 -0.00000000000E+00  0.00000000000E+00  0.24324274598E+03  0.24324274598E+03  0.00000000000E+00 0.  1.
          2   -1    0    0  501    0  0.00000000000E+00 -0.00000000000E+00 -0.97905034525E+03  0.97905034525E+03  0.00000000000E+00 0. -1.
         25    2    1    2    0    0  0.27588114534E+03  0.29698532375E+03 -0.58931915688E+02  0.42828816815E+03  0.12508835044E+03 0.  0.
          5    1    3    3  502    0  0.11275285687E+03  0.13625320355E+03 -0.87681191935E+02  0.19744266517E+03  0.41800000000E+01 0. -1.
         -5    1    3    3    0  502  0.16312828847E+03  0.16073212021E+03  0.28749276247E+02  0.23084550299E+03  0.41800000000E+01 0. -1.
        -11    1    1    2    0    0 -0.80455965293E+02 -0.45061363501E+02 -0.20161381244E+03  0.22170209336E+03  0.00000000000E+00 0.  1.
         11    1    1    2    0    0 -0.19542518004E+03 -0.25192396025E+03 -0.47526187114E+03  0.57230282972E+03  0.00000000000E+00 0. -1.
</event>
<event>
 7    1  0.2686828E-009  0.1133019E+03  0.7561462E-02  0.1254575E+00
          2   -1    0    0  501    0  0.00000000000E+00  0.00000000000E+00  0.19667300824E+03  0.19667300824E+03  0.00000000000E+00 0. -1.
         -2   -1    0    0    0  501 -0.00000000000E+00 -0.00000000000E+00 -0.17525720526E+03  0.17525720526E+03  0.00000000000E+00 0.  1.
         25    2    1    2    0    0  0.28017301641E+02 -0.45075185678E+02 -0.12956717727E+03  0.18775716246E+03  0.12509339341E+03 0.  0.
          5    1    3    3  502    0  0.66111927138E+02 -0.55101761022E+02 -0.11870616673E+03  0.14668202820E+03  0.41800000000E+01 0.  1.
         -5    1    3    3    0  502 -0.38094625496E+02  0.10026575344E+02 -0.10861010543E+02  0.41075134264E+02  0.41800000000E+01 0.  1.
        -11    1    1    2    0    0 -0.51081233508E+02  0.55574669364E+02  0.13357730483E+03  0.15342989493E+03  0.00000000000E+00 0.  1.
         11    1    1    2    0    0  0.23063931867E+02 -0.10499483686E+02  0.17405675420E+02  0.30743156111E+02  0.00000000000E+00 0. -1.
</event>
<event>
 7    1  0.2686828E-009  0.3201870E+03  0.7561462E-02  0.1075563E+00
         -1   -1    0    0    0  501 -0.00000000000E+00  0.00000000000E+00  0.57002672251E+02  0.57002672251E+02  0.00000000000E+00 0.  1.
          1   -1    0    0  501    0  0.00000000000E+00 -0.00000000000E+00 -0.22328068075E+04  0.22328068075E+04  0.00000000000E+00 0. -1.
         25    2    1    2    0    0  0.30382236995E+03 -0.59397100653E+02 -0.65500334220E+03  0.73519602875E+03  0.12509106422E+03 0.  0.
          5    1    3    3  502    0  0.28701342605E+03 -0.77418893665E+02 -0.52974699231E+03  0.60746994995E+03  0.41800000000E+01 0. -1.
         -5    1    3    3    0  502  0.16808943900E+02  0.18021793012E+02 -0.12525634988E+03  0.12772607879E+03  0.41800000000E+01 0. -1.
        -11    1    1    2    0    0 -0.19367214144E+03  0.73245179998E+02 -0.11058708138E+04  0.11250884461E+04  0.00000000000E+00 0.  1.
         11    1    1    2    0    0 -0.11015022851E+03 -0.13848079345E+02 -0.41492997929E+03  0.42952500492E+03  0.00000000000E+00 0. -1.
</event>
<event>
 7    1  0.2686828E-009  0.1858539E+03  0.7561462E-02  0.1162255E+00
          1   -1    0    0  501    0  0.00000000000E+00  0.00000000000E+00  0.46899759921E+03  0.46899759921E+03  0.00000000000E+00 0. -1.
         -1   -1    0    0    0  501 -0.00000000000E+00 -0.00000000000E+00 -0.92217443736E+02  0.92217443736E+02  0.00000000000E+00 0.  1.
         25    2    1    2    0    0  0.14427989314E+03 -0.68119407334E+02  0.94284126020E+02  0.22359360549E+03  0.12509061827E+03 0.  0.
          5    1    3    3  502    0  0.28804441327E+02 -0.67480401763E+02  0.77542088490E+02  0.10683420964E+03  0.41800000000E+01 0.  1.
         -5    1    3    3    0  502  0.11547545181E+03 -0.63900557063E+00  0.16742037530E+02  0.11675939585E+03  0.41800000000E+01 0.  1.
        -11    1    1    2    0    0 -0.56821095998E+02  0.75954162695E+02  0.12047727159E+03  0.15333768210E+03  0.00000000000E+00 0. -1.
         11    1    1    2    0    0 -0.87458797139E+02 -0.78347553615E+01  0.16201875787E+03  0.18428375536E+03  0.00000000000E+00 0.  1.
</event>
<event>
 7    1  0.2686828E-009  0.1093466E+03  0.7561462E-02  0.1261785E+00
         -1   -1    0    0    0  501 -0.00000000000E+00  0.00000000000E+00  0.19973846970E+02  0.19973846970E+02  0.00000000000E+00 0.  1.
          1   -1    0    0  501    0  0.00000000000E+00 -0.00000000000E+00 -0.74318098240E+03  0.74318098240E+03  0.00000000000E+00 0. -1.
         25    2    1    2    0    0 -0.57618310231E+02  0.70992255066E+01 -0.42971770632E+03  0.45130305839E+03  0.12508746825E+03 0.  0.
          5    1    3    3  502    0 -0.54499630721E+02  0.61998988738E+02 -0.26620729600E+03  0.27874339669E+03  0.41800000000E+01 0. -1.
         -5    1    3    3    0  502 -0.31186795097E+01 -0.54899763231E+02 -0.16351041032E+03  0.17255966170E+03  0.41800000000E+01 0. -1.
        -11    1    1    2    0    0  0.65238747957E+02 -0.17922857438E+02 -0.29050919787E+03  0.29828328331E+03  0.00000000000E+00 0. -1.
         11    1    1    2    0    0 -0.76204377259E+01  0.10823631931E+02 -0.29802312375E+01  0.13568487666E+02  0.00000000000E+00 0.  1.
</event>
<event>
 7    1  0.2686828E-009  0.1552539E+03  0.7561462E-02  0.1194162E+00
         -1   -1    0    0    0  501 -0.00000000000E+00  0.00000000000E+00  0.61376475183E+02  0.61376475183E+02  0.00000000000E+00 0.  1.
          1   -1    0    0  501    0  0.00000000000E+00 -0.00000000000E+00 -0.47186309556E+03  0.47186309556E+03  0.00000000000E+00 0. -1.
         25    2    1    2    0    0 -0.11885322015E+03 -0.53645984481E+02 -0.20611349098E+03  0.27410708665E+03  0.12509174312E+03 0.  0.
          5    1    3    3  502    0 -0.48655699283E+02  0.38622159503E+02 -0.51445792455E+02  0.80766269190E+02  0.41800000000E+01 0.  1.
         -5    1    3    3    0  502 -0.70197520865E+02 -0.92268143985E+02 -0.15466769853E+03  0.19334081746E+03  0.41800000000E+01 0.  1.
        -11    1    1    2    0    0  0.95424433382E+02  0.32886914409E+02 -0.20425234382E+03  0.22782974253E+03  0.00000000000E+00 0. -1.
         11    1    1    2    0    0  0.23428786767E+02  0.20759070073E+02 -0.12078556918E+00  0.31302741554E+02  0.00000000000E+00 0.  1.
</event>
<event>
 7    1  0.2686828E-009  0.1436929E+03  0.7561462E-02  0.1208445E+00
         -1   -1    0    0    0  501 -0.00000000000E+00  0.00000000000E+00  0.21451652264E+03  0.21451652264E+03  0.00000000000E+00 0.  1.
          1   -1    0    0  501    0  0.00000000000E+00 -0.00000000000E+00 -0.13571762336E+03  0.13571762336E+03  0.00000000000E+00 0. -1.
         25    2    1    2    0    0 -0.70710294303E+02 -0.10795964152E+03  0.17210700163E+02  0.18054893815E+03  0.12508589429E+03 0.  0.
          5    1    3    3  502    0 -0.52272653744E+01 -0.14613575185E+02 -0.46964504549E+02  0.49638875597E+02  0.41800000000E+01 0. -1.
         -5    1    3    3    0  502 -0.65483028928E+02 -0.93346066334E+02  0.64175204712E+02  0.13091006255E+03  0.41800000000E+01 0. -1.
        -11    1    1    2    0    0  0.19481187763E+02 -0.14620450440E+02  0.32006402588E+01  0.24566610385E+02  0.00000000000E+00 0. -1.
         11    1    1    2    0    0  0.51229106539E+02  0.12258009196E+03  0.58387558856E+02  0.14511859747E+03  0.00000000000E+00 0.  1.
</event>
<event>
 7    1  0.2686828E-009  0.2102461E+03  0.7561462E-02  0.1141371E+00
          2   -1    0    0  501    0  0.00000000000E+00  0.00000000000E+00  0.82324170567E+03  0.82324170567E+03  0.00000000000E+00 0. -1.
         -2   -1    0    0    0  501 -0.00000000000E+00 -0.00000000000E+00 -0.58421740785E+02  0.58421740785E+02  0.00000000000E+00 0.  1.
         25    2    1    2    0    0 -0.16182627698E+03 -0.92250455785E+02  0.31554804760E+03  0.38718913724E+03  0.12508783770E+03 0.  0.
          5    1    3    3  502    0 -0.41335352456E+02 -0.95004600146E+02  0.14042318430E+03  0.17455838135E+03  0.41800000000E+01 0. -1.
         -5    1    3    3    0  502 -0.12049092453E+03  0.27541443608E+01  0.17512486330E+03  0.21263075589E+03  0.41800000000E+01 0. -1.
        -11    1    1    2    0    0  0.13411710800E+03  0.45065253918E+02  0.38436877990E+03  0.40958226857E+03  0.00000000000E+00 0.  1.
         11    1    1    2    0    0  0.27709168988E+02  0.47185201867E+02  0.64903137384E+02  0.84892040637E+02  0.00000000000E+00 0. -1.
</event>
<event>
 7    1  0.2686828E-009  0.1069821E+03  0.7561462E-02  0.1266263E+00
          1   -1    0    0  501    0  0.00000000000E+00  0.00000000000E+00  0.10404823148E+03  0.10404823148E+03  0.00000000000E+00 0. -1.
         -1   -1    0    0    0  501 -0.00000000000E+00 -0.00000000000E+00 -0.16055728389E+03  0.16055728389E+03  0.00000000000E+00 0.  1.
         25    2    1    2    0    0  0.49506006797E+02 -0.92081020852E+00  0.18941451939E+02  0.13586338262E+03  0.12509351516E+03 0.  0.
          5    1    3    3  502    0 -0.40860429131E+02  0.99971831625E+01 -0.21761382674E+01  0.42328788285E+02  0.41800000000E+01 0.  1.
         -5    1    3    3    0  502  0.90366435928E+02 -0.10917993371E+02  0.21117590207E+02  0.93534594336E+02  0.41800000000E+01 0.  1.
        -11    1    1    2    0    0  0.49869657038E+01  0.21689422005E+02  0.10712558743E+02  0.24699388022E+02  0.00000000000E+00 0. -1.
         11    1    1    2    0    0 -0.54492972501E+02 -0.20768611797E+02 -0.86163063093E+02  0.10404274472E+03  0.00000000000E+00 0.  1.
</event>
<event>
 7    1  0.2686828E-009  0.9888097E+02  0.7561462E-02  0.1282667E+00
         -2   -1    0    0    0  501 -0.00000000000E+00  0.00000000000E+00  0.14289916152E+02  0.14289916152E+02  0.00000000000E+00 0. -1.
          2   -1    0    0  501    0  0.00000000000E+00 -0.00000000000E+00 -0.77931761887E+03  0.77931761887E+03  0.00000000000E+00 0.  1.
         25    2    1    2    0    0 -0.22848045359E+02 -0.11452168261E+02 -0.49926226493E+03  0.51532751624E+03  0.12508578845E+03 0.  0.
          5    1    3    3  502    0  0.18727775618E+02  0.44096618115E+02 -0.11217896046E+03  0.12205258243E+03  0.41800000000E+01 0. -1.
         -5    1    3    3    0  502 -0.41575820977E+02 -0.55548786376E+02 -0.38708330447E+03  0.39327493381E+03  0.41800000000E+01 0. -1.
        -11    1    1    2    0    0 -0.17618743457E+02 -0.21626342656E+02 -0.12627076968E+03  0.12931521988E+03  0.00000000000E+00 0.  1.
         11    1    1    2    0    0  0.40466788816E+02  0.33078510917E+02 -0.13949466810E+03  0.14896479890E+03  0.00000000000E+00 0. -1.
</event>
<event>
 7    1  0.2686828E-009  0.8913560E+02  0.7561462E-02  0.1304959E+00
          1   -1    0    0  501    0  0.00000000000E+00  0.00000000000E+00  0.23616190064E+03  0.23616190064E+03  0.00000000000E+00 0. -1.
         -1   -1    0    0    0  501 -0.00000000000E+00 -0.00000000000E+00 -0.58351559129E+02  0.58351559129E+02  0.00000000000E+00 0.  1.
         25    2    1    2    0    0 -0.13927829516E+02  0.11883499948E+02  0.16051482974E+03  0.20432206548E+03  0.12508914370E+03 0.  0.
          5    1    3    3  502    0  0.10867483910E+02  0.47997020872E+02  0.13990642781E+02  0.51332511184E+02  0.41800000000E+01 0.  1.
         -5    1    3    3    0  502 -0.24795313426E+02 -0.36113520923E+02  0.14652418696E+03  0.15298955430E+03  0.41800000000E+01 0.  1.
        -11    1    1    2    0    0  0.43545465084E+02 -0.27392022194E+02  0.22867594413E+02  0.56297933208E+02  0.00000000000E+00 0. -1.
         11    1    1    2    0    0 -0.29617635569E+02  0.15508522246E+02 -0.55720826387E+01  0.33893461078E+02  0.00000000000E+00 0.  1.
</event>
<event>
 7    1  0.2686828E-009  0.1338604E+03  0.7561462E-02  0.1221837E+00
         -2   -1    0    0    0  501 -0.00000000000E+00  0.00000000000E+00  0.51478846345E+02  0.51478846345E+02  0.00000000000E+00 0.  1.
          2   -1    0    0  501    0  0.00000000000E+00 -0.00000000000E+00 -0.39356362812E+03  0.39356362812E+03  0.00000000000E+00 0. -1.
         25    2    1    2    0    0  0.83655943518E+02  0.47264473819E+02 -0.20299500641E+03  0.25707417889E+03  0.12509162025E+03 0.  0.
          5    1    3    3  502    0  0.55176296290E+02 -0.36116484908E+02 -0.11402740412E+03  0.13178977747E+03  0.41800000000E+01 0. -1.
         -5    1    3    3    0  502  0.28479647228E+02  0.83380958727E+02 -0.88967602283E+02  0.12528440143E+03  0.41800000000E+01 0. -1.
        -11    1    1    2    0    0 -0.79229756974E+02 -0.60364707352E+02 -0.14237260310E+03  0.17375618089E+03  0.00000000000E+00 0. -1.
         11    1    1    2    0    0 -0.44261865449E+01  0.13100233533E+02  0.32828277265E+01  0.14212114685E+02  0.00000000000E+00 0.  1.
</event>
<event>
 7    1  0.2686828E-009  0.7643549E+02  0.7561462E-02  0.1339483E+00
          1   -1    0    0  501    0  0.00000000000E+00  0.00000000000E+00  0.18795464379E+03  0.18795464379E+03  0.00000000000E+00 0. -1.
         -1   -1    0    0    0  501 -0.00000000000E+00 -0.00000000000E+00 -0.11264596572E+03  0.11264596572E+03  0.00000000000E+00 0.  1.
         25    2    1    2    0    0 -0.69120364977E+02  0.19241957914E+01  0.10725406257E+03  0.17868955877E+03  0.12508076228E+03 0.  0.
          5    1    3    3  502    0 -0.12106259588E+02 -0.40250083459E+01 -0.28371728366E+02  0.31387729830E+02  0.41800000000E+01 0.  1.
         -5    1    3    3    0  502 -0.57014105389E+02  0.59492041373E+01  0.13562579094E+03  0.14730182894E+03  0.41800000000E+01 0.  1.
        -11    1    1    2    0    0  0.10313640186E+02 -0.18229322893E+02 -0.53291890193E+02  0.57259976837E+02  0.00000000000E+00 0.  1.
         11    1    1    2    0    0  0.58806724791E+02  0.16305127101E+02  0.21346505700E+02  0.64651073898E+02  0.00000000000E+00 0. -1.
</event>
<event>
 7    1  0.2686828E-009  0.1003763E+03  0.7561462E-02  0.1279507E+00
         -3   -1    0    0    0  501 -0.00000000000E+00  0.00000000000E+00  0.12926454146E+03  0.12926454146E+03  0.00000000000E+00 0.  1.
          3   -1    0    0  501    0  0.00000000000E+00 -0.00000000000E+00 -0.12718758271E+03  0.12718758271E+03  0.00000000000E+00 0. -1.
         25    2    1    2    0    0 -0.16333159322E+02 -0.53976969281E+02  0.40375899899E+02  0.14303019235E+03  0.12508851796E+03 0.  0.
          5    1    3    3  502    0 -0.73907581538E+01  0.19583722073E+02 -0.32584950296E+02  0.38953778535E+02  0.41800000000E+01 0.  1.
         -5    1    3    3    0  502 -0.89424011685E+01 -0.73560691354E+02  0.72960850195E+02  0.10407641381E+03  0.41800000000E+01 0.  1.
        -11    1    1    2    0    0 -0.30319350356E+01 -0.24331669717E+02 -0.97781570943E+00  0.24539333830E+02  0.00000000000E+00 0.  1.
         11    1    1    2    0    0  0.19365094358E+02  0.78308638998E+02 -0.37321125444E+02  0.88882597991E+02  0.00000000000E+00 0. -1.
</event>
<event>
 7    1  0.2686828E-009  0.7235599E+02  0.7561462E-02  0.1352260E+00
          2   -1    0    0  501    0  0.00000000000E+00  0.00000000000E+00  0.19568098682E+02  0.19568098682E+02  0.00000000000E+00 0. -1.
         -2   -1    0    0    0  501 -0.00000000000E+00 -0.00000000000E+00 -0.79133201831E+03  0.79133201831E+03  0.00000000000E+00 0.  1.
         25    2    1    2    0    0  0.53700780538E+02  0.16138921967E+02 -0.51247949238E+03  0.53049751600E+03  0.12509254869E+03 0.  0.
          5    1    3    3  502    0  0.44240836133E+02  0.15449708247E+02 -0.51703808090E+03  0.51917414667E+03  0.41800000000E+01 0.  1.
         -5    1    3    3    0  502  0.94599444048E+01  0.68921371996E+00  0.45585885203E+01  0.11323369330E+02  0.41800000000E+01 0.  1.
        -11    1    1    2    0    0  0.93879920203E+01 -0.22019759259E+02 -0.15498020033E+02  0.28516535851E+02  0.00000000000E+00 0.  1.
         11    1    1    2    0    0 -0.63088772558E+02  0.58808372924E+01 -0.24378640721E+03  0.25188606514E+03  0.00000000000E+00 0. -1.
</event>
<event>
 7    1  0.2686828E-009  0.1158472E+03  0.7561462E-02  0.1250109E+00
         -1   -1    0    0    0  501 -0.00000000000E+00  0.00000000000E+00  0.59263559298E+02  0.59263559298E+02  0.00000000000E+00 0.  1.
          1   -1    0    0  501    0  0.00000000000E+00 -0.00000000000E+00 -0.37174549026E+03  0.37174549026E+03  0.00000000000E+00 0. -1.
         25    2    1    2    0    0 -0.68688729942E+02 -0.20503695301E+01 -0.27684147643E+03  0.31147013022E+03  0.12510033298E+03 0.  0.
          5    1    3    3  502    0 -0.81629343492E+02 -0.45368904204E+02 -0.21760111610E+03  0.23683201919E+03  0.41800000000E+01 0. -1.
         -5    1    3    3    0  502  0.12940613550E+02  0.43318534674E+02 -0.59240360326E+02  0.74638111022E+02  0.41800000000E+01 0. -1.
        -11    1    1    2    0    0  0.52165814294E+02  0.30119608321E+02  0.12398053863E+02  0.61499388013E+02  0.00000000000E+00 0.  1.
         11    1    1    2    0    0  0.16522915649E+02 -0.28069238791E+02 -0.48038508398E+02  0.58039531329E+02  0.00000000000E+00 0. -1.
</event>
<event>
 7    1  0.2686828E-009  0.4647079E+03  0.7561462E-02  0.1023425E+00
          1   -1    0    0  501    0  0.00000000000E+00  0.00000000000E+00  0.82341836641E+03  0.82341836641E+03  0.00000000000E+00 0. -1.
         -1   -1    0    0    0  501 -0.00000000000E+00 -0.00000000000E+00 -0.29477867170E+03  0.29477867170E+03  0.00000000000E+00 0.  1.
         25    2    1    2    0    0  0.11626843224E+03  0.44047230228E+03  0.93125617764E+02  0.48151167119E+03  0.12508761485E+03 0.  0.
          5    1    3    3  502    0 -0.18290093088E+02  0.12840972079E+03  0.49357755820E+02  0.13884251639E+03  0.41800000000E+01 0. -1.
         -5    1    3    3    0  502  0.13455852533E+03  0.31206258149E+03  0.43767861945E+02  0.34266915479E+03  0.41800000000E+01 0. -1.
        -11    1    1    2    0    0 -0.30336498271E+02 -0.40057344352E+02  0.22511812675E+02  0.55060654499E+02  0.00000000000E+00 0.  1.
         11    1    1    2    0    0 -0.85931933969E+02 -0.40041495793E+03  0.41300226427E+03  0.58162471242E+03  0.00000000000E+00 0. -1.
</event>
<event>
 7    1  0.2686828E-009  0.4791536E+02  0.7561462E-02  0.1456921E+00
         -2   -1    0    0    0  501 -0.00000000000E+00  0.00000000000E+00  0.93935443833E+02  0.93935443833E+02  0.00000000000E+00 0. -1.
          2   -1    0    0  501    0  0.00000000000E+00 -0.00000000000E+00 -0.15513204924E+03  0.15513204924E+03  0.00000000000E+00 0.  1.
         25    2    1    2    0    0  0.97167390128E+01 -0.25141553579E+02 -0.70212553258E+02  0.14596054877E+03  0.12509263140E+03 0.  0.
          5    1    3    3  502    0  0.14505923431E+02  0.51488053422E+01 -0.10103166841E+03  0.10228295280E+03  0.41800000000E+01 0.  1.
         -5    1    3    3    0  502 -0.47891844181E+01 -0.30290358921E+02  0.30819115157E+02  0.43677595973E+02  0.41800000000E+01 0.  1.
        -11    1    1    2    0    0 -0.65410362830E+01  0.36528218422E+02 -0.38895737511E+02  0.53758481128E+02  0.00000000000E+00 0.  1.
         11    1    1    2    0    0 -0.31757027297E+01 -0.11386664843E+02  0.47911685357E+02  0.49348463176E+02  0.00000000000E+00 0. -1.
</event>
<event>
 7    1  0.2686828E-009  0.1379726E+03  0.7561462E-02  0.1216083E+00
          1   -1    0    0  501    0  0.00000000000E+00  0.00000000000E+00  0.96992741415E+02  0.96992741415E+02  0.00000000000E+00 0. -1.
         -1   -1    0    0    0  501 -0.00000000000E+00 -0.00000000000E+00 -0.29231785747E+03  0.29231785747E+03  0.00000000000E+00 0.  1.
         25    2    1    2    0    0  0.87496624234E+02 -0.45797467431E+02 -0.19892329668E+03  0.25489331659E+03  0.12508819930E+03 0.  0.
          5    1    3    3  502    0 -0.21873785123E+02  0.15670050801E+02 -0.69262593952E+02  0.74423062882E+02  0.41800000000E+01 0. -1.
         -5    1    3    3    0  502  0.10937040936E+03 -0.61467518232E+02 -0.12966070273E+03  0.18047025370E+03  0.41800000000E+01 0. -1.
        -11    1    1    2    0    0 -0.40601411144E+02 -0.17663980985E+02  0.27311156219E+02  0.52022976320E+02  0.00000000000E+00 0. -1.
         11    1    1    2    0    0 -0.46895213091E+02  0.63461448417E+02 -0.23712975593E+02  0.82394305977E+02  0.00000000000E+00 0.  1.
</event>
<event>
 7    1  0.2686828E-009  0.9707132E+02  0.7561462E-02  0.1286578E+00
         -2   -1    0    0    0  501 -0.00000000000E+00  0.00000000000E+00  0.66496255605E+02  0.66496255605E+02  0.00000000000E+00 0.  1.
          2   -1    0    0  501    0  0.00000000000E+00 -0.00000000000E+00 -0.24425711487E+03  0.24425711487E+03  0.00000000000E+00 0. -1.
         25    2    1    2    0    0 -0.55328822441E+02 -0.26194954290E+02 -0.13335665059E+03  0.19281713519E+03  0.12508795762E+03 0.  0.
          5    1    3    3  502    0  0.32655703143E+02  0.40577293335E+01 -0.77293820579E+02  0.84111040980E+02  0.41800000000E+01 0. -1.
         -5    1    3    3    0  502 -0.87984525584E+02 -0.30252683624E+02 -0.56062830014E+02  0.10870609421E+03  0.41800000000E+01 0. -1.
        -11    1    1    2    0    0  0.27559799138E+02 -0.27853914510E+01  0.25291469570E+02  0.37509457035E+02  0.00000000000E+00 0.  1.
         11    1    1    2    0    0  0.27769023303E+02  0.28980345741E+02 -0.69695678246E+02  0.80426778256E+02  0.00000000000E+00 0. -1.
</event>
<event>
 7    1  0.3318870E-009  0.1053999E+03  0.7561462E-02  0.1269334E+00
         -1   -1    0    0    0  501 -0.00000000000E+00  0.00000000000E+00  0.16630664110E+03  0.16630664110E+03  0.00000000000E+00 0.  1.
          1   -1    0    0  501    0  0.00000000000E+00 -0.00000000000E+00 -0.84588404101E+02  0.84588404101E+02  0.00000000000E+00 0. -1.
         25    2    1    2    0    0  0.41119609727E+01  0.27701317734E+01  0.97126579113E+02  0.15844629558E+03  0.12508826627E+03 0.  0.
          5    1    3    3  502    0 -0.58075880746E+02 -0.33260244988E+01  0.67381445905E+02  0.89115666500E+02  0.41800000000E+01 0. -1.
         -5    1    3    3    0  502  0.62187841719E+02  0.60961562722E+01  0.29745133208E+02  0.69330629079E+02  0.41800000000E+01 0. -1.
        -11    1    1    2    0    0 -0.27977537947E+02  0.35225499567E+02 -0.15499622128E+02  0.47579583179E+02  0.00000000000E+00 0.  1.
         11    1    1    2    0    0  0.23865576974E+02 -0.37995631341E+02  0.91280014570E-01  0.44869166443E+02  0.00000000000E+00 0. -1.
</event>
<event>
 7    1  0.2686828E-009  0.6610814E+02  0.7561462E-02  0.1373851E+00
          2   -1    0    0  501    0  0.00000000000E+00  0.00000000000E+00  0.13665928783E+04  0.13665928783E+04  0.00000000000E+00 0. -1.
         -2   -1    0    0    0  501 -0.00000000000E+00 -0.00000000000E+00 -0.14650605753E+02  0.14650605753E+02  0.00000000000E+00 0.  1.
         25    2    1    2    0    0  0.46291155675E+02 -0.89464910105E+01  0.11128975043E+04  0.11208978857E+04  0.12509318271E+03 0.  0.
          5    1    3    3  502    0  0.32317605056E+02 -0.21822445164E+02  0.94506460290E+02  0.10232101517E+03  0.41800000000E+01 0. -1.
         -5    1    3    3    0  502  0.13973550618E+02  0.12875954154E+02  0.10183910440E+04  0.10185768705E+04  0.41800000000E+01 0. -1.
        -11    1    1    2    0    0 -0.14982810931E+02  0.31549807486E+02  0.20768306432E+03  0.21059945437E+03  0.00000000000E+00 0. -1.
         11    1    1    2    0    0 -0.31308344743E+02 -0.22603316476E+02  0.31361703962E+02  0.49746143988E+02  0.00000000000E+00 0.  1.
</event>
<event>
 7    1  0.2686828E-009  0.1148623E+03  0.7561462E-02  0.1251822E+00
          1   -1    0    0  501    0  0.00000000000E+00  0.00000000000E+00  0.38682291031E+03  0.38682291031E+03  0.00000000000E+00 0. -1.
         -1   -1    0    0    0  501 -0.00000000000E+00 -0.00000000000E+00 -0.51434241284E+02  0.51434241284E+02  0.00000000000E+00 0.  1.
         25    2    1    2    0    0 -0.40699648614E+02  0.43153577306E+02  0.77081276470E+02  0.15845393976E+03  0.12508970865E+03 0.  0.
          5    1    3    3  502    0 -0.62547029432E+02  0.68475719927E+02  0.24528585773E+02  0.96021763316E+02  0.41800000000E+01 0.  1.
         -5    1    3    3    0  502  0.21847380818E+02 -0.25322142621E+02  0.52552690696E+02  0.62432176439E+02  0.41800000000E+01 0.  1.
        -11    1    1    2    0    0 -0.25790132233E+02 -0.20486986119E+02  0.49160268327E+02  0.59174145561E+02  0.00000000000E+00 0.  1.
         11    1    1    2    0    0  0.66489780848E+02 -0.22666591187E+02  0.20914712423E+03  0.22062906628E+03  0.00000000000E+00 0. -1.
</event>
<event>
 7    1  0.2686828E-009  0.2388640E+03  0.7561462E-02  0.1120552E+00
          1   -1    0    0  501    0  0.00000000000E+00  0.00000000000E+00  0.13827142956E+03  0.13827142956E+03  0.00000000000E+00 0. -1.
         -1   -1    0    0    0  501 -0.00000000000E+00 -0.00000000000E+00 -0.44168876511E+03  0.44168876511E+03  0.00000000000E+00 0.  1.
         25    2    1    2    0    0  0.18189946291E+03 -0.12538723825E+03 -0.17718969722E+03  0.30959568471E+03  0.12507567735E+03 0.  0.
          5    1    3    3  502    0  0.60094364931E+01  0.13495453773E+02  0.93526954229E+01  0.17977372199E+02  0.41800000000E+01 0. -1.
         -5    1    3    3    0  502  0.17589002642E+03 -0.13888269203E+03 -0.18654239265E+03  0.29161831251E+03  0.41800000000E+01 0. -1.
        -11    1    1    2    0    0 -0.90759891246E+02  0.11499297514E+03 -0.66342813240E+02  0.16081701110E+03  0.00000000000E+00 0.  1.
         11    1    1    2    0    0 -0.91139571669E+02  0.10394263109E+02 -0.59884825082E+02  0.10954749885E+03  0.00000000000E+00 0. -1.
</event>
<event>
 7    1  0.2686828E-009  0.9511333E+02  0.7561462E-02  0.1290921E+00
          2   -1    0    0  501    0  0.00000000000E+00  0.00000000000E+00  0.47808090212E+02  0.47808090212E+02  0.00000000000E+00 0. -1.
         -2   -1    0    0    0  501 -0.00000000000E+00 -0.00000000000E+00 -0.30427012409E+03  0.30427012409E+03  0.00000000000E+00 0.  1.
         25    2    1    2    0    0 -0.33085152978E+02  0.72122832969E+02 -0.18716918849E+03  0.23869056840E+03  0.12507818333E+03 0.  0.
          5    1    3    3  502    0 -0.45573358762E+02  0.15328446790E+02 -0.17172510788E+03  0.17837846671E+03  0.41800000000E+01 0. -1.
         -5    1    3    3    0  502  0.12488205784E+02  0.56794386179E+02 -0.15444080608E+02  0.60312101695E+02  0.41800000000E+01 0. -1.
        -11    1    1    2    0    0 -0.30045808186E+01 -0.20238288110E+02 -0.37315743042E+02  0.42556791353E+02  0.00000000000E+00 0.  1.
         11    1    1    2    0    0  0.36089733797E+02 -0.51884544859E+02 -0.31977102349E+02  0.70830854543E+02  0.00000000000E+00 0. -1.
</event>
<event>
 7    1  0.2686828E-009  0.1095167E+03  0.7561462E-02  0.1261468E+00
         -4   -1    0    0    0  501 -0.00000000000E+00  0.00000000000E+00  0.19787534030E+03  0.19787534030E+03  0.00000000000E+00 0.  1.
          4   -1    0    0  501    0  0.00000000000E+00 -0.00000000000E+00 -0.85360162052E+02  0.85360162052E+02  0.00000000000E+00 0. -1.
         25    2    1    2    0    0 -0.23041653697E+02 -0.59351688589E+02  0.29853611173E+02  0.14350141778E+03  0.12509147877E+03 0.  0.
          5    1    3    3  502    0  0.27668764229E+02 -0.52714463845E+02  0.59471404429E+02  0.84253756932E+02  0.41800000000E+01 0. -1.
         -5    1    3    3    0  502 -0.50710417926E+02 -0.66372247435E+01 -0.29617793256E+02  0.59247660847E+02  0.41800000000E+01 0. -1.
        -11    1    1    2    0    0  0.56649688423E+02  0.36200215013E+02  0.31367942189E+02  0.74186188489E+02  0.00000000000E+00 0. -1.
         11    1    1    2    0    0 -0.33608034725E+02  0.23151473576E+02  0.51293624882E+02  0.65547896079E+02  0.00000000000E+00 0.  1.
</event>
<event>
 7    1  0.2686828E-009  0.8254363E+02  0.7561462E-02  0.1321984E+00
          1   -1    0    0  501    0  0.00000000000E+00  0.00000000000E+00  0.39095789959E+02  0.39095789959E+02  0.00000000000E+00 0. -1.
         -1   -1    0    0    0  501 -0.00000000000E+00 -0.00000000000E+00 -0.35030058863E+03  0.35030058863E+03  0.00000000000E+00 0.  1.
         25    2    1    2    0    0  0.32493471576E+02 -0.10008151061E+02 -0.21525999868E+03  0.25127725129E+03  0.12508957271E+03 0.  0.
          5    1    3    3  502    0  0.34487633694E+02 -0.53000548910E+02 -0.19197743984E+03  0.20216642864E+03  0.41800000000E+01 0. -1.
         -5    1    3    3    0  502 -0.19941621175E+01  0.42992397848E+02 -0.23282558845E+02  0.49110822653E+02  0.41800000000E+01 0. -1.
        -11    1    1    2    0    0 -0.22808752924E+02 -0.17861601869E+02  0.80109781082E+01  0.30057474970E+02  0.00000000000E+00 0. -1.
         11    1    1    2    0    0 -0.96847186518E+01  0.27869752931E+02 -0.10395577809E+03  0.10806165232E+03  0.00000000000E+00 0.  1.
</event>
<event>
 7    1  0.2686828E-009  0.9710392E+02  0.7561462E-02  0.1286507E+00
          2   -1    0    0  501    0  0.00000000000E+00  0.00000000000E+00  0.15424828897E+03  0.15424828897E+03  0.00000000000E+00 0. -1.
         -2   -1    0    0    0  501 -0.00000000000E+00 -0.00000000000E+00 -0.84960111481E+02  0.84960111481E+02  0.00000000000E+00 0.  1.
         25    2    1    2    0    0  0.23603383819E+02 -0.85102760337E+01  0.22371665408E+02  0.12952755199E+03  0.12508937120E+03 0.  0.
          5    1    3    3  502    0  0.73295504276E+02 -0.13387044405E+02  0.26646916470E+02  0.79239980202E+02  0.41800000000E+01 0.  1.
         -5    1    3    3    0  502 -0.49692120457E+02  0.48767683714E+01 -0.42752510620E+01  0.50287571793E+02  0.41800000000E+01 0.  1.
        -11    1    1    2    0    0  0.21133310163E+02  0.12515977348E+02 -0.18204439511E+02  0.30572342163E+02  0.00000000000E+00 0.  1.
         11    1    1    2    0    0 -0.44736693983E+02 -0.40057013147E+01  0.65120951591E+02  0.79108506291E+02  0.00000000000E+00 0. -1.
</event>
<event>
 7    1  0.2686828E-009  0.1591660E+03  0.7561462E-02  0.1189642E+00
          2   -1    0    0  501    0  0.00000000000E+00  0.00000000000E+00  0.82892767204E+03  0.82892767204E+03  0.00000000000E+00 0. -1.
         -2   -1    0    0    0  501 -0.00000000000E+00 -0.00000000000E+00 -0.34173045802E+02  0.34173045802E+02  0.00000000000E+00 0.  1.
         25    2    1    2    0    0  0.11837674505E+03 -0.35968046368E+02  0.50509316424E+03  0.53485849380E+03  0.12509096567E+03 0.  0.
          5    1    3    3  502    0  0.65599334784E+02 -0.82433791224E+02  0.29564801839E+03  0.31388505195E+03  0.41800000000E+01 0. -1.
         -5    1    3    3    0  502  0.52777410262E+02  0.46465744856E+02  0.20944514586E+03  0.22097344185E+03  0.41800000000E+01 0. -1.
        -11    1    1    2    0    0  0.76895581730E+01  0.11817464444E+02  0.33750920798E+01  0.14497345182E+02  0.00000000000E+00 0.  1.
         11    1    1    2    0    0 -0.12606630322E+03  0.24150581923E+02  0.28628636991E+03  0.31374487886E+03  0.00000000000E+00 0. -1.
</event>
<event>
 7    1  0.2686828E-009  0.1498844E+03  0.7561462E-02  0.1200615E+00
          2   -1    0    0  501    0  0.00000000000E+00  0.00000000000E+00  0.12565131168E+03  0.12565131168E+03  0.00000000000E+00 0. -1.
         -2   -1    0    0    0  501 -0.00000000000E+00 -0.00000000000E+00 -0.23431390615E+03  0.23431390615E+03  0.00000000000E+00 0.  1.
         25    2    1    2    0    0  0.72340512162E+02  0.11004028272E+03 -0.62561679038E+02  0.19210245769E+03  0.12508947616E+03 0.  0.
          5    1    3    3  502    0  0.51361269624E+01 -0.27129213297E+01 -0.60332050380E+02  0.60754987000E+02  0.41800000000E+01 0. -1.
         -5    1    3    3    0  502  0.67204385200E+02  0.11275320405E+03 -0.22296286587E+01  0.13134747069E+03  0.41800000000E+01 0. -1.
        -11    1    1    2    0    0  0.20268244405E+02 -0.41120471075E+02 -0.16090450594E+02  0.48585980210E+02  0.00000000000E+00 0. -1.
         11    1    1    2    0    0 -0.92608756567E+02 -0.68919811645E+02 -0.30010464832E+02  0.11927677993E+03  0.00000000000E+00 0.  1.
</event>
<event>
 7    1  0.2686828E-009  0.1016186E+03  0.7561462E-02  0.1276929E+00
         -1   -1    0    0    0  501 -0.00000000000E+00  0.00000000000E+00  0.19664057648E+02  0.19664057648E+02  0.00000000000E+00 0.  1.
          1   -1    0    0  501    0  0.00000000000E+00 -0.00000000000E+00 -0.62894228701E+03  0.62894228701E+03  0.00000000000E+00 0. -1.
         25    2    1    2    0    0 -0.67317616603E+01 -0.21083933255E+02 -0.37240373873E+03  0.39346948817E+03  0.12507535586E+03 0.  0.
          5    1    3    3  502    0 -0.54919488823E+02  0.24213967593E+02 -0.19613111253E+03  0.20515202213E+03  0.41800000000E+01 0. -1.
         -5    1    3    3    0  502  0.48187727163E+02 -0.45297900847E+02 -0.17627262620E+03  0.18831746605E+03  0.41800000000E+01 0. -1.
        -11    1    1    2    0    0 -0.26368890075E+02  0.32443483033E+02 -0.19990767408E+03  0.20423265192E+03  0.00000000000E+00 0. -1.
         11    1    1    2    0    0  0.33100651735E+02 -0.11359549778E+02 -0.36966816547E+02  0.50904204562E+02  0.00000000000E+00 0.  1.
</event>
<event>
 7    1  0.2686828E-009  0.1061553E+03  0.7561462E-02  0.1267860E+00
          2   -1    0    0  501    0  0.00000000000E+00  0.00000000000E+00  0.53364471562E+03  0.53364471562E+03  0.00000000000E+00 0. -1.
         -2   -1    0    0    0  501 -0.00000000000E+00 -0.00000000000E+00 -0.34543832296E+02  0.34543832296E+02  0.00000000000E+00 0.  1.
         25    2    1    2    0    0  0.52091246735E+02  0.32932487119E+02  0.39282901906E+03  0.41684473168E+03  0.12508735116E+03 0.  0.
          5    1    3    3  502    0  0.30564466082E+02 -0.45027596911E+02  0.11232970783E+03  0.12488837709E+03  0.41800000000E+01 0.  1.
         -5    1    3    3    0  502  0.21526780654E+02  0.77960084030E+02  0.28049931123E+03  0.29195635459E+03  0.41800000000E+01 0.  1.
        -11    1    1    2    0    0 -0.38411268376E+02  0.27688668210E+01  0.10635339648E+03  0.11311117144E+03  0.00000000000E+00 0. -1.
         11    1    1    2    0    0 -0.13679978359E+02 -0.35701353940E+02 -0.81532207183E-01  0.38232644802E+02  0.00000000000E+00 0.  1.
</event>
<event>
 7    1  0.2686828E-009  0.1933038E+03  0.7561462E-02  0.1155515E+00
          1   -1    0    0  501    0  0.00000000000E+00  0.00000000000E+00  0.38934266119E+02  0.38934266119E+02  0.00000000000E+00 0. -1.
         -1   -1    0    0    0  501 -0.00000000000E+00 -0.00000000000E+00 -0.11775951118E+04  0.11775951118E+04  0.00000000000E+00 0.  1.
         25    2    1    2    0    0  0.48484844211E+02  0.15455113769E+03 -0.34394186483E+03  0.40022516619E+03  0.12508934003E+03 0.  0.
          5    1    3    3  502    0 -0.53676769355E+01  0.15029252267E+03 -0.25575523452E+03  0.29672355268E+03  0.41800000000E+01 0.  1.
         -5    1    3    3    0  502  0.53852521147E+02  0.42586150259E+01 -0.88186630309E+02  0.10350161352E+03  0.41800000000E+01 0.  1.
        -11    1    1    2    0    0 -0.61360464079E+02 -0.57545201275E+02 -0.45767853945E+03  0.46534525055E+03  0.00000000000E+00 0. -1.
         11    1    1    2    0    0  0.12875619867E+02 -0.97005936419E+02 -0.33704044139E+03  0.35095896116E+03  0.00000000000E+00 0.  1.
</event>
<event>
 7    1  0.2686828E-009  0.9714757E+02  0.7561462E-02  0.1286411E+00
          1   -1    0    0  501    0  0.00000000000E+00  0.00000000000E+00  0.16668385389E+03  0.16668385389E+03  0.00000000000E+00 0. -1.
         -1   -1    0    0    0  501 -0.00000000000E+00 -0.00000000000E+00 -0.85162264548E+02  0.85162264548E+02  0.00000000000E+00 0.  1.
         25    2    1    2    0    0  0.51061999646E+02  0.11144299840E+02  0.40321257698E+02  0.14143512546E+03  0.12508624091E+03 0.  0.
          5    1    3    3  502    0 -0.23453597697E+02 -0.20060416041E+02 -0.22991001966E+02  0.38711110912E+02  0.41800000000E+01 0. -1.
         -5    1    3    3    0  502  0.74515597343E+02  0.31204715881E+02  0.63312259664E+02  0.10272401455E+03  0.41800000000E+01 0. -1.
        -11    1    1    2    0    0  0.79518238825E+01  0.15566534929E+02 -0.16221223516E+02  0.23846941211E+02  0.00000000000E+00 0.  1.
         11    1    1    2    0    0 -0.59013823528E+02 -0.26710834769E+02  0.57421555155E+02  0.86564051765E+02  0.00000000000E+00 0. -1.
</event>
<event>
 7    1  0.2686828E-009  0.1336983E+03  0.7561462E-02  0.1222069E+00
         -2   -1    0    0    0  501 -0.00000000000E+00  0.00000000000E+00  0.13242430390E+03  0.13242430390E+03  0.00000000000E+00 0.  1.
          2   -1    0    0  501    0  0.00000000000E+00 -0.00000000000E+00 -0.17769618207E+03  0.17769618207E+03  0.00000000000E+00 0. -1.
         25    2    1    2    0    0 -0.66180751539E+02  0.82421274011E+02 -0.47295402571E+02  0.17046192887E+03  0.12508899154E+03 0.  0.
          5    1    3    3  502    0 -0.85669206671E+01  0.98274882890E+02 -0.49645291364E+02  0.11051457864E+03  0.41800000000E+01 0. -1.
         -5    1    3    3    0  502 -0.57613830872E+02 -0.15853608879E+02  0.23498887930E+01  0.59947350230E+02  0.41800000000E+01 0. -1.
        -11    1    1    2    0    0  0.49132006899E+01 -0.22608728118E+02 -0.38510423993E+02  0.44926015673E+02  0.00000000000E+00 0. -1.
         11    1    1    2    0    0  0.61267550850E+02 -0.59812545893E+02  0.40533948398E+02  0.94732541431E+02  0.00000000000E+00 0.  1.
</event>
<event>
 7    1  0.2686828E-009  0.1338520E+03  0.7561462E-02  0.1221849E+00
         -1   -1    0    0    0  501 -0.00000000000E+00  0.00000000000E+00  0.72749204663E+02  0.72749204663E+02  0.00000000000E+00 0.  1.
          1   -1    0    0  501    0  0.00000000000E+00 -0.00000000000E+00 -0.50173823593E+03  0.50173823593E+03  0.00000000000E+00 0. -1.
         25    2    1    2    0    0 -0.88809260509E+02  0.51746962740E+02 -0.40186570882E+03  0.43325406983E+03  0.12509279833E+03 0.  0.
          5    1    3    3  502    0  0.62277397254E+01  0.64591529335E+02 -0.18493539915E+03  0.19603424360E+03  0.41800000000E+01 0. -1.
         -5    1    3    3    0  502 -0.95037000235E+02 -0.12844566595E+02 -0.21693030967E+03  0.23721982623E+03  0.41800000000E+01 0. -1.
        -11    1    1    2    0    0  0.27192474778E+02 -0.15950404545E+01 -0.51390054930E+02  0.58162811007E+02  0.00000000000E+00 0. -1.
         11    1    1    2    0    0  0.61616785731E+02 -0.50151922285E+02  0.24266732483E+02  0.83070559756E+02  0.00000000000E+00 0.  1.
</event>
<event>
 7    1  0.2686828E-009  0.8726013E+02  0.7561462E-02  0.1309626E+00
         -1   -1    0    0    0  501 -0.00000000000E+00  0.00000000000E+00  0.97991482250E+02  0.97991482250E+02  0.00000000000E+00 0.  1.
          1   -1    0    0  501    0  0.00000000000E+00 -0.00000000000E+00 -0.14228254966E+03  0.14228254966E+03  0.00000000000E+00 0. -1.
         25    2    1    2    0    0  0.43644559491E+00 -0.41250977961E+02 -0.47059780876E+01  0.13180019458E+03  0.12508921374E+03 0.  0.
          5    1    3    3  502    0 -0.13576949632E+02  0.41918743481E+02 -0.14991825910E+02  0.46730523862E+02  0.41800000000E+01 0. -1.
         -5    1    3    3    0  502  0.14013395227E+02 -0.83169721442E+02  0.10285847822E+02  0.85069670717E+02  0.41800000000E+01 0. -1.
        -11    1    1    2    0    0 -0.82226395639E+01  0.73440284051E+01  0.29298175980E+02  0.31303828366E+02  0.00000000000E+00 0.  1.
         11    1    1    2    0    0  0.77861939690E+01  0.33906949555E+02 -0.68883265299E+02  0.77170008961E+02  0.00000000000E+00 0. -1.
</event>
<event>
 7    1  0.2686828E-009  0.1005681E+03  0.7561462E-02  0.1279106E+00
          1   -1    0    0  501    0  0.00000000000E+00  0.00000000000E+00  0.18239845261E+03  0.18239845261E+03  0.00000000000E+00 0. -1.
         -1   -1    0    0    0  501 -0.00000000000E+00 -0.00000000000E+00 -0.13113276036E+03  0.13113276036E+03  0.00000000000E+00 0.  1.
         25    2    1    2    0    0 -0.56395184820E+01 -0.54065566743E+02  0.12616397869E+03  0.18579730390E+03  0.12509356075E+03 0.  0.
          5    1    3    3  502    0 -0.44602948268E+02 -0.10002955911E+02 -0.69115310668E+00  0.45906777428E+02  0.41800000000E+01 0. -1.
         -5    1    3    3    0  502  0.38963429786E+02 -0.44062610832E+02  0.12685513179E+03  0.13989052647E+03  0.41800000000E+01 0. -1.
        -11    1    1    2    0    0 -0.26078495789E+02  0.58681388233E+02 -0.26026273197E+02  0.69288961344E+02  0.00000000000E+00 0. -1.
         11    1    1    2    0    0  0.31718014271E+02 -0.46158214898E+01 -0.48872013242E+02  0.58444947734E+02  0.00000000000E+00 0.  1.
</event>
<event>
 7    1  0.2686828E-009  0.1227338E+03  0.7561462E-02  0.1238654E+00
         -2   -1    0    0    0  501 -0.00000000000E+00  0.00000000000E+00  0.11701413289E+03  0.11701413289E+03  0.00000000000E+00 0.  1.
          2   -1    0    0  501    0  0.00000000000E+00 -0.00000000000E+00 -0.14966871851E+03  0.14966871851E+03  0.00000000000E+00 0. -1.
         25    2    1    2    0    0 -0.13159696122E+02  0.76041860289E+02  0.60352203212E+00  0.14698186910E+03  0.12509102081E+03 0.  0.
          5    1    3    3  502    0  0.17392432633E+02 -0.30887723616E+02  0.12995726319E+00  0.35693661509E+02  0.41800000000E+01 0. -1.
         -5    1    3    3    0  502 -0.30552128755E+02  0.10692958390E+03  0.47356476893E+00  0.11128820759E+03  0.41800000000E+01 0. -1.
        -11    1    1    2    0    0 -0.14775759025E+02  0.26251925735E+01  0.16669749964E+02  0.22429784989E+02  0.00000000000E+00 0.  1.
         11    1    1    2    0    0  0.27935455147E+02 -0.78667052863E+02 -0.49927857618E+02  0.97271197313E+02  0.00000000000E+00 0. -1.
</event>
<event>
 7    1  0.2686828E-009  0.9640695E+02  0.7561462E-02  0.1288038E+00
         -2   -1    0    0    0  501 -0.00000000000E+00  0.00000000000E+00  0.35414722384E+02  0.35414722384E+02  0.00000000000E+00 0.  1.
          2   -1    0    0  501    0  0.00000000000E+00 -0.00000000000E+00 -0.55890047563E+03  0.55890047563E+03  0.00000000000E+00 0. -1.
         25    2    1    2    0    0  0.48342448984E+02 -0.65547555087E+02 -0.38612505687E+03  0.41397274002E+03  0.12508955027E+03 0.  0.
          5    1    3    3  502    0  0.62447713981E+02 -0.25321595761E+02 -0.79194191368E+02  0.10406773054E+03  0.41800000000E+01 0.  1.
         -5    1    3    3    0  502 -0.14105264997E+02 -0.40225959326E+02 -0.30693086550E+03  0.30990500948E+03  0.41800000000E+01 0.  1.
        -11    1    1    2    0    0 -0.19195057228E+02  0.36919933971E+02 -0.51089651055E+01  0.41924137091E+02  0.00000000000E+00 0.  1.
         11    1    1    2    0    0 -0.29147391756E+02  0.28627621116E+02 -0.13225173127E+03  0.13841832090E+03  0.00000000000E+00 0. -1.
</event>
<event>
 7    1  0.2686828E-009  0.1096057E+03  0.7561462E-02  0.1261302E+00
         -3   -1    0    0    0  501 -0.00000000000E+00  0.00000000000E+00  0.17228279965E+03  0.17228279965E+03  0.00000000000E+00 0.  1.
          3   -1    0    0  501    0  0.00000000000E+00 -0.00000000000E+00 -0.86849937721E+02  0.86849937721E+02  0.00000000000E+00 0. -1.
         25    2    1    2    0    0  0.41341488330E+02 -0.29137681672E+02  0.18950645649E+02  0.13624725127E+03  0.12508422505E+03 0.  0.
          5    1    3    3  502    0 -0.31244149946E+02 -0.40300776159E+02 -0.17602270634E+02  0.54107871851E+02  0.41800000000E+01 0.  1.
         -5    1    3    3    0  502  0.72585638276E+02  0.11163094487E+02  0.36552916283E+02  0.82139379418E+02  0.41800000000E+01 0.  1.
        -11    1    1    2    0    0 -0.23798022281E+02  0.56884043827E+02  0.65622427834E+02  0.90046895235E+02  0.00000000000E+00 0.  1.
         11    1    1    2    0    0 -0.17543466049E+02 -0.27746362156E+02  0.85978844532E+00  0.32838590866E+02  0.00000000000E+00 0. -1.
</event>
<event>
 7    1  0.2686828E-009  0.9026968E+02  0.7561462E-02  0.1302200E+00
         -1   -1    0    0    0  501 -0.00000000000E+00  0.00000000000E+00  0.26989426787E+03  0.26989426787E+03  0.00000000000E+00 0.  1.
          1   -1    0    0  501    0  0.00000000000E+00 -0.00000000000E+00 -0.61768396254E+02  0.61768396254E+02  0.00000000000E+00 0. -1.
         25    2    1    2    0    0  0.17480730682E+01  0.65181971526E+02  0.89252267182E+02  0.16692772461E+03  0.12508858011E+03 0.  0.
          5    1    3    3  502    0  0.23574679817E+02  0.37688320836E+02 -0.22298874483E+02  0.49908789397E+02  0.41800000000E+01 0. -1.
         -5    1    3    3    0  502 -0.21826606749E+02  0.27493650691E+02  0.11155114167E+03  0.11701893521E+03  0.41800000000E+01 0. -1.
        -11    1    1    2    0    0 -0.39076816564E+02 -0.36355300315E+02  0.23461075512E+02  0.58302036996E+02  0.00000000000E+00 0. -1.
         11    1    1    2    0    0  0.37328743495E+02 -0.28826671212E+02  0.95412528926E+02  0.10643290253E+03  0.00000000000E+00 0.  1.
</event>
<event>
 7    1  0.2721184E-009  0.8726502E+02  0.7561462E-02  0.1309613E+00
         -2   -1    0    0    0  501 -0.00000000000E+00  0.00000000000E+00  0.10798074569E+03  0.10798074569E+03  0.00000000000E+00 0.  1.
          2   -1    0    0  501    0  0.00000000000E+00 -0.00000000000E+00 -0.12567562293E+03  0.12567562293E+03  0.00000000000E+00 0. -1.
         25    2    1    2    0    0  0.12339875326E+02  0.25130272122E+02 -0.42335262080E+02  0.13500008000E+03  0.12509573968E+03 0.  0.
          5    1    3    3  502    0 -0.44554500478E+02  0.22112264328E+02 -0.57253170463E+02  0.75956919860E+02  0.41800000000E+01 0.  1.
         -5    1    3    3    0  502  0.56894375803E+02  0.30180077941E+01  0.14917908383E+02  0.59043160143E+02  0.41800000000E+01 0.  1.
        -11    1    1    2    0    0 -0.21487811396E+02  0.15078877246E+02  0.45435002245E+02  0.52473212276E+02  0.00000000000E+00 0.  1.
         11    1    1    2    0    0  0.91479360703E+01 -0.40209149368E+02 -0.20794617401E+02  0.46183076339E+02  0.00000000000E+00 0. -1.
</event>
<event>
 7    1  0.4085496E-009  0.1583023E+03  0.7561462E-02  0.1190627E+00
          1   -1    0    0  501    0  0.00000000000E+00  0.00000000000E+00  0.13290690828E+04  0.13290690828E+04  0.00000000000E+00 0. -1.
         -1   -1    0    0    0  501 -0.00000000000E+00 -0.00000000000E+00 -0.19946385387E+02  0.19946385387E+02  0.00000000000E+00 0.  1.
         25    2    1    2    0    0  0.10575143809E+03 -0.52208138828E+02  0.58446631124E+03  0.60922804221E+03  0.12509549161E+03 0.  0.
          5    1    3    3  502    0  0.13362432851E+03 -0.35764329604E+02  0.49563463288E+03  0.51459276147E+03  0.41800000000E+01 0.  1.
         -5    1    3    3    0  502 -0.27872890412E+02 -0.16443809224E+02  0.88831678356E+02  0.94635280742E+02  0.41800000000E+01 0.  1.
        -11    1    1    2    0    0 -0.32916169692E+02  0.63838577911E+02  0.28057648411E+03  0.28962389697E+03  0.00000000000E+00 0.  1.
         11    1    1    2    0    0 -0.72835268403E+02 -0.11630439083E+02  0.44407990203E+03  0.45016352898E+03  0.00000000000E+00 0. -1.
</event>
<event>
 7    1  0.2686828E-009  0.9487151E+02  0.7561462E-02  0.1291466E+00
          2   -1    0    0  501    0  0.00000000000E+00  0.00000000000E+00  0.36147512692E+03  0.36147512692E+03  0.00000000000E+00 0. -1.
         -2   -1    0    0    0  501 -0.00000000000E+00 -0.00000000000E+00 -0.33923730366E+02  0.33923730366E+02  0.00000000000E+00 0.  1.
         25    2    1    2    0    0 -0.10315395901E+02  0.10665599391E+02  0.21995447583E+03  0.25347153457E+03  0.12509070707E+03 0.  0.
          5    1    3    3  502    0  0.92526522651E+01 -0.50070630258E+02  0.48356794924E+02  0.70345800185E+02  0.41800000000E+01 0. -1.
         -5    1    3    3    0  502 -0.19568048166E+02  0.60736229649E+02  0.17159768091E+03  0.18312573438E+03  0.41800000000E+01 0. -1.
        -11    1    1    2    0    0  0.38864078403E+02 -0.21206584776E+02  0.10171336566E+03  0.11093126062E+03  0.00000000000E+00 0. -1.
         11    1    1    2    0    0 -0.28548682502E+02  0.10540985385E+02  0.58835550597E+01  0.30996062099E+02  0.00000000000E+00 0.  1.
</event>
<event>
 7    1  0.2686828E-009  0.9296953E+02  0.7561462E-02  0.1295816E+00
          1   -1    0    0  501    0  0.00000000000E+00  0.00000000000E+00  0.88348376047E+03  0.88348376047E+03  0.00000000000E+00 0. -1.
         -1   -1    0    0    0  501 -0.00000000000E+00 -0.00000000000E+00 -0.22526234308E+02  0.22526234308E+02  0.00000000000E+00 0.  1.
         25    2    1    2    0    0 -0.28565981409E+02  0.13602923424E+02  0.73969119781E+03  0.75086049423E+03  0.12508940347E+03 0.  0.
          5    1    3    3  502    0  0.35163019948E+02  0.40000933193E+02  0.44393454700E+03  0.44713741405E+03  0.41800000000E+01 0.  1.
         -5    1    3    3    0  502 -0.63729001357E+02 -0.26398009769E+02  0.29575665081E+03  0.30372308018E+03  0.41800000000E+01 0.  1.
        -11    1    1    2    0    0  0.27006812777E+02 -0.33737156591E+02  0.13162165778E+02  0.45175283941E+02  0.00000000000E+00 0.  1.
         11    1    1    2    0    0  0.15591686317E+01  0.20134233167E+02  0.10810416257E+03  0.10997421660E+03  0.00000000000E+00 0. -1.
</event>
<event>
 7    1  0.2686828E-009  0.1435047E+03  0.7561462E-02  0.1208689E+00
         -1   -1    0    0    0  501 -0.00000000000E+00  0.00000000000E+00  0.85855680586E+02  0.85855680586E+02  0.00000000000E+00 0.  1.
          1   -1    0    0  501    0  0.00000000000E+00 -0.00000000000E+00 -0.24525396141E+03  0.24525396141E+03  0.00000000000E+00 0. -1.
         25    2    1    2    0    0 -0.78248711006E+02 -0.52263309033E+02 -0.10579149648E+03  0.18892864936E+03  0.12509148483E+03 0.  0.
          5    1    3    3  502    0 -0.89952756895E+02  0.12207609761E+02 -0.61619943243E+02  0.10979532783E+03  0.41800000000E+01 0. -1.
         -5    1    3    3    0  502  0.11704045889E+02 -0.64470918794E+02 -0.44171553238E+02  0.79133321526E+02  0.41800000000E+01 0. -1.
        -11    1    1    2    0    0  0.73551807461E+00 -0.22660993804E+02 -0.22994028199E+01  0.22789227288E+02  0.00000000000E+00 0.  1.
         11    1    1    2    0    0  0.77513192932E+02  0.74924302837E+02 -0.51307381525E+02  0.11939176535E+03  0.00000000000E+00 0. -1.
</event>
<event>
 7    1  0.2686828E-009  0.9793503E+02  0.7561462E-02  0.1284699E+00
          2   -1    0    0  501    0  0.00000000000E+00  0.00000000000E+00  0.24171639979E+02  0.24171639979E+02  0.00000000000E+00 0. -1.
         -2   -1    0    0    0  501 -0.00000000000E+00 -0.00000000000E+00 -0.55676445853E+03  0.55676445853E+03  0.00000000000E+00 0.  1.
         25    2    1    2    0    0  0.37138014281E+02  0.19391758630E+02 -0.32029985706E+03  0.34640180785E+03  0.12508773575E+03 0.  0.
          5    1    3    3  502    0 -0.30601629698E+02  0.24109000612E+02 -0.33213250638E+02  0.51364346279E+02  0.41800000000E+01 0.  1.
         -5    1    3    3    0  502  0.67739643980E+02 -0.47172419822E+01 -0.28708660643E+03  0.29503746157E+03  0.41800000000E+01 0.  1.
        -11    1    1    2    0    0 -0.51614849696E+02 -0.38708529505E+02 -0.19340899196E+03  0.20388595130E+03  0.00000000000E+00 0.  1.
         11    1    1    2    0    0  0.14476835415E+02  0.19316770876E+02 -0.18883969524E+02  0.30648339362E+02  0.00000000000E+00 0. -1.
</event>
<event>
 7    1  0.2686828E-009  0.2692876E+03  0.7561462E-02  0.1101688E+00
         -1   -1    0    0    0  501 -0.00000000000E+00  0.00000000000E+00  0.82042861042E+02  0.82042861042E+02  0.00000000000E+00 0.  1.
          1   -1    0    0  501    0  0.00000000000E+00 -0.00000000000E+00 -0.94982036318E+03  0.94982036318E+03  0.00000000000E+00 0. -1.
         25    2    1    2    0    0 -0.23355849747E+03 -0.98857234235E+02 -0.36462833581E+03  0.46143647728E+03  0.12508986685E+03 0.  0.
          5    1    3    3  502    0 -0.18134159240E+03 -0.11608937511E+03 -0.33654568914E+03  0.39955223617E+03  0.41800000000E+01 0. -1.
         -5    1    3    3    0  502 -0.52216905067E+02  0.17232140873E+02 -0.28082646665E+02  0.61884241109E+02  0.41800000000E+01 0. -1.
        -11    1    1    2    0    0  0.19239827855E+03  0.11467035749E+03 -0.40447103234E+03  0.46234533033E+03  0.00000000000E+00 0. -1.
         11    1    1    2    0    0  0.41160218925E+02 -0.15813123259E+02 -0.98678133988E+02  0.10808141661E+03  0.00000000000E+00 0.  1.
</event>
<event>
 7    1  0.2686828E-009  0.8797490E+02  0.7561462E-02  0.1307831E+00
         -2   -1    0    0    0  501 -0.00000000000E+00  0.00000000000E+00  0.51051825198E+02  0.51051825198E+02  0.00000000000E+00 0. -1.
          2   -1    0    0  501    0  0.00000000000E+00 -0.00000000000E+00 -0.28214000685E+03  0.28214000685E+03  0.00000000000E+00 0.  1.
         25    2    1    2    0    0 -0.25976492346E+02  0.12091706994E+02 -0.78956029898E+02  0.15067403535E+03  0.12509045823E+03 0.  0.
          5    1    3    3  502    0 -0.42203522135E+02 -0.16014476589E+02 -0.10134732399E+03  0.11102411099E+03  0.41800000000E+01 0.  1.
         -5    1    3    3    0  502  0.16227029789E+02  0.28106183582E+02  0.22391294089E+02  0.39649924367E+02  0.41800000000E+01 0.  1.
        -11    1    1    2    0    0 -0.29107928142E+02 -0.28174733193E+02 -0.42125353281E+02  0.58443412463E+02  0.00000000000E+00 0. -1.
         11    1    1    2    0    0  0.55084420488E+02  0.16083026199E+02 -0.11000679848E+03  0.12407438423E+03  0.00000000000E+00 0.  1.
</event>
<event>
 7    1  0.2686828E-009  0.1311152E+03  0.7561462E-02  0.1225810E+00
          1   -1    0    0  501    0  0.00000000000E+00  0.00000000000E+00  0.12514427486E+03  0.12514427486E+03  0.00000000000E+00 0. -1.
         -1   -1    0    0    0  501 -0.00000000000E+00 -0.00000000000E+00 -0.26598457322E+03  0.26598457322E+03  0.00000000000E+00 0.  1.
         25    2    1    2    0    0 -0.52428543450E+02 -0.74789373085E+02 -0.19945904558E+03  0.25253455257E+03  0.12509031490E+03 0.  0.
          5    1    3    3  502    0 -0.58059685462E+02  0.15793133931E+02 -0.53576116043E+02  0.80673556793E+02  0.41800000000E+01 0.  1.
         -5    1    3    3    0  502  0.56311420127E+01 -0.90582507016E+02 -0.14588292954E+03  0.17186099577E+03  0.41800000000E+01 0.  1.
        -11    1    1    2    0    0  0.40169212555E+02  0.53204248555E+01  0.54525760531E+02  0.67933284327E+02  0.00000000000E+00 0. -1.
         11    1    1    2    0    0  0.12259330895E+02  0.69468948230E+02  0.40929866853E+01  0.70661011188E+02  0.00000000000E+00 0.  1.
</event>
<event>
 7    1  0.2686828E-009  0.1235134E+03  0.7561462E-02  0.1237411E+00
         -2   -1    0    0    0  501 -0.00000000000E+00  0.00000000000E+00  0.43385180051E+02  0.43385180051E+02  0.00000000000E+00 0.  1.
          2   -1    0    0  501    0  0.00000000000E+00 -0.00000000000E+00 -0.45369339922E+03  0.45369339922E+03  0.00000000000E+00 0. -1.
         25    2    1    2    0    0  0.25692953441E+02 -0.50669205741E+02 -0.24482055837E+03  0.28073455070E+03  0.12508911179E+03 0.  0.
          5    1    3    3  502    0 -0.45920745929E+02  0.21329277325E+01 -0.10828386478E+03  0.11771207270E+03  0.41800000000E+01 0. -1.
         -5    1    3    3    0  502  0.71613699370E+02 -0.52802133473E+02 -0.13653669359E+03  0.16302247800E+03  0.41800000000E+01 0. -1.
        -11    1    1    2    0    0  0.36223391130E+02  0.28273117155E+02 -0.93517832085E+01  0.46893059910E+02  0.00000000000E+00 0.  1.
         11    1    1    2    0    0 -0.61916344571E+02  0.22396088586E+02 -0.15613587759E+03  0.16945096866E+03  0.00000000000E+00 0. -1.
</event>
<event>
 7    1  0.2686828E-009  0.1923209E+03  0.7561462E-02  0.1156385E+00
         -1   -1    0    0    0  501 -0.00000000000E+00  0.00000000000E+00  0.48574527116E+03  0.48574527116E+03  0.00000000000E+00 0.  1.
          1   -1    0    0  501    0  0.00000000000E+00 -0.00000000000E+00 -0.97413774083E+02  0.97413774083E+02  0.00000000000E+00 0. -1.
         25    2    1    2    0    0 -0.16134423562E+03  0.59421497663E+02  0.99340925769E+02  0.23468825935E+03  0.12508829999E+03 0.  0.
          5    1    3    3  502    0 -0.19237636514E+02  0.65433274673E+02  0.47610886122E+02  0.83281864595E+02  0.41800000000E+01 0. -1.
         -5    1    3    3    0  502 -0.14210659910E+03 -0.60117770104E+01  0.51730039646E+02  0.15140639476E+03  0.41800000000E+01 0. -1.
        -11    1    1    2    0    0  0.66484341324E+02 -0.10580650370E+02  0.19495358310E+03  0.20624989059E+03  0.00000000000E+00 0.  1.
         11    1    1    2    0    0  0.94859894294E+02 -0.48840847293E+02  0.94036988209E+02  0.14222089530E+03  0.00000000000E+00 0. -1.
</event>
<event>
 7    1  0.2686828E-009  0.1497988E+03  0.7561462E-02  0.1200721E+00
         -2   -1    0    0    0  501 -0.00000000000E+00  0.00000000000E+00  0.23831908231E+02  0.23831908231E+02  0.00000000000E+00 0.  1.
          2   -1    0    0  501    0  0.00000000000E+00 -0.00000000000E+00 -0.15289455216E+04  0.15289455216E+04  0.00000000000E+00 0. -1.
         25    2    1    2    0    0  0.74767812311E+02  0.95410133894E+02 -0.11964099222E+04  0.12090234221E+04  0.12509042236E+03 0.  0.
          5    1    3    3  502    0  0.32298362558E+02 -0.25591115279E+02 -0.18963648393E+03  0.19410707829E+03  0.41800000000E+01 0.  1.
         -5    1    3    3    0  502  0.42469449753E+02  0.12100124917E+03 -0.10067734383E+04  0.10149163438E+04  0.41800000000E+01 0.  1.
        -11    1    1    2    0    0 -0.62363790027E+02 -0.42356457507E+02 -0.85466805687E+02  0.11396440968E+03  0.00000000000E+00 0.  1.
         11    1    1    2    0    0 -0.12404022284E+02 -0.53053676387E+02 -0.22323688544E+03  0.22978959804E+03  0.00000000000E+00 0. -1.
</event>
<event>
 7    1  0.2686828E-009  0.9273617E+02  0.7561462E-02  0.1296358E+00
         -3   -1    0    0    0  501 -0.00000000000E+00  0.00000000000E+00  0.25113148266E+03  0.25113148266E+03  0.00000000000E+00 0.  1.
          3   -1    0    0  501    0  0.00000000000E+00 -0.00000000000E+00 -0.53652591826E+02  0.53652591826E+02  0.00000000000E+00 0. -1.
         25    2    1    2    0    0  0.30968999122E+01  0.40649201267E+02  0.98083969837E+02  0.16410289826E+03  0.12508935896E+03 0.  0.
          5    1    3    3  502    0  0.32853290584E+02 -0.26393701331E+01  0.10575608462E+03  0.11085182367E+03  0.41800000000E+01 0. -1.
         -5    1    3    3    0  502 -0.29756390672E+02  0.43288571400E+02 -0.76721147828E+01  0.53251074590E+02  0.41800000000E+01 0. -1.
        -11    1    1    2    0    0 -0.46089386128E+02 -0.11165177562E+02  0.46675159925E+02  0.66539185881E+02  0.00000000000E+00 0.  1.
         11    1    1    2    0    0  0.42992486216E+02 -0.29484023706E+02  0.52719761072E+02  0.74141990346E+02  0.00000000000E+00 0. -1.
</event>
<event>
 7    1  0.2686828E-009  0.9540756E+02  0.7561462E-02  0.1290261E+00
          1   -1    0    0  501    0  0.00000000000E+00  0.00000000000E+00  0.12200750070E+03  0.12200750070E+03  0.00000000000E+00 0. -1.
         -1   -1    0    0    0  501 -0.00000000000E+00 -0.00000000000E+00 -0.18458666549E+03  0.18458666549E+03  0.00000000000E+00 0.  1.
         25    2    1    2    0    0 -0.44616527262E+02  0.27312351585E+02  0.55633745787E+02  0.14655882010E+03  0.12509106692E+03 0.  0.
          5    1    3    3  502    0 -0.44142768439E+02 -0.44924170599E+02  0.28857563722E+02  0.69404585536E+02  0.41800000000E+01 0. -1.
         -5    1    3    3    0  502 -0.47375882266E+00  0.72236522184E+02  0.26776182065E+02  0.77154234561E+02  0.41800000000E+01 0. -1.
        -11    1    1    2    0    0  0.53996825199E+01 -0.12138530748E+02  0.15179412463E+02  0.20172135800E+02  0.00000000000E+00 0. -1.
         11    1    1    2    0    0  0.39216844742E+02 -0.15173820837E+02 -0.13339232304E+03  0.13986321030E+03  0.00000000000E+00 0.  1.
</event>
<event>
 7    1  0.2686828E-009  0.8470642E+02  0.7561462E-02  0.1316202E+00
          1   -1    0    0  501    0  0.00000000000E+00  0.00000000000E+00  0.10212445514E+03  0.10212445514E+03  0.00000000000E+00 0. -1.
         -1   -1    0    0    0  501 -0.00000000000E+00 -0.00000000000E+00 -0.16656437465E+03  0.16656437465E+03  0.00000000000E+00 0.  1.
         25    2    1    2    0    0  0.93758759870E+01 -0.22156323708E+02 -0.10452816248E+03  0.16479313190E+03  0.12510727332E+03 0.  0.
          5    1    3    3  502    0 -0.10944800533E+02 -0.54612093594E+02 -0.11236732635E+03  0.12548369558E+03  0.41800000000E+01 0.  1.
         -5    1    3    3    0  502  0.20320676520E+02  0.32455769887E+02  0.78391638715E+01  0.39309436315E+02  0.41800000000E+01 0.  1.
        -11    1    1    2    0    0  0.28725594678E+02 -0.37420358000E+01 -0.14558142640E+02  0.32420705400E+02  0.00000000000E+00 0.  1.
         11    1    1    2    0    0 -0.38101470665E+02  0.25898359508E+02  0.54646385607E+02  0.71474992493E+02  0.00000000000E+00 0. -1.
</event>
<event>
 7    1  0.2686828E-009  0.3084421E+03  0.7561462E-02  0.1081095E+00
          1   -1    0    0  501    0  0.00000000000E+00  0.00000000000E+00  0.81558281861E+02  0.81558281861E+02  0.00000000000E+00 0. -1.
         -1   -1    0    0    0  501 -0.00000000000E+00 -0.00000000000E+00 -0.13952609911E+04  0.13952609911E+04  0.00000000000E+00 0.  1.
         25    2    1    2    0    0  0.20389300014E+03  0.22183957127E+03 -0.43706126154E+03  0.54539421815E+03  0.12508859248E+03 0.  0.
          5    1    3    3  502    0  0.73956677691E+02  0.37948381073E+02 -0.20862365432E+03  0.22461293672E+03  0.41800000000E+01 0.  1.
         -5    1    3    3    0  502  0.12993632245E+03  0.18389119020E+03 -0.22843760722E+03  0.32078128143E+03  0.41800000000E+01 0.  1.
        -11    1    1    2    0    0 -0.52332482613E+02 -0.10416056427E+03 -0.42536754172E+03  0.44105062911E+03  0.00000000000E+00 0.  1.
         11    1    1    2    0    0 -0.15156051753E+03 -0.11767900700E+03 -0.45127390594E+03  0.49037442566E+03  0.00000000000E+00 0. -1.
</event>
<event>
 7    1  0.2686828E-009  0.9971132E+02  0.7561462E-02  0.1280904E+00
          2   -1    0    0  501    0  0.00000000000E+00  0.00000000000E+00  0.27363430331E+03  0.27363430331E+03  0.00000000000E+00 0. -1.
         -2   -1    0    0    0  501 -0.00000000000E+00 -0.00000000000E+00 -0.81690679263E+02  0.81690679263E+02  0.00000000000E+00 0.  1.
         25    2    1    2    0    0  0.33681046050E+02 -0.55074862698E+02  0.20152176753E+03  0.24582147316E+03  0.12509804362E+03 0.  0.
          5    1    3    3  502    0 -0.14424672969E+02 -0.73154059563E+02  0.61949210207E+02  0.97029710223E+02  0.41800000000E+01 0. -1.
         -5    1    3    3    0  502  0.48105719019E+02  0.18079196865E+02  0.13957255732E+03  0.14879176294E+03  0.41800000000E+01 0. -1.
        -11    1    1    2    0    0 -0.15875468268E+02  0.52916337443E+02  0.32265114538E+02  0.63978175007E+02  0.00000000000E+00 0. -1.
         11    1    1    2    0    0 -0.17805577782E+02  0.21585252553E+01 -0.41843258015E+02  0.45525334406E+02  0.00000000000E+00 0.  1.
</event>
<event>
 7    1  0.2686828E-009  0.2102160E+03  0.7561462E-02  0.1141395E+00
         -2   -1    0    0    0  501 -0.00000000000E+00  0.00000000000E+00  0.46403398740E+03  0.46403398740E+03  0.00000000000E+00 0.  1.
          2   -1    0    0  501    0  0.00000000000E+00 -0.00000000000E+00 -0.10184816294E+03  0.10184816294E+03  0.00000000000E+00 0. -1.
         25    2    1    2    0    0 -0.17718860098E+01 -0.18734972509E+03  0.16843382546E+03  0.28128364414E+03  0.12508987101E+03 0.  0.
          5    1    3    3  502    0 -0.54250932827E+02 -0.11116953028E+03  0.13418738233E+03  0.18255288042E+03  0.41800000000E+01 0.  1.
         -5    1    3    3    0  502  0.52479046817E+02 -0.76180194816E+02  0.34246443134E+02  0.98730763718E+02  0.41800000000E+01 0.  1.
        -11    1    1    2    0    0  0.41315563372E+02  0.93824445869E+02  0.12640981574E+03  0.16275578003E+03  0.00000000000E+00 0.  1.
         11    1    1    2    0    0 -0.39543677362E+02  0.93525279223E+02  0.67342183260E+02  0.12184272616E+03  0.00000000000E+00 0. -1.
</event>
<event>
 7    1  0.2686828E-009  0.1387695E+03  0.7561462E-02  0.1214994E+00
         -2   -1    0    0    0  501 -0.00000000000E+00  0.00000000000E+00  0.40557990923E+02  0.40557990923E+02  0.00000000000E+00 0.  1.
          2   -1    0    0  501    0  0.00000000000E+00 -0.00000000000E+00 -0.64413756606E+03  0.64413756606E+03  0.00000000000E+00 0. -1.
         25    2    1    2    0    0 -0.10458216891E+03  0.30955140599E+02 -0.22804060247E+03  0.28203784833E+03  0.12508869145E+03 0.  0.
          5    1    3    3  502    0 -0.13774323910E+02  0.47721532212E+02 -0.15909397829E+03  0.16671965381E+03  0.41800000000E+01 0. -1.
         -5    1    3    3    0  502 -0.90807845004E+02 -0.16766391613E+02 -0.68946624175E+02  0.11531819452E+03  0.41800000000E+01 0. -1.
        -11    1    1    2    0    0  0.95288539228E+02 -0.54619511246E+02 -0.22956555290E+03  0.25448681655E+03  0.00000000000E+00 0.  1.
         11    1    1    2    0    0  0.92936296861E+01  0.23664370647E+02 -0.14597341976E+03  0.14817089210E+03  0.00000000000E+00 0. -1.
</event>
<event>
 7    1  0.2686828E-009  0.1292201E+03  0.7561462E-02  0.1228618E+00
          2   -1    0    0  501    0  0.00000000000E+00  0.00000000000E+00  0.14785652305E+03  0.14785652305E+03  0.00000000000E+00 0. -1.
         -2   -1    0    0    0  501 -0.00000000000E+00 -0.00000000000E+00 -0.16724029902E+03  0.16724029902E+03  0.00000000000E+00 0.  1.
         25    2    1    2    0    0 -0.40765757082E+02  0.10598035332E+03 -0.16543113436E+02  0.16975084216E+03  0.12509193249E+03 0.  0.
          5    1    3    3  502    0 -0.45490793484E+02  0.11330818346E+03  0.27023982952E+02  0.12512363800E+03  0.41800000000E+01 0. -1.
         -5    1    3    3    0  502  0.47250364014E+01 -0.73278301479E+01 -0.43567096389E+02  0.44627204163E+02  0.41800000000E+01 0. -1.
        -11    1    1    2    0    0  0.39171640119E+02 -0.26934105542E+02 -0.35980299336E+02  0.59619169495E+02  0.00000000000E+00 0.  1.
         11    1    1    2    0    0  0.15941169634E+01 -0.79046247774E+02  0.33139636802E+02  0.85726810412E+02  0.00000000000E+00 0. -1.
</event>
<event>
 7    1  0.2686828E-009  0.1354619E+03  0.7561462E-02  0.1219569E+00
         -2   -1    0    0    0  501 -0.00000000000E+00  0.00000000000E+00  0.39403397106E+02  0.39403397106E+02  0.00000000000E+00 0.  1.
          2   -1    0    0  501    0  0.00000000000E+00 -0.00000000000E+00 -0.72763306226E+03  0.72763306226E+03  0.00000000000E+00 0. -1.
         25    2    1    2    0    0 -0.14085813472E+02  0.11768651872E+03 -0.25273955343E+03  0.30589756941E+03  0.12509002468E+03 0.  0.
          5    1    3    3  502    0  0.14081532683E+02  0.31178750925E+02  0.28337909499E+01  0.34581886054E+02  0.41800000000E+01 0.  1.
         -5    1    3    3    0  502 -0.28167346155E+02  0.86507767792E+02 -0.25557334438E+03  0.27131568336E+03  0.41800000000E+01 0.  1.
        -11    1    1    2    0    0 -0.35082003548E+02 -0.60790098451E+02 -0.27639827778E+03  0.28517045956E+03  0.00000000000E+00 0. -1.
         11    1    1    2    0    0  0.49167817020E+02 -0.56896420266E+02 -0.15909183394E+03  0.17596843039E+03  0.00000000000E+00 0.  1.
</event>
<event>
 7    1  0.2686828E-009  0.1847244E+03  0.7561462E-02  0.1163308E+00
         -2   -1    0    0    0  501 -0.00000000000E+00  0.00000000000E+00  0.16431173667E+03  0.16431173667E+03  0.00000000000E+00 0. -1.
          2   -1    0    0  501    0  0.00000000000E+00 -0.00000000000E+00 -0.59168979127E+03  0.59168979127E+03  0.00000000000E+00 0.  1.
         25    2    1    2    0    0 -0.11879704596E+03 -0.11675862715E+03 -0.50800006026E+03  0.54904697454E+03  0.12507279435E+03 0.  0.
          5    1    3    3  502    0 -0.37007463389E+02 -0.11473368780E+03 -0.36284064271E+03  0.38236654648E+03  0.41800000000E+01 0.  1.
         -5    1    3    3    0  502 -0.81789582569E+02 -0.20249393508E+01 -0.14515941755E+03  0.16668042806E+03  0.41800000000E+01 0.  1.
        -11    1    1    2    0    0  0.72804565193E+02  0.64286989475E+02  0.94835438173E+02  0.13574638876E+03  0.00000000000E+00 0. -1.
         11    1    1    2    0    0  0.45992480765E+02  0.52471637672E+02 -0.14213432507E+02  0.71208164634E+02  0.00000000000E+00 0.  1.
</event>
<event>
 7    1  0.2686828E-009  0.2131445E+03  0.7561462E-02  0.1139100E+00
          1   -1    0    0  501    0  0.00000000000E+00  0.00000000000E+00  0.40651933401E+03  0.40651933401E+03  0.00000000000E+00 0. -1.
         -1   -1    0    0    0  501 -0.00000000000E+00 -0.00000000000E+00 -0.12609785046E+03  0.12609785046E+03  0.00000000000E+00 0.  1.
         25    2    1    2    0    0  0.16994330404E+03 -0.10223376405E+03  0.16277359916E+03  0.28543666232E+03  0.12508546885E+03 0.  0.
          5    1    3    3  502    0  0.14726854418E+02  0.13272353164E+02 -0.12942114601E+02  0.24041762205E+02  0.41800000000E+01 0. -1.
         -5    1    3    3    0  502  0.15521644962E+03 -0.11550611721E+03  0.17571571376E+03  0.26139490012E+03  0.41800000000E+01 0. -1.
        -11    1    1    2    0    0 -0.43192545130E+02  0.69110177941E+02  0.20365554598E+02  0.84003383646E+02  0.00000000000E+00 0.  1.
         11    1    1    2    0    0 -0.12675075891E+03  0.33123586107E+02  0.97282329791E+02  0.16317713851E+03  0.00000000000E+00 0. -1.
</event>
<event>
 7    1  0.2686828E-009  0.1169127E+03  0.7561462E-02  0.1248279E+00
          1   -1    0    0  501    0  0.00000000000E+00  0.00000000000E+00  0.86884613671E+02  0.86884613671E+02  0.00000000000E+00 0. -1.
         -1   -1    0    0    0  501 -0.00000000000E+00 -0.00000000000E+00 -0.22568473238E+03  0.22568473238E+03  0.00000000000E+00 0.  1.
         25    2    1    2    0    0 -0.45783272734E+02 -0.26558357012E+02 -0.15668488568E+03  0.20736107322E+03  0.12508799661E+03 0.  0.
          5    1    3    3  502    0  0.79758073490E+01 -0.66194033551E+02 -0.96436018045E+02  0.11731428539E+03  0.41800000000E+01 0.  1.
         -5    1    3    3    0  502 -0.53759080083E+02  0.39635676539E+02 -0.60248867636E+02  0.90046787824E+02  0.41800000000E+01 0.  1.
        -11    1    1    2    0    0  0.33110997097E+02 -0.28447604430E+02  0.21470719400E+02  0.48647673307E+02  0.00000000000E+00 0. -1.
         11    1    1    2    0    0  0.12672275638E+02  0.55005961442E+02 -0.35859524272E+01  0.56560599527E+02  0.00000000000E+00 0.  1.
</event>
<event>
 7    1  0.2686828E-009  0.1388238E+03  0.7561462E-02  0.1214920E+00
         -2   -1    0    0    0  501 -0.00000000000E+00  0.00000000000E+00  0.28577129201E+02  0.28577129201E+02  0.00000000000E+00 0. -1.
          2   -1    0    0  501    0  0.00000000000E+00 -0.00000000000E+00 -0.77567059807E+03  0.77567059807E+03  0.00000000000E+00 0.  1.
         25    2    1    2    0    0 -0.90298964705E+02 -0.27070082507E+02 -0.30392586992E+03  0.34191328319E+03  0.12508823454E+03 0.  0.
          5    1    3    3  502    0 -0.59113994662E+02  0.44086899019E+02 -0.10556070269E+03  0.12883576127E+03  0.41800000000E+01 0.  1.
         -5    1    3    3    0  502 -0.31184970044E+02 -0.71156981526E+02 -0.19836516723E+03  0.21307752192E+03  0.41800000000E+01 0.  1.
        -11    1    1    2    0    0  0.61086591967E+02  0.57435107949E+02 -0.35279336076E+03  0.36262035070E+03  0.00000000000E+00 0.  1.
         11    1    1    2    0    0  0.29212372738E+02 -0.30365025442E+02 -0.90374238181E+02  0.99714093377E+02  0.00000000000E+00 0. -1.
</event>
<event>
 7    1  0.2686828E-009  0.1445493E+03  0.7561462E-02  0.1207335E+00
         -2   -1    0    0    0  501 -0.00000000000E+00  0.00000000000E+00  0.84640492612E+03  0.84640492612E+03  0.00000000000E+00 0.  1.
          2   -1    0    0  501    0  0.00000000000E+00 -0.00000000000E+00 -0.28123890767E+02  0.28123890767E+02  0.00000000000E+00 0. -1.
         25    2    1    2    0    0  0.63887830043E+02 -0.83159877975E+02  0.54087430941E+03  0.56496919513E+03  0.12509177725E+03 0.  0.
          5    1    3    3  502    0  0.92024229097E+02 -0.84736606172E+02  0.34437747020E+03  0.36641788377E+03  0.41800000000E+01 0. -1.
         -5    1    3    3    0  502 -0.28136399053E+02  0.15767281979E+01  0.19649683921E+03  0.19855131136E+03  0.41800000000E+01 0. -1.
        -11    1    1    2    0    0 -0.35606498265E+02 -0.10890324840E+02  0.54821634692E+02  0.66270910090E+02  0.00000000000E+00 0.  1.
         11    1    1    2    0    0 -0.28281331778E+02  0.94050202815E+02  0.22258509125E+03  0.24328871167E+03  0.00000000000E+00 0. -1.
</event>
<event>
 7    1  0.2686828E-009  0.1095439E+03  0.7561462E-02  0.1261417E+00
          2   -1    0    0  501    0  0.00000000000E+00  0.00000000000E+00  0.14928433119E+04  0.14928433119E+04  0.00000000000E+00 0. -1.
         -2   -1    0    0    0  501 -0.00000000000E+00 -0.00000000000E+00 -0.10845543639E+02  0.10845543639E+02  0.00000000000E+00 0.  1.
         25    2    1    2    0    0 -0.15496690117E+02  0.43235414842E+02  0.11016270269E+04  0.11096571653E+04  0.12508984613E+03 0.  0.
          5    1    3    3  502    0 -0.57636545512E+02 -0.99851605008E+01  0.68601134674E+03  0.68851340950E+03  0.41800000000E+01 0. -1.
         -5    1    3    3    0  502  0.42139855395E+02  0.53220575343E+02  0.41561568021E+03  0.42114375584E+03  0.41800000000E+01 0. -1.
        -11    1    1    2    0    0  0.39501371995E+02  0.37400112439E+01  0.82739438537E+02  0.91761433963E+02  0.00000000000E+00 0.  1.
         11    1    1    2    0    0 -0.24004681878E+02 -0.46975426086E+02  0.29763130281E+03  0.30227025627E+03  0.00000000000E+00 0. -1.
</event>
<event>
 7    1  0.2686828E-009  0.9676931E+02  0.7561462E-02  0.1287240E+00
          2   -1    0    0  501    0  0.00000000000E+00  0.00000000000E+00  0.36839559090E+03  0.36839559090E+03  0.00000000000E+00 0.  1.
         -2   -1    0    0    0  501 -0.00000000000E+00 -0.00000000000E+00 -0.45805236802E+02  0.45805236802E+02  0.00000000000E+00 0. -1.
         25    2    1    2    0    0  0.41011610298E+02 -0.20845525079E+02  0.90977771676E+02  0.16137164806E+03  0.12508943106E+03 0.  0.
          5    1    3    3  502    0  0.65822870853E+02  0.98343102033E+00  0.15931804941E+01  0.65982028523E+02  0.41800000000E+01 0. -1.
         -5    1    3    3    0  502 -0.24811260555E+02 -0.21828956099E+02  0.89384591182E+02  0.95389619538E+02  0.41800000000E+01 0. -1.
        -11    1    1    2    0    0 -0.44459166608E+02 -0.23156795028E+02  0.75725394372E+02  0.90814040788E+02  0.00000000000E+00 0. -1.
         11    1    1    2    0    0  0.34475563098E+01  0.44002320107E+02  0.15588718805E+03  0.16201513885E+03  0.00000000000E+00 0.  1.
</event>
<event>
 7    1  0.2686828E-009  0.2218635E+03  0.7561462E-02  0.1132501E+00
         -2   -1    0    0    0  501 -0.00000000000E+00  0.00000000000E+00  0.42734845898E+03  0.42734845898E+03  0.00000000000E+00 0.  1.
          2   -1    0    0  501    0  0.00000000000E+00 -0.00000000000E+00 -0.15272303101E+03  0.15272303101E+03  0.00000000000E+00 0. -1.
         25    2    1    2    0    0 -0.16189110547E+03 -0.12268451431E+03  0.14909232951E+02  0.23902027959E+03  0.12509272060E+03 0.  0.
          5    1    3    3  502    0 -0.17347139878E+03 -0.11161306981E+03  0.38817602123E+02  0.20993828184E+03  0.41800000000E+01 0. -1.
         -5    1    3    3    0  502  0.11580293312E+02 -0.11071444500E+02 -0.23908369172E+02  0.29081997747E+02  0.41800000000E+01 0. -1.
        -11    1    1    2    0    0  0.78361191360E+02  0.77135947405E+01  0.99606969057E+02  0.12697056407E+03  0.00000000000E+00 0.  1.
         11    1    1    2    0    0  0.83529914111E+02  0.11497091957E+03  0.16010922595E+03  0.21408064633E+03  0.00000000000E+00 0. -1.
</event>
<event>
 7    1  0.2686828E-009  0.9561638E+02  0.7561462E-02  0.1289794E+00
          1   -1    0    0  501    0  0.00000000000E+00  0.00000000000E+00  0.10856214717E+03  0.10856214717E+03  0.00000000000E+00 0. -1.
         -1   -1    0    0    0  501 -0.00000000000E+00 -0.00000000000E+00 -0.39376558496E+03  0.39376558496E+03  0.00000000000E+00 0.  1.
         25    2    1    2    0    0  0.33787874469E+02 -0.37879208378E+02 -0.35341821179E+03  0.37832583532E+03  0.12509816288E+03 0.  0.
          5    1    3    3  502    0 -0.16468545068E+02 -0.69456829900E+02 -0.23747093837E+03  0.24800278863E+03  0.41800000000E+01 0. -1.
         -5    1    3    3    0  502  0.50256419537E+02  0.31577621522E+02 -0.11594727341E+03  0.13032304668E+03  0.41800000000E+01 0. -1.
        -11    1    1    2    0    0  0.37206922381E+01  0.16788433107E+02 -0.19682715295E+02  0.26136264429E+02  0.00000000000E+00 0.  1.
         11    1    1    2    0    0 -0.37508566708E+02  0.21090775271E+02  0.87897489289E+02  0.97865632381E+02  0.00000000000E+00 0. -1.
</event>
<event>
 7    1  0.2686828E-009  0.1562271E+03  0.7561462E-02  0.1193023E+00
         -2   -1    0    0    0  501 -0.00000000000E+00  0.00000000000E+00  0.37187871749E+02  0.37187871749E+02  0.00000000000E+00 0.  1.
          2   -1    0    0  501    0  0.00000000000E+00 -0.00000000000E+00 -0.11365837632E+04  0.11365837632E+04  0.00000000000E+00 0. -1.
         25    2    1    2    0    0 -0.21579320332E+02  0.12899137552E+03 -0.89862343529E+03  0.91666729801E+03  0.12510161774E+03 0.  0.
          5    1    3    3  502    0  0.31395585206E+02  0.57832120329E+02 -0.63652093299E+03  0.63992703290E+03  0.41800000000E+01 0.  1.
         -5    1    3    3    0  502 -0.52974905539E+02  0.71159255187E+02 -0.26210250231E+03  0.27674026511E+03  0.41800000000E+01 0.  1.
        -11    1    1    2    0    0 -0.22857087400E+02 -0.10449260295E+03 -0.15766089001E+03  0.19052062029E+03  0.00000000000E+00 0. -1.
         11    1    1    2    0    0  0.44436407732E+02 -0.24498772564E+02 -0.43111566189E+02  0.66583716692E+02  0.00000000000E+00 0.  1.
</event>
<event>
 7    1  0.2686828E-009  0.8618014E+02  0.7561462E-02  0.1312375E+00
          1   -1    0    0  501    0  0.00000000000E+00  0.00000000000E+00  0.37379564054E+02  0.37379564054E+02  0.00000000000E+00 0. -1.
         -1   -1    0    0    0  501 -0.00000000000E+00 -0.00000000000E+00 -0.45676989948E+03  0.45676989948E+03  0.00000000000E+00 0.  1.
         25    2    1    2    0    0 -0.17374483021E+01 -0.22470631042E+02 -0.36325925503E+03  0.38485387620E+03  0.12508905496E+03 0.  0.
          5    1    3    3  502    0 -0.27787041642E+02 -0.48433859888E+02 -0.71797964581E+02  0.91051516104E+02  0.41800000000E+01 0.  1.
         -5    1    3    3    0  502  0.26049593340E+02  0.25963228846E+02 -0.29146129045E+03  0.29380236009E+03  0.41800000000E+01 0.  1.
        -11    1    1    2    0    0 -0.32800403650E+02 -0.74708379427E+01  0.38750502919E+01  0.33862898783E+02  0.00000000000E+00 0. -1.
         11    1    1    2    0    0  0.34537851953E+02  0.29941468984E+02 -0.60006130683E+02  0.75432688551E+02  0.00000000000E+00 0.  1.
</event>
<event>
 7    1  0.2686828E-009  0.1747963E+03  0.7561462E-02  0.1172936E+00
         -2   -1    0    0    0  501 -0.00000000000E+00  0.00000000000E+00  0.44637018443E+03  0.44637018443E+03  0.00000000000E+00 0.  1.
          2   -1    0    0  501    0  0.00000000000E+00 -0.00000000000E+00 -0.80111878138E+02  0.80111878138E+02  0.00000000000E+00 0. -1.
         25    2    1    2    0    0  0.14822310853E+03 -0.41798086393E+02  0.17454975252E+03  0.26425764127E+03  0.12508922790E+03 0.  0.
          5    1    3    3  502    0  0.13073872538E+03 -0.75947417776E+02  0.16629317331E+03  0.22479216283E+03  0.41800000000E+01 0. -1.
         -5    1    3    3    0  502  0.17484383146E+02  0.34149331383E+02  0.82565792068E+01  0.39465478435E+02  0.41800000000E+01 0. -1.
        -11    1    1    2    0    0 -0.89220430704E+02  0.32754998991E+01  0.46141261764E+02  0.10049890642E+03  0.00000000000E+00 0.  1.
         11    1    1    2    0    0 -0.59002677822E+02  0.38522586494E+02  0.14556729201E+03  0.16172551488E+03  0.00000000000E+00 0. -1.
</event>
<event>
 7    1  0.2686828E-009  0.1112234E+03  0.7561462E-02  0.1258321E+00
          4   -1    0    0  501    0  0.00000000000E+00  0.00000000000E+00  0.50667483327E+02  0.50667483327E+02  0.00000000000E+00 0. -1.
         -4   -1    0    0    0  501 -0.00000000000E+00 -0.00000000000E+00 -0.30716200063E+03  0.30716200063E+03  0.00000000000E+00 0.  1.
         25    2    1    2    0    0 -0.52131983921E+02  0.16467405071E+02 -0.10355847119E+03  0.17135453532E+03  0.12509636542E+03 0.  0.
          5    1    3    3  502    0 -0.26203974254E+01 -0.40237975920E+02  0.31910823499E+01  0.40664684868E+02  0.41800000000E+01 0. -1.
         -5    1    3    3    0  502 -0.49511586495E+02  0.56705380991E+02 -0.10674955354E+03  0.13068985045E+03  0.41800000000E+01 0. -1.
        -11    1    1    2    0    0  0.46375301302E+02  0.32868673119E+02 -0.76189926719E+02  0.95057473020E+02  0.00000000000E+00 0.  1.
         11    1    1    2    0    0  0.57566826191E+01 -0.49336078190E+02 -0.76746119397E+02  0.91417475618E+02  0.00000000000E+00 0. -1.
</event>
<event>
 7    1  0.2686828E-009  0.1533807E+03  0.7561462E-02  0.1196379E+00
         -2   -1    0    0    0  501 -0.00000000000E+00  0.00000000000E+00  0.69764404051E+02  0.69764404051E+02  0.00000000000E+00 0.  1.
          2   -1    0    0  501    0  0.00000000000E+00 -0.00000000000E+00 -0.38426521162E+03  0.38426521162E+03  0.00000000000E+00 0. -1.
         25    2    1    2    0    0 -0.10772528225E+03  0.48865833587E+02 -0.12715481044E+03  0.21402649266E+03  0.12508552121E+03 0.  0.
          5    1    3    3  502    0 -0.97198276388E+02 -0.22533113265E+02 -0.74524865267E+02  0.12460607557E+03  0.41800000000E+01 0. -1.
         -5    1    3    3    0  502 -0.10527005858E+02  0.71398946852E+02 -0.52629945176E+02  0.89420417093E+02  0.41800000000E+01 0. -1.
        -11    1    1    2    0    0  0.65493943683E+02 -0.62196351595E+02 -0.16987962315E+03  0.19239784087E+03  0.00000000000E+00 0. -1.
         11    1    1    2    0    0  0.42231338563E+02  0.13330518008E+02 -0.17466373978E+02  0.47605282135E+02  0.00000000000E+00 0.  1.
</event>
<event>
 7    1  0.2686828E-009  0.8523342E+02  0.7561462E-02  0.1314823E+00
         -2   -1    0    0    0  501 -0.00000000000E+00  0.00000000000E+00  0.10529912049E+03  0.10529912049E+03  0.00000000000E+00 0.  1.
          2   -1    0    0  501    0  0.00000000000E+00 -0.00000000000E+00 -0.13346013613E+03  0.13346013613E+03  0.00000000000E+00 0. -1.
         25    2    1    2    0    0  0.16061446846E+01 -0.57519832116E+02 -0.15044406051E+02  0.13850907476E+03  0.12508924354E+03 0.  0.
          5    1    3    3  502    0  0.20990301112E+02 -0.36432396041E+02 -0.66897040858E+02  0.79123945160E+02  0.41800000000E+01 0. -1.
         -5    1    3    3    0  502 -0.19384156427E+02 -0.21087436075E+02  0.51852634807E+02  0.59385129595E+02  0.41800000000E+01 0. -1.
        -11    1    1    2    0    0 -0.40765209861E+02  0.37019940686E+02 -0.48080636714E+01  0.55275634955E+02  0.00000000000E+00 0.  1.
         11    1    1    2    0    0  0.39159065176E+02  0.20499891430E+02 -0.83085459229E+01  0.44974546907E+02  0.00000000000E+00 0. -1.
</event>
<event>
 7    1  0.2686828E-009  0.9828169E+02  0.7561462E-02  0.1283951E+00
          1   -1    0    0  501    0  0.00000000000E+00  0.00000000000E+00  0.91803163053E+02  0.91803163053E+02  0.00000000000E+00 0. -1.
         -1   -1    0    0    0  501 -0.00000000000E+00 -0.00000000000E+00 -0.19020033713E+03  0.19020033713E+03  0.00000000000E+00 0.  1.
         25    2    1    2    0    0  0.25807208516E+02  0.40092148905E+02 -0.11657529259E+03  0.17751423350E+03  0.12509241319E+03 0.  0.
          5    1    3    3  502    0  0.55478432584E+02 -0.25894414163E+02 -0.55431491669E+02  0.82695222567E+02  0.41800000000E+01 0. -1.
         -5    1    3    3    0  502 -0.29671224068E+02  0.65986563068E+02 -0.61143800921E+02  0.94819010933E+02  0.41800000000E+01 0. -1.
        -11    1    1    2    0    0  0.11110649993E+02 -0.68890760861E+01  0.45828677187E+02  0.47656831255E+02  0.00000000000E+00 0. -1.
         11    1    1    2    0    0 -0.36917858509E+02 -0.33203072819E+02 -0.27650558670E+02  0.56832435424E+02  0.00000000000E+00 0.  1.
</event>
<event>
 7    1  0.2686828E-009  0.1149901E+03  0.7561462E-02  0.1251598E+00
          1   -1    0    0  501    0  0.00000000000E+00  0.00000000000E+00  0.12677647044E+03  0.12677647044E+03  0.00000000000E+00 0. -1.
         -1   -1    0    0    0  501 -0.00000000000E+00 -0.00000000000E+00 -0.13765870075E+03  0.13765870075E+03  0.00000000000E+00 0.  1.
         25    2    1    2    0    0  0.48254268127E+02  0.45397065293E+02  0.21146251072E+02  0.14312239889E+03  0.12508992445E+03 0.  0.
          5    1    3    3  502    0  0.62763957575E+02  0.63594512573E+02 -0.23602491438E+02  0.92510142157E+02  0.41800000000E+01 0.  1.
         -5    1    3    3    0  502 -0.14509689447E+02 -0.18197447280E+02  0.44748742509E+02  0.50612256732E+02  0.41800000000E+01 0.  1.
        -11    1    1    2    0    0 -0.56416511339E+02 -0.70612226123E+02 -0.27077774893E+02  0.94351020783E+02  0.00000000000E+00 0.  1.
         11    1    1    2    0    0  0.81622432112E+01  0.25215160830E+02 -0.49507064887E+01  0.26961751513E+02  0.00000000000E+00 0. -1.
</event>
<event>
 7    1  0.2686828E-009  0.1084466E+03  0.7561462E-02  0.1263474E+00
          2   -1    0    0  501    0  0.00000000000E+00  0.00000000000E+00  0.64169169631E+03  0.64169169631E+03  0.00000000000E+00 0. -1.
         -2   -1    0    0    0  501 -0.00000000000E+00 -0.00000000000E+00 -0.25544519051E+02  0.25544519051E+02  0.00000000000E+00 0.  1.
         25    2    1    2    0    0  0.65404140430E+02 -0.64831942030E+01  0.30035623279E+03  0.33193510923E+03  0.12508923522E+03 0.  0.
          5    1    3    3  502    0 -0.32204843750E+01 -0.38356636192E+02  0.21211566544E+03  0.21562033992E+03  0.41800000000E+01 0.  1.
         -5    1    3    3    0  502  0.68624624805E+02  0.31873441989E+02  0.88240567352E+02  0.11631476931E+03  0.41800000000E+01 0.  1.
        -11    1    1    2    0    0 -0.54968611760E+02 -0.31259796924E+02  0.12009739389E+03  0.13572806343E+03  0.00000000000E+00 0.  1.
         11    1    1    2    0    0 -0.10435528669E+02  0.37742991127E+02  0.19569355057E+03  0.19957304270E+03  0.00000000000E+00 0. -1.
</event>
<event>
 7    1  0.2686828E-009  0.4918097E+02  0.7561462E-02  0.1449810E+00
         -3   -1    0    0    0  501 -0.00000000000E+00  0.00000000000E+00  0.84709468659E+02  0.84709468659E+02  0.00000000000E+00 0.  1.
          3   -1    0    0  501    0  0.00000000000E+00 -0.00000000000E+00 -0.13724500032E+03  0.13724500032E+03  0.00000000000E+00 0. -1.
         25    2    1    2    0    0  0.99256512446E+01 -0.23696897814E+02 -0.42290542833E+02  0.13452132864E+03  0.12508971312E+03 0.  0.
          5    1    3    3  502    0  0.19297700836E+02 -0.43893673479E+02 -0.78340381461E+02  0.91944241780E+02  0.41800000000E+01 0. -1.
         -5    1    3    3    0  502 -0.93720495913E+01  0.20196775665E+02  0.36049838628E+02  0.42577086865E+02  0.41800000000E+01 0. -1.
        -11    1    1    2    0    0 -0.85650446380E+01  0.76839491311E+01  0.36358880335E+02  0.38136219571E+02  0.00000000000E+00 0.  1.
         11    1    1    2    0    0 -0.13606066065E+01  0.16012948683E+02 -0.46603869164E+02  0.49296920766E+02  0.00000000000E+00 0. -1.
</event>
<event>
 7    1  0.2686828E-009  0.1223885E+03  0.7561462E-02  0.1239208E+00
          1   -1    0    0  501    0  0.00000000000E+00  0.00000000000E+00  0.27758009050E+03  0.27758009050E+03  0.00000000000E+00 0. -1.
         -1   -1    0    0    0  501 -0.00000000000E+00 -0.00000000000E+00 -0.63467631245E+02  0.63467631245E+02  0.00000000000E+00 0.  1.
         25    2    1    2    0    0 -0.55377598957E+02  0.49988609022E+02  0.12527413752E+03  0.19211434341E+03  0.12509505152E+03 0.  0.
          5    1    3    3  502    0  0.34003050097E+02 -0.10722240549E+02  0.44338149510E+02  0.57048380873E+02  0.41800000000E+01 0. -1.
         -5    1    3    3    0  502 -0.89380649054E+02  0.60710849571E+02  0.80935988015E+02  0.13506596254E+03  0.41800000000E+01 0. -1.
        -11    1    1    2    0    0  0.29652596916E+02  0.13249906252E+02 -0.50282888578E+01  0.32865182312E+02  0.00000000000E+00 0.  1.
         11    1    1    2    0    0  0.25725002042E+02 -0.63238515274E+02  0.93866610587E+02  0.11606819602E+03  0.00000000000E+00 0. -1.
</event>
<event>
 7    1  0.2686828E-009  0.9535569E+02  0.7561462E-02  0.1290377E+00
         -1   -1    0    0    0  501 -0.00000000000E+00  0.00000000000E+00  0.30486760768E+03  0.30486760768E+03  0.00000000000E+00 0.  1.
          1   -1    0    0  501    0  0.00000000000E+00 -0.00000000000E+00 -0.55347776603E+02  0.55347776603E+02  0.00000000000E+00 0. -1.
         25    2    1    2    0    0  0.47243757857E+02  0.51241098074E+02  0.85252060733E+02  0.16665424175E+03  0.12509236446E+03 0.  0.
          5    1    3    3  502    0  0.30193223868E+01  0.50577307874E+02  0.10604559389E+03  0.11760238418E+03  0.41800000000E+01 0.  1.
         -5    1    3    3    0  502  0.44224435470E+02  0.66379019960E+00 -0.20793533161E+02  0.49051857573E+02  0.41800000000E+01 0.  1.
        -11    1    1    2    0    0  0.15187931175E+02 -0.21417430868E+02  0.81813821033E+02  0.85923692369E+02  0.00000000000E+00 0.  1.
         11    1    1    2    0    0 -0.62431689032E+02 -0.29823667206E+02  0.82453949313E+02  0.10763745017E+03  0.00000000000E+00 0. -1.
</event>
<event>
 7    1  0.2686828E-009  0.8164814E+02  0.7561462E-02  0.1324438E+00
          2   -1    0    0  501    0  0.00000000000E+00  0.00000000000E+00  0.38331034287E+02  0.38331034287E+02  0.00000000000E+00 0. -1.
         -2   -1    0    0    0  501 -0.00000000000E+00 -0.00000000000E+00 -0.31224472851E+03  0.31224472851E+03  0.00000000000E+00 0.  1.
         25    2    1    2    0    0  0.11428040723E+02 -0.79428676998E+01 -0.16857199240E+03  0.21037502972E+03  0.12508975675E+03 0.  0.
          5    1    3    3  502    0  0.48619148230E+01 -0.38614989877E+02 -0.29116415760E+00  0.39144767665E+02  0.41800000000E+01 0. -1.
         -5    1    3    3    0  502  0.65661259002E+01  0.30672122178E+02 -0.16828082824E+03  0.17123026205E+03  0.41800000000E+01 0. -1.
        -11    1    1    2    0    0 -0.51770300682E+02  0.60353368009E+01 -0.58400661815E+02  0.78276603295E+02  0.00000000000E+00 0. -1.
         11    1    1    2    0    0  0.40342259958E+02  0.19075308989E+01 -0.46941040010E+02  0.61924129787E+02  0.00000000000E+00 0.  1.
</event>
<event>
 7    1  0.2686828E-009  0.6851433E+02  0.7561462E-02  0.1365219E+00
          2   -1    0    0  501    0  0.00000000000E+00  0.00000000000E+00  0.46364585499E+02  0.46364585499E+02  0.00000000000E+00 0. -1.
         -2   -1    0    0    0  501 -0.00000000000E+00 -0.00000000000E+00 -0.31879725312E+03  0.31879725312E+03  0.00000000000E+00 0.  1.
         25    2    1    2    0    0 -0.46514836700E+02  0.22353953443E+02 -0.16262861820E+03  0.21156442208E+03  0.12509239771E+03 0.  0.
          5    1    3    3  502    0 -0.49353742498E+01  0.29665731117E+02  0.11405518959E+02  0.32434114516E+02  0.41800000000E+01 0.  1.
         -5    1    3    3    0  502 -0.41579462451E+02 -0.73117776735E+01 -0.17403413716E+03  0.17913030757E+03  0.41800000000E+01 0.  1.
        -11    1    1    2    0    0  0.25282395899E+02 -0.32115743572E+02 -0.12097675839E+03  0.12769493568E+03  0.00000000000E+00 0.  1.
         11    1    1    2    0    0  0.21232440801E+02  0.97617901287E+01  0.11172708971E+02  0.25902480859E+02  0.00000000000E+00 0. -1.
</event>
<event>
 7    1  0.2686828E-009  0.9091638E+02  0.7561462E-02  0.1300648E+00
         -1   -1    0    0    0  501 -0.00000000000E+00  0.00000000000E+00  0.18615518205E+03  0.18615518205E+03  0.00000000000E+00 0.  1.
          1   -1    0    0  501    0  0.00000000000E+00 -0.00000000000E+00 -0.11777483161E+03  0.11777483161E+03  0.00000000000E+00 0. -1.
         25    2    1    2    0    0 -0.61480999457E+02 -0.29316103954E+02 -0.38152574736E+02  0.14746246691E+03  0.12510081112E+03 0.  0.
          5    1    3    3  502    0  0.35709967353E+00 -0.22064273816E+02  0.40952646353E+02  0.46707080218E+02  0.41800000000E+01 0.  1.
         -5    1    3    3    0  502 -0.61838099131E+02 -0.72518301383E+01 -0.79105221089E+02  0.10075538669E+03  0.41800000000E+01 0.  1.
        -11    1    1    2    0    0  0.71808604804E+02  0.39928477153E+02  0.46028573546E+02  0.94177431449E+02  0.00000000000E+00 0. -1.
         11    1    1    2    0    0 -0.10327605347E+02 -0.10612373199E+02  0.60504351631E+02  0.62290115294E+02  0.00000000000E+00 0.  1.
</event>
<event>
 7    1  0.2686828E-009  0.1319888E+03  0.7561462E-02  0.1224534E+00
          1   -1    0    0  501    0  0.00000000000E+00  0.00000000000E+00  0.70379322324E+03  0.70379322324E+03  0.00000000000E+00 0. -1.
         -1   -1    0    0    0  501 -0.00000000000E+00 -0.00000000000E+00 -0.38557451917E+02  0.38557451917E+02  0.00000000000E+00 0.  1.
         25    2    1    2    0    0  0.77005522056E+02 -0.93304455999E+02  0.30342272998E+03  0.34978768216E+03  0.12510194877E+03 0.  0.
          5    1    3    3  502    0  0.24761641822E+02  0.72824481252E+01  0.30932408175E+00  0.26148442359E+02  0.41800000000E+01 0. -1.
         -5    1    3    3    0  502  0.52243880234E+02 -0.10058690412E+03  0.30311340590E+03  0.32363923980E+03  0.41800000000E+01 0. -1.
        -11    1    1    2    0    0 -0.47419277213E+02  0.77525348156E+02  0.34144194366E+03  0.35332898034E+03  0.00000000000E+00 0. -1.
         11    1    1    2    0    0 -0.29586244843E+02  0.15779107843E+02  0.20371097682E+02  0.39234012655E+02  0.00000000000E+00 0.  1.
</event>
<event>
 7    1  0.2686828E-009  0.1005787E+03  0.7561462E-02  0.1279084E+00
          3   -1    0    0  501    0  0.00000000000E+00  0.00000000000E+00  0.30519773525E+02  0.30519773525E+02  0.00000000000E+00 0. -1.
         -3   -1    0    0    0  501 -0.00000000000E+00 -0.00000000000E+00 -0.43633181310E+03  0.43633181310E+03  0.00000000000E+00 0.  1.
         25    2    1    2    0    0  0.31607920398E+02  0.54528973739E+02 -0.17401809886E+03  0.22337916672E+03  0.12507391328E+03 0.  0.
          5    1    3    3  502    0 -0.32437195897E+01  0.88003418234E+02 -0.13447694003E+03  0.16080000976E+03  0.41800000000E+01 0. -1.
         -5    1    3    3    0  502  0.34851639988E+02 -0.33474444495E+02 -0.39541158832E+02  0.62579156960E+02  0.41800000000E+01 0. -1.
        -11    1    1    2    0    0 -0.22438230681E+02 -0.48712928358E+02 -0.22340014348E+03  0.22974779148E+03  0.00000000000E+00 0.  1.
         11    1    1    2    0    0 -0.91696897168E+01 -0.58160453811E+01 -0.83937972342E+01  0.13724628424E+02  0.00000000000E+00 0. -1.
</event>
<event>
 7    1  0.2686828E-009  0.1212631E+03  0.7561462E-02  0.1241028E+00
         -2   -1    0    0    0  501 -0.00000000000E+00  0.00000000000E+00  0.13237307989E+03  0.13237307989E+03  0.00000000000E+00 0.  1.
          2   -1    0    0  501    0  0.00000000000E+00 -0.00000000000E+00 -0.15081986769E+03  0.15081986769E+03  0.00000000000E+00 0. -1.
         25    2    1    2    0    0 -0.28556273701E+02 -0.76953921672E+02  0.28414474570E+02  0.15228795085E+03  0.12508745253E+03 0.  0.
          5    1    3    3  502    0 -0.97773385625E+01  0.24585481584E+02 -0.24395684122E+02  0.36230706009E+02  0.41800000000E+01 0.  1.
         -5    1    3    3    0  502 -0.18778935139E+02 -0.10153940326E+03  0.52810158692E+02  0.11605724484E+03  0.41800000000E+01 0.  1.
        -11    1    1    2    0    0  0.18920692269E+02  0.92329676605E+02 -0.56974970987E+02  0.11013132659E+03  0.00000000000E+00 0. -1.
         11    1    1    2    0    0  0.96355814327E+01 -0.15375754933E+02  0.10113708613E+02  0.20773670143E+02  0.00000000000E+00 0.  1.
</event>
<event>
 7    1  0.2686828E-009  0.1691955E+03  0.7561462E-02  0.1178689E+00
          1   -1    0    0  501    0  0.00000000000E+00  0.00000000000E+00  0.20975730793E+03  0.20975730793E+03  0.00000000000E+00 0. -1.
         -1   -1    0    0    0  501 -0.00000000000E+00 -0.00000000000E+00 -0.15087364235E+03  0.15087364235E+03  0.00000000000E+00 0.  1.
         25    2    1    2    0    0  0.13538947918E+02 -0.13120773952E+03  0.78259639662E+02  0.19791324604E+03  0.12508520192E+03 0.  0.
          5    1    3    3  502    0 -0.54332655888E+02 -0.61614820311E+02  0.51325313432E+02  0.96954544900E+02  0.41800000000E+01 0. -1.
         -5    1    3    3    0  502  0.67871603806E+02 -0.69592919209E+02  0.26934326229E+02  0.10095870114E+03  0.41800000000E+01 0. -1.
        -11    1    1    2    0    0 -0.51466694631E+02  0.71384451606E+02 -0.25491994311E+02  0.91620971187E+02  0.00000000000E+00 0.  1.
         11    1    1    2    0    0  0.37927746713E+02  0.59823287913E+02  0.61160202288E+01  0.71096733054E+02  0.00000000000E+00 0. -1.
</event>
<event>
 7    1  0.2686828E-009  0.1044744E+03  0.7561462E-02  0.1271159E+00
          2   -1    0    0  501    0  0.00000000000E+00  0.00000000000E+00  0.53929012406E+03  0.53929012406E+03  0.00000000000E+00 0. -1.
         -2   -1    0    0    0  501 -0.00000000000E+00 -0.00000000000E+00 -0.51162671500E+02  0.51162671500E+02  0.00000000000E+00 0.  1.
         25    2    1    2    0    0 -0.25808449173E+02  0.40819521302E+02  0.46769258290E+03  0.48653453669E+03  0.12508874419E+03 0.  0.
          5    1    3    3  502    0 -0.51706653101E+02 -0.22939648670E+02  0.12936620022E+03  0.14125470476E+03  0.41800000000E+01 0. -1.
         -5    1    3    3    0  502  0.25898203928E+02  0.63759169972E+02  0.33832638267E+03  0.34527983193E+03  0.41800000000E+01 0. -1.
        -11    1    1    2    0    0 -0.12476565451E+02 -0.43159045605E+02 -0.19115044095E+02  0.48823691111E+02  0.00000000000E+00 0.  1.
         11    1    1    2    0    0  0.38285014624E+02  0.23395243028E+01  0.39549913753E+02  0.55094567760E+02  0.00000000000E+00 0. -1.
</event>
<event>
 7    1  0.2686828E-009  0.9121282E+02  0.7561462E-02  0.1299941E+00
          1   -1    0    0  501    0  0.00000000000E+00  0.00000000000E+00  0.36914796450E+02  0.36914796450E+02  0.00000000000E+00 0. -1.
         -1   -1    0    0    0  501 -0.00000000000E+00 -0.00000000000E+00 -0.37803774481E+03  0.37803774481E+03  0.00000000000E+00 0.  1.
         25    2    1    2    0    0  0.23815597189E+02 -0.25106594634E+02 -0.12789475506E+03  0.18220337659E+03  0.12507389138E+03 0.  0.
          5    1    3    3  502    0  0.22725155369E+02 -0.55041865288E+02 -0.10045039557E+02  0.60534410385E+02  0.41800000000E+01 0. -1.
         -5    1    3    3    0  502  0.10904418195E+01  0.29935270654E+02 -0.11784971551E+03  0.12166896620E+03  0.41800000000E+01 0. -1.
        -11    1    1    2    0    0 -0.43996762577E+02 -0.15899868679E+02 -0.92438300355E+02  0.10360193200E+03  0.00000000000E+00 0. -1.
         11    1    1    2    0    0  0.20181165389E+02  0.41006463313E+02 -0.12078989294E+03  0.12914723267E+03  0.00000000000E+00 0.  1.
</event>
<event>
 7    1  0.2686828E-009  0.1083412E+03  0.7561462E-02  0.1263673E+00
         -2   -1    0    0    0  501 -0.00000000000E+00  0.00000000000E+00  0.21156661362E+02  0.21156661362E+02  0.00000000000E+00 0.  1.
          2   -1    0    0  501    0  0.00000000000E+00 -0.00000000000E+00 -0.55894457330E+03  0.55894457330E+03  0.00000000000E+00 0. -1.
         25    2    1    2    0    0  0.13218477045E+02 -0.11815314677E+02 -0.33748836158E+03  0.36036128964E+03  0.12509010782E+03 0.  0.
          5    1    3    3  502    0 -0.20037566411E+02 -0.62390965010E+02 -0.17407878364E+03  0.18605115398E+03  0.41800000000E+01 0.  1.
         -5    1    3    3    0  502  0.33256043456E+02  0.50575650333E+02 -0.16340957794E+03  0.17431013567E+03  0.41800000000E+01 0.  1.
        -11    1    1    2    0    0  0.33331148603E+02 -0.15081081898E+02 -0.83321273009E+02  0.90999115569E+02  0.00000000000E+00 0. -1.
         11    1    1    2    0    0 -0.46549625648E+02  0.26896396575E+02 -0.11697827735E+03  0.12874082945E+03  0.00000000000E+00 0.  1.
</event>
<event>
 7    1  0.2686828E-009  0.1088587E+03  0.7561462E-02  0.1262698E+00
         -1   -1    0    0    0  501 -0.00000000000E+00  0.00000000000E+00  0.22915705369E+02  0.22915705369E+02  0.00000000000E+00 0.  1.
          1   -1    0    0  501    0  0.00000000000E+00 -0.00000000000E+00 -0.68809732069E+03  0.68809732069E+03  0.00000000000E+00 0. -1.
         25    2    1    2    0    0  0.52043506363E+02 -0.65574773112E+01 -0.46977677248E+03  0.48896711882E+03  0.12508836983E+03 0.  0.
          5    1    3    3  502    0  0.27118154337E+02 -0.62392847235E+02 -0.31917964033E+03  0.32637612793E+03  0.41800000000E+01 0.  1.
         -5    1    3    3    0  502  0.24925352027E+02  0.55835369924E+02 -0.15059713215E+03  0.16259099089E+03  0.41800000000E+01 0.  1.
        -11    1    1    2    0    0  0.17760087442E+02 -0.22885406076E+01 -0.43233754579E+01  0.18421446724E+02  0.00000000000E+00 0.  1.
         11    1    1    2    0    0 -0.69803593806E+02  0.88460179188E+01 -0.19108146739E+03  0.20362446052E+03  0.00000000000E+00 0. -1.
</event>
<event>
 7    1  0.2686828E-009  0.2818001E+03  0.7561462E-02  0.1094710E+00
          2   -1    0    0  501    0  0.00000000000E+00  0.00000000000E+00  0.35031890549E+03  0.35031890549E+03  0.00000000000E+00 0. -1.
         -2   -1    0    0    0  501 -0.00000000000E+00 -0.00000000000E+00 -0.25061564482E+03  0.25061564482E+03  0.00000000000E+00 0.  1.
         25    2    1    2    0    0  0.27463166705E+03 -0.13829670445E+02  0.35242458546E+02  0.30414547893E+03  0.12509448085E+03 0.  0.
          5    1    3    3  502    0  0.20802857462E+03  0.13389785691E+02  0.75309840587E+02  0.22168495372E+03  0.41800000000E+01 0. -1.
         -5    1    3    3    0  502  0.66603092431E+02 -0.27219456136E+02 -0.40067382041E+02  0.82460525207E+02  0.41800000000E+01 0. -1.
        -11    1    1    2    0    0 -0.11514769344E+03 -0.27270142971E+02  0.58458588238E+02  0.13198506938E+03  0.00000000000E+00 0. -1.
         11    1    1    2    0    0 -0.15948397361E+03  0.41099813416E+02  0.60022138788E+01  0.16480400199E+03  0.00000000000E+00 0.  1.
</event>
<event>
 7    1  0.2686828E-009  0.7407764E+02  0.7561462E-02  0.1346751E+00
         -1   -1    0    0    0  501 -0.00000000000E+00  0.00000000000E+00  0.34120836565E+02  0.34120836565E+02  0.00000000000E+00 0.  1.
          1   -1    0    0  501    0  0.00000000000E+00 -0.00000000000E+00 -0.35455931151E+03  0.35455931151E+03  0.00000000000E+00 0. -1.
         25    2    1    2    0    0 -0.15685477332E+02 -0.51264692925E+02 -0.14946172665E+03  0.20212962198E+03  0.12507387181E+03 0.  0.
          5    1    3    3  502    0  0.18164795262E+02 -0.61750191330E+01  0.17222290303E+02  0.26118390676E+02  0.41800000000E+01 0.  1.
         -5    1    3    3    0  502 -0.33850272594E+02 -0.45089673792E+02 -0.16668401695E+03  0.17601123130E+03  0.41800000000E+01 0.  1.
        -11    1    1    2    0    0  0.13474873863E+02 -0.59467393250E+01 -0.58684099251E+02  0.60504210095E+02  0.00000000000E+00 0. -1.
         11    1    1    2    0    0  0.22106034686E+01  0.57211432250E+02 -0.11229264904E+03  0.12604631600E+03  0.00000000000E+00 0.  1.
</event>
<event>
 7    1  0.2686828E-009  0.1375317E+03  0.7561462E-02  0.1216689E+00
         -2   -1    0    0    0  501 -0.00000000000E+00  0.00000000000E+00  0.15442528992E+02  0.15442528992E+02  0.00000000000E+00 0.  1.
          2   -1    0    0  501    0  0.00000000000E+00 -0.00000000000E+00 -0.12598457389E+04  0.12598457389E+04  0.00000000000E+00 0. -1.
         25    2    1    2    0    0  0.60220546991E+01  0.87552527122E+02 -0.65072554081E+03  0.66842752809E+03  0.12509964307E+03 0.  0.
          5    1    3    3  502    0 -0.82479494212E+00 -0.31493678245E+02 -0.18201245647E+03  0.18476617322E+03  0.41800000000E+01 0.  1.
         -5    1    3    3    0  502  0.68468496412E+01  0.11904620537E+03 -0.46871308434E+03  0.48366135487E+03  0.41800000000E+01 0.  1.
        -11    1    1    2    0    0  0.36032632231E+02 -0.12878679525E+02 -0.13868450159E+03  0.14386661167E+03  0.00000000000E+00 0.  1.
         11    1    1    2    0    0 -0.42054686930E+02 -0.74673847597E+02 -0.45499316746E+03  0.46299412809E+03  0.00000000000E+00 0. -1.
</event>
<event>
 7    1  0.2686828E-009  0.2411165E+03  0.7561462E-02  0.1119051E+00
         -1   -1    0    0    0  501 -0.00000000000E+00  0.00000000000E+00  0.51697737899E+02  0.51697737899E+02  0.00000000000E+00 0.  1.
          1   -1    0    0  501    0  0.00000000000E+00 -0.00000000000E+00 -0.12420864609E+04  0.12420864609E+04  0.00000000000E+00 0. -1.
         25    2    1    2    0    0 -0.96334105119E+02 -0.19832984143E+03 -0.74750260881E+03  0.78931758708E+03  0.12508843780E+03 0.  0.
          5    1    3    3  502    0 -0.52689140950E+02 -0.20187640514E+03 -0.59150029288E+03  0.62723225156E+03  0.41800000000E+01 0. -1.
         -5    1    3    3    0  502 -0.43644964169E+02  0.35465637027E+01 -0.15600231594E+03  0.16208533552E+03  0.41800000000E+01 0. -1.
        -11    1    1    2    0    0  0.48218053493E+02  0.16269389714E+03 -0.24728871693E+03  0.29990997711E+03  0.00000000000E+00 0.  1.
         11    1    1    2    0    0  0.48116051626E+02  0.35635944292E+02 -0.19559739726E+03  0.20455663461E+03  0.00000000000E+00 0. -1.
</event>
<event>
 7    1  0.2686828E-009  0.1075581E+03  0.7561462E-02  0.1265160E+00
         -1   -1    0    0    0  501 -0.00000000000E+00  0.00000000000E+00  0.21493999578E+03  0.21493999578E+03  0.00000000000E+00 0.  1.
          1   -1    0    0  501    0  0.00000000000E+00 -0.00000000000E+00 -0.82215492943E+02  0.82215492943E+02  0.00000000000E+00 0. -1.
         25    2    1    2    0    0 -0.14613961361E+02 -0.39684942825E+02  0.10014465261E+02  0.13242237238E+03  0.12508769979E+03 0.  0.
          5    1    3    3  502    0 -0.30148793819E+02  0.25074969591E+02 -0.34345010032E+02  0.52294894425E+02  0.41800000000E+01 0.  1.
         -5    1    3    3    0  502  0.15534832458E+02 -0.64759912417E+02  0.44359475293E+02  0.80127477959E+02  0.41800000000E+01 0.  1.
        -11    1    1    2    0    0  0.17613421550E+02 -0.32361100874E+02  0.31586849908E+02  0.48530429172E+02  0.00000000000E+00 0. -1.
         11    1    1    2    0    0 -0.29994601890E+01  0.72046043700E+02  0.91123187666E+02  0.11620268717E+03  0.00000000000E+00 0.  1.
</event>
<event>
 7    1  0.2686828E-009  0.1342812E+03  0.7561462E-02  0.1221238E+00
          1   -1    0    0  501    0  0.00000000000E+00  0.00000000000E+00  0.16611357162E+02  0.16611357162E+02  0.00000000000E+00 0. -1.
         -1   -1    0    0    0  501 -0.00000000000E+00 -0.00000000000E+00 -0.11645084213E+04  0.11645084213E+04  0.00000000000E+00 0.  1.
         25    2    1    2    0    0  0.54526993661E+02  0.64830211631E+02 -0.57696010306E+03  0.59641142937E+03  0.12508990041E+03 0.  0.
          5    1    3    3  502    0  0.46522685357E+02 -0.27570418883E+02 -0.15086250382E+03  0.16031673559E+03  0.41800000000E+01 0. -1.
         -5    1    3    3    0  502  0.80043083044E+01  0.92400630514E+02 -0.42609759924E+03  0.43609469379E+03  0.41800000000E+01 0. -1.
        -11    1    1    2    0    0  0.21190021268E+02 -0.33281876894E+02 -0.11849840676E+03  0.12489424620E+03  0.00000000000E+00 0. -1.
         11    1    1    2    0    0 -0.75717014929E+02 -0.31548334737E+02 -0.45243855427E+03  0.45981410284E+03  0.00000000000E+00 0.  1.
</event>
<event>
 7    1  0.2686828E-009  0.2574676E+03  0.7561462E-02  0.1108674E+00
         -2   -1    0    0    0  501 -0.00000000000E+00  0.00000000000E+00  0.19487203398E+03  0.19487203398E+03  0.00000000000E+00 0.  1.
          2   -1    0    0  501    0  0.00000000000E+00 -0.00000000000E+00 -0.38961506255E+03  0.38961506255E+03  0.00000000000E+00 0. -1.
         25    2    1    2    0    0  0.14343760504E+03 -0.19490573283E+03 -0.20973896922E+02  0.27322401461E+03  0.12509542988E+03 0.  0.
          5    1    3    3  502    0  0.15144528118E+03 -0.20744933807E+03 -0.18262048425E+02  0.25753033970E+03  0.41800000000E+01 0. -1.
         -5    1    3    3    0  502 -0.80076761452E+01  0.12543605238E+02 -0.27118484975E+01  0.15693674901E+02  0.41800000000E+01 0. -1.
        -11    1    1    2    0    0 -0.12992648389E+02  0.10439232827E+02  0.10516089337E+02  0.19707222766E+02  0.00000000000E+00 0.  1.
         11    1    1    2    0    0 -0.13044495665E+03  0.18446650000E+03 -0.18428522098E+03  0.29155585916E+03  0.00000000000E+00 0. -1.
</event>
<event>
 7    1  0.2686828E-009  0.2381388E+03  0.7561462E-02  0.1121039E+00
          1   -1    0    0  501    0  0.00000000000E+00  0.00000000000E+00  0.77478310218E+02  0.77478310218E+02  0.00000000000E+00 0. -1.
         -1   -1    0    0    0  501 -0.00000000000E+00 -0.00000000000E+00 -0.10633553994E+04  0.10633553994E+04  0.00000000000E+00 0.  1.
         25    2    1    2    0    0  0.21444518971E+03 -0.61459286591E+02 -0.78809319631E+03  0.82855551999E+03  0.12509748334E+03 0.  0.
          5    1    3    3  502    0  0.62409191175E+02 -0.77343495346E+02 -0.37832318305E+03  0.39118132195E+03  0.41800000000E+01 0.  1.
         -5    1    3    3    0  502  0.15203599853E+03  0.15884208754E+02 -0.40977001327E+03  0.43737419804E+03  0.41800000000E+01 0.  1.
        -11    1    1    2    0    0 -0.16672970130E+03  0.39417215345E+02 -0.92734304523E+02  0.19481314482E+03  0.00000000000E+00 0. -1.
         11    1    1    2    0    0 -0.47715488406E+02  0.22042071246E+02 -0.10504958836E+03  0.11746504482E+03  0.00000000000E+00 0.  1.
</event>
<event>
 7    1  0.2686828E-009  0.1217982E+03  0.7561462E-02  0.1240160E+00
          2   -1    0    0  501    0  0.00000000000E+00  0.00000000000E+00  0.66358204397E+02  0.66358204397E+02  0.00000000000E+00 0. -1.
         -2   -1    0    0    0  501 -0.00000000000E+00 -0.00000000000E+00 -0.31328442087E+03  0.31328442087E+03  0.00000000000E+00 0.  1.
         25    2    1    2    0    0 -0.90305865751E+02 -0.37039138623E+02 -0.14887185046E+03  0.21757186178E+03  0.12509052722E+03 0.  0.
          5    1    3    3  502    0 -0.94561313124E+02  0.12879657444E+02 -0.52814787076E+02  0.10915402718E+03  0.41800000000E+01 0. -1.
         -5    1    3    3    0  502  0.42554473731E+01 -0.49918796067E+02 -0.96057063386E+02  0.10841783460E+03  0.41800000000E+01 0. -1.
        -11    1    1    2    0    0  0.59567830170E+02  0.27525916261E+02 -0.75938277336E+01  0.66058070490E+02  0.00000000000E+00 0.  1.
         11    1    1    2    0    0  0.30738035581E+02  0.95132223620E+01 -0.90460538283E+02  0.96012693002E+02  0.00000000000E+00 0. -1.
</event>
<event>
 7    1  0.2742446E-009  0.9725954E+02  0.7561462E-02  0.1286167E+00
          2   -1    0    0  501    0  0.00000000000E+00  0.00000000000E+00  0.33140293808E+03  0.33140293808E+03  0.00000000000E+00 0. -1.
         -2   -1    0    0    0  501 -0.00000000000E+00 -0.00000000000E+00 -0.43805522433E+02  0.43805522433E+02  0.00000000000E+00 0.  1.
         25    2    1    2    0    0  0.17803209494E+02 -0.48541448066E+02  0.17864423064E+03  0.22413332723E+03  0.12509500703E+03 0.  0.
          5    1    3    3  502    0 -0.21466270386E+02  0.13307761483E+02 -0.52548365258E+01  0.26133943195E+02  0.41800000000E+01 0.  1.
         -5    1    3    3    0  502  0.39269479880E+02 -0.61849209550E+02  0.18389906717E+03  0.19799938403E+03  0.41800000000E+01 0.  1.
        -11    1    1    2    0    0 -0.81790783493E+01 -0.22451415309E+02  0.59230494953E+02  0.63868731821E+02  0.00000000000E+00 0. -1.
         11    1    1    2    0    0 -0.96241311443E+01  0.70992863375E+02  0.49722690048E+02  0.87206401463E+02  0.00000000000E+00 0.  1.
</event>
<event>
 7    1  0.2686828E-009  0.1906923E+03  0.7561462E-02  0.1157838E+00
         -3   -1    0    0    0  501 -0.00000000000E+00  0.00000000000E+00  0.68883423006E+03  0.68883423006E+03  0.00000000000E+00 0.  1.
          3   -1    0    0  501    0  0.00000000000E+00 -0.00000000000E+00 -0.78671850587E+02  0.78671850587E+02  0.00000000000E+00 0. -1.
         25    2    1    2    0    0 -0.89037978402E+02  0.15150147245E+03  0.49468991087E+03  0.53967043423E+03  0.12508242047E+03 0.  0.
          5    1    3    3  502    0  0.39205400722E+01  0.41925017337E+02  0.26745096493E+03  0.27077771096E+03  0.41800000000E+01 0. -1.
         -5    1    3    3    0  502 -0.92958518474E+02  0.10957645512E+03  0.22723894594E+03  0.26889272327E+03  0.41800000000E+01 0. -1.
        -11    1    1    2    0    0 -0.16123861158E+02 -0.33974404601E+02  0.13135690884E+02  0.39834475541E+02  0.00000000000E+00 0. -1.
         11    1    1    2    0    0  0.10516183956E+03 -0.11752706785E+03  0.10233677772E+03  0.18800117088E+03  0.00000000000E+00 0.  1.
</event>
<event>
 7    1  0.2686828E-009  0.2855205E+03  0.7561462E-02  0.1092711E+00
         -2   -1    0    0    0  501 -0.00000000000E+00  0.00000000000E+00  0.60171061666E+02  0.60171061666E+02  0.00000000000E+00 0.  1.
          2   -1    0    0  501    0  0.00000000000E+00 -0.00000000000E+00 -0.18554555321E+04  0.18554555321E+04  0.00000000000E+00 0. -1.
         25    2    1    2    0    0 -0.19083970512E+03 -0.20435394302E+03 -0.13328512657E+04  0.13675965050E+04  0.12508947614E+03 0.  0.
          5    1    3    3  502    0 -0.54996851825E+02 -0.30581890115E+02 -0.57026774819E+03  0.57374444027E+03  0.41800000000E+01 0.  1.
         -5    1    3    3    0  502 -0.13584285330E+03 -0.17377205291E+03 -0.76258351748E+03  0.79385206475E+03  0.41800000000E+01 0.  1.
        -11    1    1    2    0    0  0.12782403629E+02  0.50357306505E+02 -0.44732875417E+02  0.68558575714E+02  0.00000000000E+00 0.  1.
         11    1    1    2    0    0  0.17805730149E+03  0.15399663652E+03 -0.41770032929E+03  0.47947151298E+03  0.00000000000E+00 0. -1.
</event>
<event>
 7    1  0.2686828E-009  0.9178380E+02  0.7561462E-02  0.1298589E+00
          2   -1    0    0  501    0  0.00000000000E+00  0.00000000000E+00  0.11490216157E+04  0.11490216157E+04  0.00000000000E+00 0. -1.
         -2   -1    0    0    0  501 -0.00000000000E+00 -0.00000000000E+00 -0.13337529346E+02  0.13337529346E+02  0.00000000000E+00 0.  1.
         25    2    1    2    0    0  0.32910314107E+02 -0.17320355780E+02  0.84875472740E+03  0.85872902849E+03  0.12509146088E+03 0.  0.
          5    1    3    3  502    0  0.16702704908E+02 -0.55838497025E+02  0.19351154637E+03  0.20214130968E+03  0.41800000000E+01 0. -1.
         -5    1    3    3    0  502  0.16207609198E+02  0.38518141245E+02  0.65524318103E+03  0.65658771880E+03  0.41800000000E+01 0. -1.
        -11    1    1    2    0    0 -0.25453868867E+01 -0.28256788870E+02  0.31489277432E+02  0.42385135423E+02  0.00000000000E+00 0.  1.
         11    1    1    2    0    0 -0.30364927220E+02  0.45577144650E+02  0.25544008150E+03  0.26124498111E+03  0.00000000000E+00 0. -1.
</event>
<event>
 7    1  0.2686828E-009  0.1027148E+03  0.7561462E-02  0.1274688E+00
         -1   -1    0    0    0  501 -0.00000000000E+00  0.00000000000E+00  0.93121043327E+02  0.93121043327E+02  0.00000000000E+00 0.  1.
          1   -1    0    0  501    0  0.00000000000E+00 -0.00000000000E+00 -0.19357322104E+03  0.19357322104E+03  0.00000000000E+00 0. -1.
         25    2    1    2    0    0  0.56111061707E+02 -0.46150323096E+02 -0.84637855516E+02  0.16758731831E+03  0.12507453420E+03 0.  0.
          5    1    3    3  502    0  0.30109021768E+02 -0.76934212920E+02 -0.10877672471E+02  0.83433940743E+02  0.41800000000E+01 0.  1.
         -5    1    3    3    0  502  0.26002039939E+02  0.30783889824E+02 -0.73760183045E+02  0.84153377571E+02  0.41800000000E+01 0.  1.
        -11    1    1    2    0    0 -0.56574270685E+02  0.26384041949E+02 -0.49755308032E+02  0.79827040847E+02  0.00000000000E+00 0. -1.
         11    1    1    2    0    0  0.46320897882E+00  0.19766281147E+02  0.33940985839E+02  0.39279905202E+02  0.00000000000E+00 0.  1.
</event>
<event>
 7    1  0.2686828E-009  0.9437352E+02  0.7561462E-02  0.1292593E+00
          1   -1    0    0  501    0  0.00000000000E+00  0.00000000000E+00  0.11745257443E+03  0.11745257443E+03  0.00000000000E+00 0. -1.
         -1   -1    0    0    0  501 -0.00000000000E+00 -0.00000000000E+00 -0.13813192127E+03  0.13813192127E+03  0.00000000000E+00 0.  1.
         25    2    1    2    0    0  0.27483020433E+02 -0.28332348310E+02 -0.65651541781E+02  0.14668197855E+03  0.12508972588E+03 0.  0.
          5    1    3    3  502    0 -0.38572818931E+02 -0.48370513024E+02 -0.30306019673E+02  0.69018085448E+02  0.41800000000E+01 0. -1.
         -5    1    3    3    0  502  0.66055839364E+02  0.20038164714E+02 -0.35345522108E+02  0.77663893105E+02  0.41800000000E+01 0. -1.
        -11    1    1    2    0    0 -0.10476755574E+02  0.37029300338E+02 -0.18442299384E+02  0.42673761230E+02  0.00000000000E+00 0.  1.
         11    1    1    2    0    0 -0.17006264860E+02 -0.86969520284E+01  0.63414494328E+02  0.66228755914E+02  0.00000000000E+00 0. -1.
</event>
<event>
 7    1  0.2686828E-009  0.1730029E+03  0.7561462E-02  0.1174752E+00
          2   -1    0    0  501    0  0.00000000000E+00  0.00000000000E+00  0.17572856018E+04  0.17572856018E+04  0.00000000000E+00 0. -1.
         -2   -1    0    0    0  501 -0.00000000000E+00 -0.00000000000E+00 -0.27527115931E+02  0.27527115931E+02  0.00000000000E+00 0.  1.
         25    2    1    2    0    0  0.14066857293E+03 -0.44937279529E+02  0.13503032853E+04  0.13641018030E+04  0.12509100760E+03 0.  0.
          5    1    3    3  502    0  0.14562926359E+03 -0.29060951278E+02  0.80901552869E+03  0.82254241189E+03  0.41800000000E+01 0. -1.
         -5    1    3    3    0  502 -0.49606906590E+01 -0.15876328251E+02  0.54128775665E+03  0.54155939116E+03  0.41800000000E+01 0. -1.
        -11    1    1    2    0    0 -0.44287425745E+02 -0.33904503184E+02  0.14257183010E+03  0.15309349481E+03  0.00000000000E+00 0.  1.
         11    1    1    2    0    0 -0.96381147184E+02  0.78841782713E+02  0.23688337045E+03  0.26761741989E+03  0.00000000000E+00 0. -1.
</event>
<event>
 7    1  0.2686828E-009  0.1334067E+03  0.7561462E-02  0.1222487E+00
          4   -1    0    0  501    0  0.00000000000E+00  0.00000000000E+00  0.52015378638E+02  0.52015378638E+02  0.00000000000E+00 0. -1.
         -4   -1    0    0    0  501 -0.00000000000E+00 -0.00000000000E+00 -0.41653280708E+03  0.41653280708E+03  0.00000000000E+00 0.  1.
         25    2    1    2    0    0  0.47842387347E+02  0.74915441999E+02 -0.27030965753E+03  0.31082566303E+03  0.12507623423E+03 0.  0.
          5    1    3    3  502    0  0.28844957822E+02  0.10275718865E+03 -0.24844657082E+03  0.27043343426E+03  0.41800000000E+01 0.  1.
         -5    1    3    3    0  502  0.18997429526E+02 -0.27841746650E+02 -0.21863086705E+02  0.40392228774E+02  0.41800000000E+01 0.  1.
        -11    1    1    2    0    0 -0.66879916891E+02 -0.81920009200E+02 -0.73875324539E+02  0.12900145257E+03  0.00000000000E+00 0. -1.
         11    1    1    2    0    0  0.19037529543E+02  0.70045672005E+01 -0.20332446377E+02  0.28721070114E+02  0.00000000000E+00 0.  1.
</event>
<event>
 7    1  0.2686828E-009  0.1144223E+03  0.7561462E-02  0.1252593E+00
         -2   -1    0    0    0  501 -0.00000000000E+00  0.00000000000E+00  0.24623674125E+02  0.24623674125E+02  0.00000000000E+00 0.  1.
          2   -1    0    0  501    0  0.00000000000E+00 -0.00000000000E+00 -0.11599008763E+04  0.11599008763E+04  0.00000000000E+00 0. -1.
         25    2    1    2    0    0 -0.98551792230E+02 -0.35425738956E+02 -0.86882567227E+03  0.88401038783E+03  0.12509547663E+03 0.  0.
          5    1    3    3  502    0 -0.59116500855E+02 -0.53715857442E+02 -0.22661179422E+03  0.24031340306E+03  0.41800000000E+01 0. -1.
         -5    1    3    3    0  502 -0.39435291375E+02  0.18290118486E+02 -0.64221387805E+03  0.64369698477E+03  0.41800000000E+01 0. -1.
        -11    1    1    2    0    0  0.27976568271E+02  0.54062709372E+01 -0.61513757124E+01  0.29150567076E+02  0.00000000000E+00 0.  1.
         11    1    1    2    0    0  0.70575223959E+02  0.30019468019E+02 -0.26030015418E+03  0.27136359550E+03  0.00000000000E+00 0. -1.
</event>
<event>
 7    1  0.2686828E-009  0.1493672E+03  0.7561462E-02  0.1201253E+00
         -2   -1    0    0    0  501 -0.00000000000E+00  0.00000000000E+00  0.26075273938E+02  0.26075273938E+02  0.00000000000E+00 0.  1.
          2   -1    0    0  501    0  0.00000000000E+00 -0.00000000000E+00 -0.10438284695E+04  0.10438284695E+04  0.00000000000E+00 0. -1.
         25    2    1    2    0    0  0.97926701202E+02 -0.62548107569E+02 -0.66083261933E+03  0.68253074663E+03  0.12508622930E+03 0.  0.
          5    1    3    3  502    0  0.11450248303E+03 -0.30754307719E+02 -0.34892967716E+03  0.36854584256E+03  0.41800000000E+01 0. -1.
         -5    1    3    3    0  502 -0.16575781832E+02 -0.31793799850E+02 -0.31190294217E+03  0.31398490407E+03  0.41800000000E+01 0. -1.
        -11    1    1    2    0    0 -0.10414181261E+03  0.76172932777E+02 -0.27088940553E+03  0.30004816755E+03  0.00000000000E+00 0.  1.
         11    1    1    2    0    0  0.62151114095E+01 -0.13624825208E+02 -0.86031170667E+02  0.87324829219E+02  0.00000000000E+00 0. -1.
</event>
<event>
 7    1  0.2686828E-009  0.1034176E+03  0.7561462E-02  0.1273269E+00
          1   -1    0    0  501    0  0.00000000000E+00  0.00000000000E+00  0.19701429079E+02  0.19701429079E+02  0.00000000000E+00 0. -1.
         -1   -1    0    0    0  501 -0.00000000000E+00 -0.00000000000E+00 -0.75735828707E+03  0.75735828707E+03  0.00000000000E+00 0.  1.
         25    2    1    2    0    0  0.46016327006E+02  0.38286665391E+01 -0.31574858779E+03  0.34275072471E+03  0.12509487422E+03 0.  0.
          5    1    3    3  502    0 -0.40504445147E+01 -0.40148925092E+02 -0.23260191080E+03  0.23611324316E+03  0.41800000000E+01 0. -1.
         -5    1    3    3    0  502  0.50066771521E+02  0.43977591632E+02 -0.83146676991E+02  0.10663748155E+03  0.41800000000E+01 0. -1.
        -11    1    1    2    0    0 -0.46334231962E+02 -0.41273138188E+02 -0.31443353274E+03  0.32049770591E+03  0.00000000000E+00 0.  1.
         11    1    1    2    0    0  0.31790495530E+00  0.37444471649E+02 -0.10747473746E+03  0.11381128553E+03  0.00000000000E+00 0. -1.
</event>
<event>
 7    1  0.2686828E-009  0.5397704E+02  0.7561462E-02  0.1424999E+00
         -2   -1    0    0    0  501 -0.00000000000E+00  0.00000000000E+00  0.15184965150E+03  0.15184965150E+03  0.00000000000E+00 0.  1.
          2   -1    0    0  501    0  0.00000000000E+00 -0.00000000000E+00 -0.89675301708E+02  0.89675301708E+02  0.00000000000E+00 0. -1.
         25    2    1    2    0    0  0.22266929966E+02 -0.33066911707E+02  0.19391723485E+02  0.13271124375E+03  0.12508796288E+03 0.  0.
          5    1    3    3  502    0 -0.47611837971E+00 -0.93175377425E+00 -0.51411128537E+02  0.51591388732E+02  0.41800000000E+01 0.  1.
         -5    1    3    3    0  502  0.22743048346E+02 -0.32135157933E+02  0.70802852022E+02  0.81119855017E+02  0.41800000000E+01 0.  1.
        -11    1    1    2    0    0 -0.31546731232E+02  0.41079166243E+02  0.65196230541E+02  0.83266095306E+02  0.00000000000E+00 0.  1.
         11    1    1    2    0    0  0.92798012658E+01 -0.80122545363E+01 -0.22413604233E+02  0.25547614155E+02  0.00000000000E+00 0. -1.
</event>
<event>
 7    1  0.2686828E-009  0.1131390E+03  0.7561462E-02  0.1254865E+00
          1   -1    0    0  501    0  0.00000000000E+00  0.00000000000E+00  0.94364550431E+02  0.94364550431E+02  0.00000000000E+00 0. -1.
         -1   -1    0    0    0  501 -0.00000000000E+00 -0.00000000000E+00 -0.14332710009E+03  0.14332710009E+03  0.00000000000E+00 0.  1.
         25    2    1    2    0    0  0.23951002647E+02 -0.31415385393E+02 -0.32010854115E+02  0.13502833415E+03  0.12508948507E+03 0.  0.
          5    1    3    3  502    0 -0.91228651728E+01  0.42854503750E+02  0.73171765164E+01  0.44617806230E+02  0.41800000000E+01 0. -1.
         -5    1    3    3    0  502  0.33073867820E+02 -0.74269889143E+02 -0.39328030631E+02  0.90410527923E+02  0.41800000000E+01 0. -1.
        -11    1    1    2    0    0 -0.30192821351E+02 -0.27961442050E+02 -0.11402072890E+02  0.42701943385E+02  0.00000000000E+00 0.  1.
         11    1    1    2    0    0  0.62418187037E+01  0.59376827444E+02 -0.55496226494E+01  0.59961372979E+02  0.00000000000E+00 0. -1.
</event>
<event>
 7    1  0.2686828E-009  0.1005004E+03  0.7561462E-02  0.1279247E+00
         -3   -1    0    0    0  501 -0.00000000000E+00  0.00000000000E+00  0.65889225638E+02  0.65889225638E+02  0.00000000000E+00 0.  1.
          3   -1    0    0  501    0  0.00000000000E+00 -0.00000000000E+00 -0.24416744101E+03  0.24416744101E+03  0.00000000000E+00 0. -1.
         25    2    1    2    0    0 -0.24004919812E+02 -0.61113709921E+02 -0.11889562833E+03  0.18464647079E+03  0.12508807706E+03 0.  0.
          5    1    3    3  502    0 -0.20181106801E+02  0.80879304057E+01 -0.11279338833E+03  0.11494569387E+03  0.41800000000E+01 0. -1.
         -5    1    3    3    0  502 -0.38238130111E+01 -0.69201640326E+02 -0.61022400049E+01  0.69700776917E+02  0.41800000000E+01 0. -1.
        -11    1    1    2    0    0 -0.33121317117E+02  0.16857791059E+02 -0.28453692029E+02  0.46806189303E+02  0.00000000000E+00 0.  1.
         11    1    1    2    0    0  0.57126236929E+02  0.44255918862E+02 -0.30928895014E+02  0.78604006557E+02  0.00000000000E+00 0. -1.
</event>
<event>
 7    1  0.2686828E-009  0.1235871E+03  0.7561462E-02  0.1237294E+00
         -2   -1    0    0    0  501 -0.00000000000E+00  0.00000000000E+00  0.31962141154E+02  0.31962141154E+02  0.00000000000E+00 0.  1.
          2   -1    0    0  501    0  0.00000000000E+00 -0.00000000000E+00 -0.55011630379E+03  0.55011630379E+03  0.00000000000E+00 0. -1.
         25    2    1    2    0    0  0.63755435225E+02 -0.41081039501E+02 -0.27939890123E+03  0.31537896619E+03  0.12509092285E+03 0.  0.
          5    1    3    3  502    0  0.94439597115E+02 -0.26812613642E+01 -0.20917550699E+03  0.22956021386E+03  0.41800000000E+01 0.  1.
         -5    1    3    3    0  502 -0.30684161890E+02 -0.38399778137E+02 -0.70223394244E+02  0.85818752327E+02  0.41800000000E+01 0.  1.
        -11    1    1    2    0    0 -0.25989435534E+02 -0.19079672029E+02 -0.14789662755E+03  0.15137006668E+03  0.00000000000E+00 0. -1.
         11    1    1    2    0    0 -0.37765999691E+02  0.60160711529E+02 -0.90858633851E+02  0.11532941208E+03  0.00000000000E+00 0.  1.
</event>
<event>
 7    1  0.2686828E-009  0.1509427E+03  0.7561462E-02  0.1199319E+00
          2   -1    0    0  501    0  0.00000000000E+00  0.00000000000E+00  0.13279851311E+04  0.13279851311E+04  0.00000000000E+00 0. -1.
         -2   -1    0    0    0  501 -0.00000000000E+00 -0.00000000000E+00 -0.20756863010E+02  0.20756863010E+02  0.00000000000E+00 0.  1.
         25    2    1    2    0    0  0.69485810372E+02  0.94971478910E+02  0.96160326963E+03  0.97682078813E+03  0.12510053677E+03 0.  0.
          5    1    3    3  502    0  0.25962668819E+01  0.97475901962E+02  0.69935593144E+03  0.70613347415E+03  0.41800000000E+01 0.  1.
         -5    1    3    3    0  502  0.66889543490E+02 -0.25044230520E+01  0.26224733819E+03  0.27068731398E+03  0.41800000000E+01 0.  1.
        -11    1    1    2    0    0 -0.23868692596E+02 -0.87867313085E+02  0.23729504984E+03  0.25416396258E+03  0.00000000000E+00 0.  1.
         11    1    1    2    0    0 -0.45617117776E+02 -0.71041658253E+01  0.10832994860E+03  0.11775724338E+03  0.00000000000E+00 0. -1.
</event>
<event>
 7    1  0.2686828E-009  0.7989279E+02  0.7561462E-02  0.1329356E+00
          1   -1    0    0  501    0  0.00000000000E+00  0.00000000000E+00  0.19164108732E+03  0.19164108732E+03  0.00000000000E+00 0. -1.
         -1   -1    0    0    0  501 -0.00000000000E+00 -0.00000000000E+00 -0.10178168587E+03  0.10178168587E+03  0.00000000000E+00 0.  1.
         25    2    1    2    0    0 -0.62972396235E+02 -0.27985141209E+02  0.10517742613E+03  0.17736447667E+03  0.12508867176E+03 0.  0.
          5    1    3    3  502    0 -0.27288187528E+02 -0.40587135419E+02  0.12510537525E+03  0.13439043142E+03  0.41800000000E+01 0.  1.
         -5    1    3    3    0  502 -0.35684208707E+02  0.12601994210E+02 -0.19927949126E+02  0.42974045254E+02  0.41800000000E+01 0.  1.
        -11    1    1    2    0    0  0.37247381842E+02  0.28492276110E+02  0.35687593885E+02  0.58930311465E+02  0.00000000000E+00 0. -1.
         11    1    1    2    0    0  0.25725014393E+02 -0.50713490148E+00 -0.51005618560E+02  0.57127985051E+02  0.00000000000E+00 0.  1.
</event>
<event>
 7    1  0.2686828E-009  0.1181751E+03  0.7561462E-02  0.1246138E+00
         -2   -1    0    0    0  501 -0.00000000000E+00  0.00000000000E+00  0.16269015409E+03  0.16269015409E+03  0.00000000000E+00 0.  1.
          2   -1    0    0  501    0  0.00000000000E+00 -0.00000000000E+00 -0.10278139299E+03  0.10278139299E+03  0.00000000000E+00 0. -1.
         25    2    1    2    0    0  0.25129271919E+02  0.42083664037E+02 -0.15729527159E+02  0.13526619817E+03  0.12508801404E+03 0.  0.
          5    1    3    3  502    0 -0.20029375605E+02  0.74293764845E+02 -0.19575383796E+02  0.79507279118E+02  0.41800000000E+01 0. -1.
         -5    1    3    3    0  502  0.45158647524E+02 -0.32210100808E+02  0.38458566375E+01  0.55758919049E+02  0.41800000000E+01 0. -1.
        -11    1    1    2    0    0 -0.12436523750E+02  0.28948608925E+02  0.36136621191E+02  0.47943137912E+02  0.00000000000E+00 0.  1.
         11    1    1    2    0    0 -0.12692748169E+02 -0.71032272962E+02  0.39501667059E+02  0.82262211000E+02  0.00000000000E+00 0. -1.
</event>
<event>
 7    1  0.2686828E-009  0.1531660E+03  0.7561462E-02  0.1196636E+00
         -2   -1    0    0    0  501 -0.00000000000E+00  0.00000000000E+00  0.87084679889E+02  0.87084679889E+02  0.00000000000E+00 0.  1.
          2   -1    0    0  501    0  0.00000000000E+00 -0.00000000000E+00 -0.38350794638E+03  0.38350794638E+03  0.00000000000E+00 0. -1.
         25    2    1    2    0    0  0.91457858195E+02 -0.66136409159E+02 -0.27996065172E+03  0.32674667458E+03  0.12508740303E+03 0.  0.
          5    1    3    3  502    0 -0.24817524987E+02 -0.37074430773E+02 -0.10962041412E+03  0.11842521081E+03  0.41800000000E+01 0. -1.
         -5    1    3    3    0  502  0.11627538318E+03 -0.29061978386E+02 -0.17034023760E+03  0.20832146377E+03  0.41800000000E+01 0. -1.
        -11    1    1    2    0    0  0.12430671082E+02  0.28514906305E+02  0.43586844275E+01  0.31410501350E+02  0.00000000000E+00 0.  1.
         11    1    1    2    0    0 -0.10388852928E+03  0.37621502854E+02 -0.20821299197E+02  0.11243545034E+03  0.00000000000E+00 0. -1.
</event>
<event>
 7    1  0.2686828E-009  0.2156883E+03  0.7561462E-02  0.1137139E+00
          2   -1    0    0  501    0  0.00000000000E+00  0.00000000000E+00  0.21147597479E+04  0.21147597479E+04  0.00000000000E+00 0. -1.
         -2   -1    0    0    0  501 -0.00000000000E+00 -0.00000000000E+00 -0.24340660599E+02  0.24340660599E+02  0.00000000000E+00 0.  1.
         25    2    1    2    0    0 -0.19318799068E+03  0.21803016656E+02  0.13103880565E+04  0.13306249182E+04  0.12509533627E+03 0.  0.
          5    1    3    3  502    0  0.10241518134E+02 -0.14852366464E+02  0.22222102643E+03  0.22299134169E+03  0.41800000000E+01 0.  1.
         -5    1    3    3    0  502 -0.20342950881E+03  0.36655383120E+02  0.10881670301E+04  0.11076335765E+04  0.41800000000E+01 0.  1.
        -11    1    1    2    0    0  0.15131876893E+03 -0.45485004036E+02  0.67017227553E+03  0.68854711843E+03  0.00000000000E+00 0.  1.
         11    1    1    2    0    0  0.41869221752E+02  0.23681987380E+02  0.10985875526E+03  0.11992837181E+03  0.00000000000E+00 0. -1.
</event>
<event>
 7    1  0.2686828E-009  0.1285301E+03  0.7561462E-02  0.1229653E+00
          1   -1    0    0  501    0  0.00000000000E+00  0.00000000000E+00  0.94974116480E+02  0.94974116480E+02  0.00000000000E+00 0. -1.
         -1   -1    0    0    0  501 -0.00000000000E+00 -0.00000000000E+00 -0.40964787526E+03  0.40964787526E+03  0.00000000000E+00 0.  1.
         25    2    1    2    0    0  0.44548831583E+02  0.71372958382E+02 -0.34457327729E+03  0.37610660473E+03  0.12508691825E+03 0.  0.
          5    1    3    3  502    0  0.13413798392E+02  0.94346631616E+02 -0.15059428694E+03  0.17826196606E+03  0.41800000000E+01 0.  1.
         -5    1    3    3    0  502  0.31135033191E+02 -0.22973673234E+02 -0.19397899036E+03  0.19784463868E+03  0.41800000000E+01 0.  1.
        -11    1    1    2    0    0 -0.54280301630E+02 -0.37225800067E+01  0.25332617309E+02  0.60016249855E+02  0.00000000000E+00 0. -1.
         11    1    1    2    0    0  0.97314700473E+01 -0.67650378376E+02  0.45669012053E+01  0.68499137150E+02  0.00000000000E+00 0.  1.
</event>
<event>
 7    1  0.2686828E-009  0.9398488E+02  0.7561462E-02  0.1293479E+00
          4   -1    0    0  501    0  0.00000000000E+00  0.00000000000E+00  0.48538634803E+02  0.48538634803E+02  0.00000000000E+00 0. -1.
         -4   -1    0    0    0  501 -0.00000000000E+00 -0.00000000000E+00 -0.25300200064E+03  0.25300200064E+03  0.00000000000E+00 0.  1.
         25    2    1    2    0    0 -0.59197916555E+01  0.15055383631E+02 -0.10714677907E+03  0.16549752229E+03  0.12508912466E+03 0.  0.
          5    1    3    3  502    0  0.19075761003E+02  0.53809489083E+02 -0.10317226538E+02  0.58165826192E+02  0.41800000000E+01 0. -1.
         -5    1    3    3    0  502 -0.24995552658E+02 -0.38754105451E+02 -0.96829552537E+02  0.10733169609E+03  0.41800000000E+01 0. -1.
        -11    1    1    2    0    0  0.13916336196E+02 -0.48281296232E+02 -0.25140911182E+02  0.56185526553E+02  0.00000000000E+00 0.  1.
         11    1    1    2    0    0 -0.79965445410E+01  0.33225912601E+02 -0.72175675585E+02  0.79857586608E+02  0.00000000000E+00 0. -1.
</event>
<event>
 7    1  0.2686828E-009  0.1041985E+03  0.7561462E-02  0.1271707E+00
          1   -1    0    0  501    0  0.00000000000E+00  0.00000000000E+00  0.15813835170E+03  0.15813835170E+03  0.00000000000E+00 0. -1.
         -1   -1    0    0    0  501 -0.00000000000E+00 -0.00000000000E+00 -0.96267396269E+02  0.96267396269E+02  0.00000000000E+00 0.  1.
         25    2    1    2    0    0  0.42436028919E+02 -0.17029234543E+01  0.74269658915E+02  0.15155391007E+03  0.12509551920E+03 0.  0.
          5    1    3    3  502    0  0.65456063020E+02 -0.41355375020E+02  0.71431399979E+02  0.10542618523E+03  0.41800000000E+01 0. -1.
         -5    1    3    3    0  502 -0.23020034101E+02  0.39652451565E+02  0.28382589359E+01  0.46127724841E+02  0.41800000000E+01 0. -1.
        -11    1    1    2    0    0  0.19248312420E+02 -0.10518385189E+02 -0.30358896697E+02  0.37453925918E+02  0.00000000000E+00 0.  1.
         11    1    1    2    0    0 -0.61684341339E+02  0.12221308643E+02  0.17960193215E+02  0.65397911982E+02  0.00000000000E+00 0. -1.
</event>
<event>
 7    1  0.2686828E-009  0.1099408E+03  0.7561462E-02  0.1260680E+00
         -2   -1    0    0    0  501 -0.00000000000E+00  0.00000000000E+00  0.38379148408E+02  0.38379148408E+02  0.00000000000E+00 0. -1.
          2   -1    0    0  501    0  0.00000000000E+00 -0.00000000000E+00 -0.34626111649E+03  0.34626111649E+03  0.00000000000E+00 0.  1.
         25    2    1    2    0    0  0.57690746988E+00 -0.33790800218E+02 -0.20535379175E+03  0.24281483280E+03  0.12508681882E+03 0.  0.
          5    1    3    3  502    0 -0.14185761072E+01  0.47722725856E+02 -0.75669919462E+02  0.89570531051E+02  0.41800000000E+01 0.  1.
         -5    1    3    3    0  502  0.19954835770E+01 -0.81513526075E+02 -0.12968387229E+03  0.15324430175E+03  0.41800000000E+01 0.  1.
        -11    1    1    2    0    0  0.12309970100E+02  0.59922358420E+02 -0.40700018045E+02  0.73475954375E+02  0.00000000000E+00 0. -1.
         11    1    1    2    0    0 -0.12886877570E+02 -0.26131558201E+02 -0.61828158286E+02  0.68349477720E+02  0.00000000000E+00 0.  1.
</event>
<event>
 7    1  0.2686828E-009  0.1084548E+03  0.7561462E-02  0.1263458E+00
          1   -1    0    0  501    0  0.00000000000E+00  0.00000000000E+00  0.10936377922E+03  0.10936377922E+03  0.00000000000E+00 0. -1.
         -1   -1    0    0    0  501 -0.00000000000E+00 -0.00000000000E+00 -0.15906567520E+03  0.15906567520E+03  0.00000000000E+00 0.  1.
         25    2    1    2    0    0 -0.32974919717E+02 -0.70517563902E+02 -0.16509804250E+02  0.14825656419E+03  0.12508942018E+03 0.  0.
          5    1    3    3  502    0 -0.26149040041E+02 -0.99024372396E+02  0.16598978890E+02  0.10383928507E+03  0.41800000000E+01 0.  1.
         -5    1    3    3    0  502 -0.68258796755E+01  0.28506808494E+02 -0.33108783139E+02  0.44417279125E+02  0.41800000000E+01 0.  1.
        -11    1    1    2    0    0 -0.19383956140E+00  0.39131336564E+02  0.24823757640E+02  0.46341320853E+02  0.00000000000E+00 0. -1.
         11    1    1    2    0    0  0.33168759278E+02  0.31386227338E+02 -0.58015849365E+02  0.73831569373E+02  0.00000000000E+00 0.  1.
</event>
<event>
 7    1  0.2686828E-009  0.1394038E+03  0.7561462E-02  0.1214133E+00
          1   -1    0    0  501    0  0.00000000000E+00  0.00000000000E+00  0.51792437295E+03  0.51792437295E+03  0.00000000000E+00 0. -1.
         -1   -1    0    0    0  501 -0.00000000000E+00 -0.00000000000E+00 -0.53765189848E+02  0.53765189848E+02  0.00000000000E+00 0.  1.
         25    2    1    2    0    0 -0.73408169017E+02  0.96229821426E+02  0.18524577020E+03  0.25418765991E+03  0.12508570367E+03 0.  0.
          5    1    3    3  502    0 -0.46565315404E+02  0.11341226982E+03  0.85861030352E+02  0.14973396568E+03  0.41800000000E+01 0. -1.
         -5    1    3    3    0  502 -0.26842853613E+02 -0.17182448398E+02  0.99384739848E+02  0.10445369423E+03  0.41800000000E+01 0. -1.
        -11    1    1    2    0    0  0.27381634876E+02 -0.58079628281E+02  0.51353278753E+02  0.82220170204E+02  0.00000000000E+00 0.  1.
         11    1    1    2    0    0  0.46026534141E+02 -0.38150193145E+02  0.22756013415E+03  0.23528173269E+03  0.00000000000E+00 0. -1.
</event>
<event>
 7    1  0.2686828E-009  0.8189529E+02  0.7561462E-02  0.1323757E+00
          2   -1    0    0  501    0  0.00000000000E+00  0.00000000000E+00  0.53769395428E+03  0.53769395428E+03  0.00000000000E+00 0. -1.
         -2   -1    0    0    0  501 -0.00000000000E+00 -0.00000000000E+00 -0.37097365119E+02  0.37097365119E+02  0.00000000000E+00 0.  1.
         25    2    1    2    0    0  0.14239432384E+02  0.42128090313E+01  0.45608964454E+03  0.47316631865E+03  0.12509233412E+03 0.  0.
          5    1    3    3  502    0 -0.29333125402E+02  0.41132825237E+02  0.33960012288E+03  0.34336286552E+03  0.41800000000E+01 0.  1.
         -5    1    3    3    0  502  0.43572557785E+02 -0.36920016206E+02  0.11648952166E+03  0.12980345313E+03  0.41800000000E+01 0.  1.
        -11    1    1    2    0    0 -0.32160699410E+02  0.91978834425E+01 -0.16022481441E+02  0.37089507383E+02  0.00000000000E+00 0.  1.
         11    1    1    2    0    0  0.17921267026E+02 -0.13410692474E+02  0.60529426066E+02  0.64535493368E+02  0.00000000000E+00 0. -1.
</event>
<event>
 7    1  0.2686828E-009  0.2255749E+03  0.7561462E-02  0.1129794E+00
         -1   -1    0    0    0  501 -0.00000000000E+00  0.00000000000E+00  0.11430448417E+03  0.11430448417E+03  0.00000000000E+00 0.  1.
          1   -1    0    0  501    0  0.00000000000E+00 -0.00000000000E+00 -0.49248288589E+03  0.49248288589E+03  0.00000000000E+00 0. -1.
         25    2    1    2    0    0 -0.13629455754E+03  0.15326318495E+03 -0.13520517620E+03  0.27566885234E+03  0.12508823367E+03 0.  0.
          5    1    3    3  502    0 -0.56916953031E+02  0.18278160968E+01 -0.75194579158E+02  0.94417040776E+02  0.41800000000E+01 0.  1.
         -5    1    3    3    0  502 -0.79377604511E+02  0.15143536886E+03 -0.60010597043E+02  0.18125181157E+03  0.41800000000E+01 0.  1.
        -11    1    1    2    0    0  0.76993678665E+02 -0.14359945342E+03 -0.15730651818E+03  0.22648216318E+03  0.00000000000E+00 0. -1.
         11    1    1    2    0    0  0.59300878877E+02 -0.96637315317E+01 -0.85666707342E+02  0.10463635453E+03  0.00000000000E+00 0.  1.
</event>
<event>
 7    1  0.2686828E-009  0.1075728E+03  0.7561462E-02  0.1265132E+00
          3   -1    0    0  501    0  0.00000000000E+00  0.00000000000E+00  0.67907453152E+03  0.67907453152E+03  0.00000000000E+00 0. -1.
         -3   -1    0    0    0  501 -0.00000000000E+00 -0.00000000000E+00 -0.18158891260E+02  0.18158891260E+02  0.00000000000E+00 0.  1.
         25    2    1    2    0    0  0.16813775124E+02  0.46046259699E+01  0.41109961801E+03  0.43006341338E+03  0.12509091890E+03 0.  0.
          5    1    3    3  502    0  0.55804211823E+02 -0.34716933386E+02  0.16250742274E+03  0.17534397728E+03  0.41800000000E+01 0.  1.
         -5    1    3    3    0  502 -0.38990436698E+02  0.39321559355E+02  0.24859219526E+03  0.25471943611E+03  0.41800000000E+01 0.  1.
        -11    1    1    2    0    0 -0.37178207704E+02 -0.38939638210E+02  0.16185594436E+03  0.17057508985E+03  0.00000000000E+00 0. -1.
         11    1    1    2    0    0  0.20364432580E+02  0.34335012240E+02  0.87960077898E+02  0.96594919554E+02  0.00000000000E+00 0.  1.
</event>
<event>
 7    1  0.2686828E-009  0.1524884E+03  0.7561462E-02  0.1197448E+00
         -2   -1    0    0    0  501 -0.00000000000E+00  0.00000000000E+00  0.16644031362E+02  0.16644031362E+02  0.00000000000E+00 0.  1.
          2   -1    0    0  501    0  0.00000000000E+00 -0.00000000000E+00 -0.15704295159E+04  0.15704295159E+04  0.00000000000E+00 0. -1.
         25    2    1    2    0    0 -0.32817864452E+02  0.11381712363E+03 -0.92867204279E+03  0.94451607639E+03  0.12508999017E+03 0.  0.
          5    1    3    3  502    0  0.35101752236E+02  0.70480957258E+02 -0.63807151257E+03  0.64292489911E+03  0.41800000000E+01 0.  1.
         -5    1    3    3    0  502 -0.67919616688E+02  0.43336166371E+02 -0.29060053022E+03  0.30159117728E+03  0.41800000000E+01 0.  1.
        -11    1    1    2    0    0  0.43309091159E+02 -0.14632745073E+02 -0.26376181624E+03  0.26769402367E+03  0.00000000000E+00 0.  1.
         11    1    1    2    0    0 -0.10491226707E+02 -0.99184378556E+02 -0.36135162552E+03  0.37486344721E+03  0.00000000000E+00 0. -1.
</event>
<event>
 7    1  0.2686828E-009  0.7363425E+02  0.7561462E-02  0.1348153E+00
         -2   -1    0    0    0  501 -0.00000000000E+00  0.00000000000E+00  0.35033484040E+03  0.35033484040E+03  0.00000000000E+00 0.  1.
          2   -1    0    0  501    0  0.00000000000E+00 -0.00000000000E+00 -0.35514551493E+02  0.35514551493E+02  0.00000000000E+00 0. -1.
         25    2    1    2    0    0 -0.81004551889E+01  0.12805952334E+02  0.13465910031E+03  0.18442155239E+03  0.12509446790E+03 0.  0.
          5    1    3    3  502    0 -0.10432959158E+02  0.37121352661E+02  0.15022853426E+03  0.15515452416E+03  0.41800000000E+01 0. -1.
         -5    1    3    3    0  502  0.23325039690E+01 -0.24315400327E+02 -0.15569433953E+02  0.29267028230E+02  0.41800000000E+01 0. -1.
        -11    1    1    2    0    0 -0.33571908038E+02 -0.23130336270E+02  0.12529550694E+03  0.13176133547E+03  0.00000000000E+00 0.  1.
         11    1    1    2    0    0  0.41672363227E+02  0.10324383936E+02  0.54865681654E+02  0.69666504031E+02  0.00000000000E+00 0. -1.
</event>
<event>
 7    1  0.2686828E-009  0.1197307E+03  0.7561462E-02  0.1243542E+00
          3   -1    0    0  501    0  0.00000000000E+00  0.00000000000E+00  0.15536668928E+03  0.15536668928E+03  0.00000000000E+00 0. -1.
         -3   -1    0    0    0  501 -0.00000000000E+00 -0.00000000000E+00 -0.12929697506E+03  0.12929697506E+03  0.00000000000E+00 0.  1.
         25    2    1    2    0    0 -0.78658657405E+02 -0.43484752067E+02  0.31275793203E+02  0.15717419128E+03  0.12508974026E+03 0.  0.
          5    1    3    3  502    0 -0.66639432286E+02 -0.61887801927E+02 -0.26828185527E+02  0.94911210620E+02  0.41800000000E+01 0.  1.
         -5    1    3    3    0  502 -0.12019225119E+02  0.18403049859E+02  0.58103978730E+02  0.62262980662E+02  0.41800000000E+01 0.  1.
        -11    1    1    2    0    0  0.81120544919E+02 -0.13624036837E+01 -0.12164888130E+02  0.82038914272E+02  0.00000000000E+00 0. -1.
         11    1    1    2    0    0 -0.24618875136E+01  0.44847155751E+02  0.69588091403E+01  0.45450558784E+02  0.00000000000E+00 0.  1.
</event>
<event>
 7    1  0.2686828E-009  0.1387886E+03  0.7561462E-02  0.1214968E+00
          2   -1    0    0  501    0  0.00000000000E+00  0.00000000000E+00  0.15793057071E+03  0.15793057071E+03  0.00000000000E+00 0. -1.
         -2   -1    0    0    0  501 -0.00000000000E+00 -0.00000000000E+00 -0.15109119349E+03  0.15109119349E+03  0.00000000000E+00 0.  1.
         25    2    1    2    0    0 -0.20633595350E+02  0.99725019647E+02 -0.36505178926E+02  0.16538008288E+03  0.12508844440E+03 0.  0.
          5    1    3    3  502    0 -0.31683598920E+02 -0.14177329527E+02 -0.36946081882E+02  0.50865828210E+02  0.41800000000E+01 0. -1.
         -5    1    3    3    0  502  0.11050003570E+02  0.11390234917E+03  0.44090295564E+00  0.11451425467E+03  0.41800000000E+01 0. -1.
        -11    1    1    2    0    0  0.34900275803E+02 -0.87033982092E+01 -0.97995846697E+01  0.37280158948E+02  0.00000000000E+00 0.  1.
         11    1    1    2    0    0 -0.14266680453E+02 -0.91021621437E+02  0.53144140810E+02  0.10636152238E+03  0.00000000000E+00 0. -1.
</event>
<event>
 7    1  0.2686828E-009  0.1442295E+03  0.7561462E-02  0.1207749E+00
         -3   -1    0    0    0  501 -0.00000000000E+00  0.00000000000E+00  0.18866416380E+03  0.18866416380E+03  0.00000000000E+00 0.  1.
          3   -1    0    0  501    0  0.00000000000E+00 -0.00000000000E+00 -0.15563924721E+03  0.15563924721E+03  0.00000000000E+00 0. -1.
         25    2    1    2    0    0  0.73627531913E+02  0.94424628872E+02  0.77197353762E+02  0.18959081924E+03  0.12509285878E+03 0.  0.
          5    1    3    3  502    0  0.97797598886E+02  0.35153903909E+02  0.25200069245E+02  0.10701720982E+03  0.41800000000E+01 0.  1.
         -5    1    3    3    0  502 -0.24170066973E+02  0.59270724963E+02  0.51997284517E+02  0.82573609417E+02  0.41800000000E+01 0.  1.
        -11    1    1    2    0    0 -0.52598147180E+02 -0.75494032508E+02 -0.70615574392E+02  0.11598479805E+03  0.00000000000E+00 0. -1.
         11    1    1    2    0    0 -0.21029384733E+02 -0.18930596364E+02  0.26443137222E+02  0.38727793729E+02  0.00000000000E+00 0.  1.
</event>
<event>
 7    1  0.2686828E-009  0.1171830E+03  0.7561462E-02  0.1247818E+00
          1   -1    0    0  501    0  0.00000000000E+00  0.00000000000E+00  0.13791747075E+03  0.13791747075E+03  0.00000000000E+00 0. -1.
         -1   -1    0    0    0  501 -0.00000000000E+00 -0.00000000000E+00 -0.13359441465E+03  0.13359441465E+03  0.00000000000E+00 0.  1.
         25    2    1    2    0    0  0.84781793837E+00 -0.66503857950E+02 -0.44960856757E+02  0.14863561830E+03  0.12509031326E+03 0.  0.
          5    1    3    3  502    0  0.40353929497E+02 -0.71121885205E+02  0.80009001470E+01  0.82269368444E+02  0.41800000000E+01 0. -1.
         -5    1    3    3    0  502 -0.39506111558E+02  0.46180272551E+01 -0.52961756904E+02  0.66366249861E+02  0.41800000000E+01 0. -1.
        -11    1    1    2    0    0  0.44968560931E+01 -0.22693696476E+02  0.11868874682E+02  0.26001841486E+02  0.00000000000E+00 0. -1.
         11    1    1    2    0    0 -0.53446740315E+01  0.89197554426E+02  0.37415038176E+02  0.96874425613E+02  0.00000000000E+00 0.  1.
</event>
<event>
 7    1  0.2686828E-009  0.9086534E+02  0.7561462E-02  0.1300770E+00
          1   -1    0    0  501    0  0.00000000000E+00  0.00000000000E+00  0.56268944639E+02  0.56268944639E+02  0.00000000000E+00 0. -1.
         -1   -1    0    0    0  501 -0.00000000000E+00 -0.00000000000E+00 -0.43947744852E+03  0.43947744852E+03  0.00000000000E+00 0.  1.
         25    2    1    2    0    0 -0.31759343699E+02 -0.76143255279E+02 -0.33934111044E+03  0.37095312920E+03  0.12508950234E+03 0.  0.
          5    1    3    3  502    0 -0.37133579668E+01 -0.20798360751E+02 -0.29201132628E+03  0.29280445337E+03  0.41800000000E+01 0.  1.
         -5    1    3    3    0  502 -0.28045985733E+02 -0.55344894528E+02 -0.47329784156E+02  0.78148675832E+02  0.41800000000E+01 0.  1.
        -11    1    1    2    0    0  0.23040033353E+01  0.67179186304E+02 -0.59939537817E+02  0.90061643876E+02  0.00000000000E+00 0.  1.
         11    1    1    2    0    0  0.29455340364E+02  0.89640689748E+01  0.16072144375E+02  0.34731620080E+02  0.00000000000E+00 0. -1.
</event>
<event>
 7    1  0.2686828E-009  0.1111642E+03  0.7561462E-02  0.1258429E+00
          1   -1    0    0  501    0  0.00000000000E+00  0.00000000000E+00  0.39288700563E+03  0.39288700563E+03  0.00000000000E+00 0. -1.
         -1   -1    0    0    0  501 -0.00000000000E+00 -0.00000000000E+00 -0.66176954923E+02  0.66176954923E+02  0.00000000000E+00 0.  1.
         25    2    1    2    0    0  0.46296620792E+01  0.80928955247E+02  0.29912444920E+03  0.33420706144E+03  0.12509194314E+03 0.  0.
          5    1    3    3  502    0  0.30237429010E+02  0.68407642130E+02  0.29587969309E+03  0.30521496162E+03  0.41800000000E+01 0.  1.
         -5    1    3    3    0  502 -0.25607766931E+02  0.12521313117E+02  0.32447561059E+01  0.28992099813E+02  0.41800000000E+01 0.  1.
        -11    1    1    2    0    0 -0.45090682208E+02 -0.32947393039E+02 -0.10819171007E+01  0.55855804306E+02  0.00000000000E+00 0.  1.
         11    1    1    2    0    0  0.40461020129E+02 -0.47981562209E+02  0.28667518610E+02  0.69001094811E+02  0.00000000000E+00 0. -1.
</event>
<event>
 7    1  0.2686828E-009  0.1681197E+03  0.7561462E-02  0.1179823E+00
         -2   -1    0    0    0  501 -0.00000000000E+00  0.00000000000E+00  0.20412887755E+03  0.20412887755E+03  0.00000000000E+00 0.  1.
          2   -1    0    0  501    0  0.00000000000E+00 -0.00000000000E+00 -0.14092483810E+03  0.14092483810E+03  0.00000000000E+00 0. -1.
         25    2    1    2    0    0 -0.19443968192E+01  0.12815875840E+03  0.23112078767E+02  0.18059541400E+03  0.12510830244E+03 0.  0.
          5    1    3    3  502    0 -0.34275014813E+02  0.14010449882E+03  0.16304798464E+02  0.14521489622E+03  0.41800000000E+01 0. -1.
         -5    1    3    3    0  502  0.32330617994E+02 -0.11945740415E+02  0.68072803025E+01  0.35380517790E+02  0.41800000000E+01 0. -1.
        -11    1    1    2    0    0  0.46161590088E+02 -0.75130890226E+02  0.86828494679E+01  0.88605501751E+02  0.00000000000E+00 0.  1.
         11    1    1    2    0    0 -0.44217193269E+02 -0.53027868178E+02  0.31409111217E+02  0.75852799893E+02  0.00000000000E+00 0. -1.
</event>
<event>
 7    1  0.2686828E-009  0.1458709E+03  0.7561462E-02  0.1205641E+00
          1   -1    0    0  501    0  0.00000000000E+00  0.00000000000E+00  0.50334597888E+03  0.50334597888E+03  0.00000000000E+00 0. -1.
         -1   -1    0    0    0  501 -0.00000000000E+00 -0.00000000000E+00 -0.10190990749E+03  0.10190990749E+03  0.00000000000E+00 0.  1.
         25    2    1    2    0    0 -0.62517233753E+01  0.13503781766E+03  0.12895690783E+02  0.18462113911E+03  0.12507745569E+03 0.  0.
          5    1    3    3  502    0  0.33215732174E+02  0.62700414615E+02  0.56957212725E+02  0.91083606308E+02  0.41800000000E+01 0. -1.
         -5    1    3    3    0  502 -0.39467455550E+02  0.72337403047E+02 -0.44061521942E+02  0.93537532803E+02  0.41800000000E+01 0. -1.
        -11    1    1    2    0    0 -0.11092782522E+02 -0.38323972037E+02  0.33028023408E+02  0.51794082548E+02  0.00000000000E+00 0.  1.
         11    1    1    2    0    0  0.17344505897E+02 -0.96713845625E+02  0.35551235720E+03  0.36884066471E+03  0.00000000000E+00 0. -1.
</event>
<event>
 7    1  0.2686828E-009  0.9204794E+02  0.7561462E-02  0.1297967E+00
          1   -1    0    0  501    0  0.00000000000E+00  0.00000000000E+00  0.35660442917E+03  0.35660442917E+03  0.00000000000E+00 0. -1.
         -1   -1    0    0    0  501 -0.00000000000E+00 -0.00000000000E+00 -0.41981034983E+02  0.41981034983E+02  0.00000000000E+00 0.  1.
         25    2    1    2    0    0 -0.12398120945E+02  0.55542113751E+02  0.20092992509E+03  0.24343203959E+03  0.12509070029E+03 0.  0.
          5    1    3    3  502    0  0.29980025641E+02  0.24302788314E+02  0.18388248956E+03  0.18793528094E+03  0.41800000000E+01 0.  1.
         -5    1    3    3    0  502 -0.42378146586E+02  0.31239325437E+02  0.17047435532E+02  0.55496758645E+02  0.41800000000E+01 0.  1.
        -11    1    1    2    0    0 -0.19493717584E+02 -0.57298086252E+02  0.10637189713E+03  0.12238486921E+03  0.00000000000E+00 0. -1.
         11    1    1    2    0    0  0.31891838529E+02  0.17559725012E+01  0.73215719755E+01  0.32768555360E+02  0.00000000000E+00 0.  1.
</event>
<event>
 7    1  0.2686828E-009  0.8533366E+02  0.7561462E-02  0.1314562E+00
         -3   -1    0    0    0  501 -0.00000000000E+00  0.00000000000E+00  0.48697691907E+03  0.48697691907E+03  0.00000000000E+00 0. -1.
          3   -1    0    0  501    0  0.00000000000E+00 -0.00000000000E+00 -0.31605357761E+02  0.31605357761E+02  0.00000000000E+00 0.  1.
         25    2    1    2    0    0  0.25633167053E+01 -0.16798570535E+02  0.37685963432E+03  0.39744241545E+03  0.12509407283E+03 0.  0.
          5    1    3    3  502    0  0.30323525073E+02 -0.63749521667E+02  0.23462887959E+03  0.24505448623E+03  0.41800000000E+01 0. -1.
         -5    1    3    3    0  502 -0.27760208368E+02  0.46950951131E+02  0.14223075473E+03  0.15238792922E+03  0.41800000000E+01 0. -1.
        -11    1    1    2    0    0  0.18131776410E+02 -0.69890435485E+00  0.89922470326E+02  0.91734946736E+02  0.00000000000E+00 0. -1.
         11    1    1    2    0    0 -0.20695093115E+02  0.17497474890E+02 -0.11410543329E+02  0.29404914651E+02  0.00000000000E+00 0.  1.
</event>
<event>
 7    1  0.2686828E-009  0.1089883E+03  0.7561462E-02  0.1262455E+00
         -2   -1    0    0    0  501 -0.00000000000E+00  0.00000000000E+00  0.19288420232E+02  0.19288420232E+02  0.00000000000E+00 0. -1.
          2   -1    0    0  501    0  0.00000000000E+00 -0.00000000000E+00 -0.81727517496E+03  0.81727517496E+03  0.00000000000E+00 0.  1.
         25    2    1    2    0    0 -0.47555957693E+02  0.30628711633E+02 -0.48855905715E+03  0.50748334215E+03  0.12509877355E+03 0.  0.
          5    1    3    3  502    0  0.13406356812E+02  0.48377526951E+02 -0.83970007979E+02  0.97921142543E+02  0.41800000000E+01 0. -1.
         -5    1    3    3    0  502 -0.60962314505E+02 -0.17748815319E+02 -0.40458904918E+03  0.40956219961E+03  0.41800000000E+01 0. -1.
        -11    1    1    2    0    0  0.89926352666E+01  0.30442843244E+02 -0.45714527810E+02  0.55654759425E+02  0.00000000000E+00 0. -1.
         11    1    1    2    0    0  0.38563322427E+02 -0.61071554877E+02 -0.26371316977E+03  0.27342549362E+03  0.00000000000E+00 0.  1.
</event>
<event>
 7    1  0.2686828E-009  0.1316513E+03  0.7561462E-02  0.1225026E+00
         -1   -1    0    0    0  501 -0.00000000000E+00  0.00000000000E+00  0.14052789825E+03  0.14052789825E+03  0.00000000000E+00 0.  1.
          1   -1    0    0  501    0  0.00000000000E+00 -0.00000000000E+00 -0.16216357210E+03  0.16216357210E+03  0.00000000000E+00 0. -1.
         25    2    1    2    0    0  0.60277193647E+02 -0.73478459081E+02  0.31308945821E+02  0.16018717012E+03  0.12508898976E+03 0.  0.
          5    1    3    3  502    0 -0.37546782433E+02 -0.14556203612E+02  0.20560316125E+02  0.45407520675E+02  0.41800000000E+01 0. -1.
         -5    1    3    3    0  502  0.97823976080E+02 -0.58922255468E+02  0.10748629695E+02  0.11477964944E+03  0.41800000000E+01 0. -1.
        -11    1    1    2    0    0  0.50911780702E+01  0.29076355018E+02  0.19436247100E+02  0.35342923147E+02  0.00000000000E+00 0. -1.
         11    1    1    2    0    0 -0.65368371717E+02  0.44402104063E+02 -0.72380866771E+02  0.10716137709E+03  0.00000000000E+00 0.  1.
</event>
<event>
 7    1  0.2686828E-009  0.1160623E+03  0.7561462E-02  0.1249738E+00
         -2   -1    0    0    0  501 -0.00000000000E+00  0.00000000000E+00  0.29694928668E+03  0.29694928668E+03  0.00000000000E+00 0.  1.
          2   -1    0    0  501    0  0.00000000000E+00 -0.00000000000E+00 -0.66393607454E+02  0.66393607454E+02  0.00000000000E+00 0. -1.
         25    2    1    2    0    0 -0.12644987953E+02  0.86875241133E+02  0.14221919885E+03  0.20876110664E+03  0.12509075058E+03 0.  0.
          5    1    3    3  502    0  0.42197612489E+02  0.53867289946E+02  0.12464067693E+03  0.14225011132E+03  0.41800000000E+01 0. -1.
         -5    1    3    3    0  502 -0.54842600442E+02  0.33007951186E+02  0.17578521915E+02  0.66510995312E+02  0.41800000000E+01 0. -1.
        -11    1    1    2    0    0  0.26728688319E+02 -0.27299650034E+02  0.85095011308E+02  0.93278371666E+02  0.00000000000E+00 0.  1.
         11    1    1    2    0    0 -0.14083700366E+02 -0.59575591099E+02  0.32414690731E+01  0.61303415831E+02  0.00000000000E+00 0. -1.
</event>
<event>
 7    1  0.2686828E-009  0.1036898E+03  0.7561462E-02  0.1272723E+00
         -2   -1    0    0    0  501 -0.00000000000E+00  0.00000000000E+00  0.18953701720E+02  0.18953701720E+02  0.00000000000E+00 0.  1.
          2   -1    0    0  501    0  0.00000000000E+00 -0.00000000000E+00 -0.75232309611E+03  0.75232309611E+03  0.00000000000E+00 0. -1.
         25    2    1    2    0    0 -0.53081822492E+02  0.33539436995E+01 -0.42387553906E+03  0.44513762336E+03  0.12509237506E+03 0.  0.
          5    1    3    3  502    0 -0.78337556280E+02 -0.16104644219E+02 -0.15616086396E+03  0.17549877527E+03  0.41800000000E+01 0.  1.
         -5    1    3    3    0  502  0.25255733788E+02  0.19458587918E+02 -0.26771467510E+03  0.26963884809E+03  0.41800000000E+01 0.  1.
        -11    1    1    2    0    0  0.58731609698E+02 -0.31352762814E+02 -0.26524092241E+03  0.27346872698E+03  0.00000000000E+00 0. -1.
         11    1    1    2    0    0 -0.56497872053E+01  0.27998819114E+02 -0.44252932920E+02  0.52670447495E+02  0.00000000000E+00 0.  1.
</event>
<event>
 7    1  0.2723996E-009  0.6281601E+02  0.7561462E-02  0.1386380E+00
         -2   -1    0    0    0  501 -0.00000000000E+00  0.00000000000E+00  0.13712388302E+03  0.13712388302E+03  0.00000000000E+00 0.  1.
          2   -1    0    0  501    0  0.00000000000E+00 -0.00000000000E+00 -0.11137520456E+03  0.11137520456E+03  0.00000000000E+00 0. -1.
         25    2    1    2    0    0  0.89549918393E+01  0.11180531304E+02  0.72564193095E+02  0.14532485779E+03  0.12509418857E+03 0.  0.
          5    1    3    3  502    0 -0.19578303453E+02  0.18995503635E+02 -0.28657749923E+02  0.39785401281E+02  0.41800000000E+01 0. -1.
         -5    1    3    3    0  502  0.28533295293E+02 -0.78149723310E+01  0.10122194302E+03  0.10553945651E+03  0.41800000000E+01 0. -1.
        -11    1    1    2    0    0 -0.21117894080E+02  0.23387712969E+02 -0.57008283039E+02  0.65137507654E+02  0.00000000000E+00 0. -1.
         11    1    1    2    0    0  0.12162902241E+02 -0.34568244273E+02  0.10192768396E+02  0.38036722133E+02  0.00000000000E+00 0.  1.
</event>
<event>
 7    1  0.2686828E-009  0.2904830E+03  0.7561462E-02  0.1090097E+00
         -1   -1    0    0    0  501 -0.00000000000E+00  0.00000000000E+00  0.94958149963E+02  0.94958149963E+02  0.00000000000E+00 0.  1.
          1   -1    0    0  501    0  0.00000000000E+00 -0.00000000000E+00 -0.11014907941E+04  0.11014907941E+04  0.00000000000E+00 0. -1.
         25    2    1    2    0    0  0.12678519520E+03 -0.25723764742E+03 -0.32325021177E+03  0.44987086738E+03  0.12508958763E+03 0.  0.
          5    1    3    3  502    0  0.11268190779E+03 -0.17633941304E+03 -0.14817674734E+03  0.25645003760E+03  0.41800000000E+01 0.  1.
         -5    1    3    3    0  502  0.14103287405E+02 -0.80898234372E+02 -0.17507346444E+03  0.19342082977E+03  0.41800000000E+01 0.  1.
        -11    1    1    2    0    0 -0.95405891008E+02  0.15062916243E+03 -0.51427526108E+03  0.54430733302E+03  0.00000000000E+00 0. -1.
         11    1    1    2    0    0 -0.31379304187E+02  0.10660848499E+03 -0.16900717131E+03  0.20227074370E+03  0.00000000000E+00 0.  1.
</event>
<event>
 7    1  0.2686828E-009  0.1068672E+03  0.7561462E-02  0.1266484E+00
         -2   -1    0    0    0  501 -0.00000000000E+00  0.00000000000E+00  0.32732645216E+02  0.32732645216E+02  0.00000000000E+00 0.  1.
          2   -1    0    0  501    0  0.00000000000E+00 -0.00000000000E+00 -0.40283296883E+03  0.40283296883E+03  0.00000000000E+00 0. -1.
         25    2    1    2    0    0 -0.11124592609E+02 -0.20129719119E+02 -0.24577199817E+03  0.27673310313E+03  0.12509345759E+03 0.  0.
          5    1    3    3  502    0 -0.11866406440E+01  0.52982157381E+02 -0.96752120236E+02  0.11039457544E+03  0.41800000000E+01 0. -1.
         -5    1    3    3    0  502 -0.99379519653E+01 -0.73111876500E+02 -0.14901987793E+03  0.16633852769E+03  0.41800000000E+01 0. -1.
        -11    1    1    2    0    0  0.14190518142E+01 -0.32814578631E+02 -0.13283413300E+02  0.35429639395E+02  0.00000000000E+00 0.  1.
         11    1    1    2    0    0  0.97055407951E+01  0.52944297750E+02 -0.11104491215E+03  0.12340287153E+03  0.00000000000E+00 0. -1.
</event>
<event>
 7    1  0.2686828E-009  0.1253517E+03  0.7561462E-02  0.1234521E+00
         -4   -1    0    0    0  501 -0.00000000000E+00  0.00000000000E+00  0.22626308944E+03  0.22626308944E+03  0.00000000000E+00 0.  1.
          4   -1    0    0  501    0  0.00000000000E+00 -0.00000000000E+00 -0.98362650415E+02  0.98362650415E+02  0.00000000000E+00 0. -1.
         25    2    1    2    0    0 -0.91746201738E+02  0.24381866629E+02  0.23591267067E+02  0.15879827115E+03  0.12509397302E+03 0.  0.
          5    1    3    3  502    0  0.16494199934E+01  0.39115502504E+02 -0.30485648887E+02  0.49795484841E+02  0.41800000000E+01 0. -1.
         -5    1    3    3    0  502 -0.93395621732E+02 -0.14733635875E+02  0.54076915954E+02  0.10900278631E+03  0.41800000000E+01 0. -1.
        -11    1    1    2    0    0  0.51203661506E+02  0.21434386423E+02  0.85286374923E+02  0.10175958736E+03  0.00000000000E+00 0.  1.
         11    1    1    2    0    0  0.40542540233E+02 -0.45816253052E+02  0.19022797037E+02  0.64067881339E+02  0.00000000000E+00 0. -1.
</event>
<event>
 7    1  0.2686828E-009  0.2416054E+03  0.7561462E-02  0.1118728E+00
         -2   -1    0    0    0  501 -0.00000000000E+00  0.00000000000E+00  0.48092601446E+03  0.48092601446E+03  0.00000000000E+00 0.  1.
          2   -1    0    0  501    0  0.00000000000E+00 -0.00000000000E+00 -0.14573725479E+03  0.14573725479E+03  0.00000000000E+00 0. -1.
         25    2    1    2    0    0 -0.23527203085E+03  0.49821500842E+01  0.10477308360E+03  0.28636124373E+03  0.12509041747E+03 0.  0.
          5    1    3    3  502    0 -0.11588816864E+03 -0.12910236252E+02 -0.13316493017E+02  0.11743740127E+03  0.41800000000E+01 0. -1.
         -5    1    3    3    0  502 -0.11938386221E+03  0.17892386336E+02  0.11808957662E+03  0.16892384246E+03  0.41800000000E+01 0. -1.
        -11    1    1    2    0    0  0.26297969876E+02 -0.24390844736E+02  0.60218518956E+02  0.70091130336E+02  0.00000000000E+00 0.  1.
         11    1    1    2    0    0  0.20897406097E+03  0.19408694652E+02  0.17019715711E+03  0.27021089519E+03  0.00000000000E+00 0. -1.
</event>
<event>
 7    1  0.2686828E-009  0.2095290E+03  0.7561462E-02  0.1141940E+00
          1   -1    0    0  501    0  0.00000000000E+00  0.00000000000E+00  0.53481784402E+03  0.53481784402E+03  0.00000000000E+00 0. -1.
         -1   -1    0    0    0  501 -0.00000000000E+00 -0.00000000000E+00 -0.92084938035E+02  0.92084938035E+02  0.00000000000E+00 0.  1.
         25    2    1    2    0    0  0.14424530970E+03 -0.12365556962E+03  0.27239095596E+03  0.35488213042E+03  0.12508830614E+03 0.  0.
          5    1    3    3  502    0  0.14902631531E+03 -0.56139075013E+02  0.18181262617E+03  0.24173072174E+03  0.41800000000E+01 0. -1.
         -5    1    3    3    0  502 -0.47810056055E+01 -0.67516494611E+02  0.90578329789E+02  0.11315140868E+03  0.41800000000E+01 0. -1.
        -11    1    1    2    0    0 -0.18687093772E+02  0.53813456935E+01  0.69597034771E+02  0.72262809273E+02  0.00000000000E+00 0. -1.
         11    1    1    2    0    0 -0.12555821593E+03  0.11827422393E+03  0.10074491525E+03  0.19975784236E+03  0.00000000000E+00 0.  1.
</event>
<event>
 7    1  0.2686828E-009  0.1441274E+03  0.7561462E-02  0.1207881E+00
          1   -1    0    0  501    0  0.00000000000E+00  0.00000000000E+00  0.44062124487E+02  0.44062124487E+02  0.00000000000E+00 0. -1.
         -1   -1    0    0    0  501 -0.00000000000E+00 -0.00000000000E+00 -0.56335060938E+03  0.56335060938E+03  0.00000000000E+00 0.  1.
         25    2    1    2    0    0  0.57066651850E+02  0.93900737258E+02 -0.35468357316E+03  0.39182005387E+03  0.12509422983E+03 0.  0.
          5    1    3    3  502    0  0.86904758884E+02  0.55490310959E+02 -0.15466993224E+03  0.18593512865E+03  0.41800000000E+01 0.  1.
         -5    1    3    3    0  502 -0.29838107034E+02  0.38410426300E+02 -0.20001364092E+03  0.20588492522E+03  0.41800000000E+01 0.  1.
        -11    1    1    2    0    0 -0.77868894387E+02 -0.75751151242E+02 -0.14723732591E+03  0.18297713455E+03  0.00000000000E+00 0.  1.
         11    1    1    2    0    0  0.20802242537E+02 -0.18149586017E+02 -0.17367585823E+02  0.32615545442E+02  0.00000000000E+00 0. -1.
</event>
<event>
 7    1  0.2686828E-009  0.9106127E+02  0.7561462E-02  0.1300302E+00
          1   -1    0    0  501    0  0.00000000000E+00  0.00000000000E+00  0.66899760158E+03  0.66899760158E+03  0.00000000000E+00 0. -1.
         -1   -1    0    0    0  501 -0.00000000000E+00 -0.00000000000E+00 -0.28229617858E+02  0.28229617858E+02  0.00000000000E+00 0.  1.
         25    2    1    2    0    0  0.82270223929E+02 -0.12430134384E+02  0.36715684208E+03  0.39670412310E+03  0.12508843517E+03 0.  0.
          5    1    3    3  502    0  0.13491292501E+02  0.30966891527E+01 -0.69108531521E+01  0.16026127054E+02  0.41800000000E+01 0. -1.
         -5    1    3    3    0  502  0.68778931429E+02 -0.15526823537E+02  0.37406769523E+03  0.38067799604E+03  0.41800000000E+01 0. -1.
        -11    1    1    2    0    0 -0.16583785176E+02  0.25147434207E+02  0.15491813038E+02  0.33873465267E+02  0.00000000000E+00 0. -1.
         11    1    1    2    0    0 -0.65686438753E+02 -0.12717299823E+02  0.25811932861E+03  0.26664963107E+03  0.00000000000E+00 0.  1.
</event>
<event>
 7    1  0.2686828E-009  0.8557059E+02  0.7561462E-02  0.1313947E+00
         -2   -1    0    0    0  501 -0.00000000000E+00  0.00000000000E+00  0.20257905411E+02  0.20257905411E+02  0.00000000000E+00 0. -1.
          2   -1    0    0  501    0  0.00000000000E+00 -0.00000000000E+00 -0.68137925038E+03  0.68137925038E+03  0.00000000000E+00 0.  1.
         25    2    1    2    0    0 -0.21296813913E+02 -0.29206932091E+01 -0.51855612042E+03  0.53386301646E+03  0.12508871089E+03 0.  0.
          5    1    3    3  502    0  0.19828812281E+02 -0.27992962163E+02 -0.44180100847E+03  0.44315052885E+03  0.41800000000E+01 0.  1.
         -5    1    3    3    0  502 -0.41125626193E+02  0.25072268954E+02 -0.76755111942E+02  0.90712487616E+02  0.41800000000E+01 0.  1.
        -11    1    1    2    0    0 -0.23874059433E+02 -0.25449843368E+02 -0.50759984065E+02  0.61597412475E+02  0.00000000000E+00 0.  1.
         11    1    1    2    0    0  0.45170873346E+02  0.28370536577E+02 -0.91805240483E+02  0.10617672685E+03  0.00000000000E+00 0. -1.
</event>
<event>
 7    1  0.2686828E-009  0.1140729E+03  0.7561462E-02  0.1253208E+00
         -1   -1    0    0    0  501 -0.00000000000E+00  0.00000000000E+00  0.28161225440E+03  0.28161225440E+03  0.00000000000E+00 0.  1.
          1   -1    0    0  501    0  0.00000000000E+00 -0.00000000000E+00 -0.67767889800E+02  0.67767889800E+02  0.00000000000E+00 0. -1.
         25    2    1    2    0    0  0.45522501915E+02 -0.47179934504E+02  0.18685376308E+03  0.23422015846E+03  0.12508600822E+03 0.  0.
          5    1    3    3  502    0  0.22672379374E+01  0.32922448055E+02  0.11028443214E+03  0.11519182404E+03  0.41800000000E+01 0. -1.
         -5    1    3    3    0  502  0.43255263977E+02 -0.80102382559E+02  0.76569330938E+02  0.11902833442E+03  0.41800000000E+01 0. -1.
        -11    1    1    2    0    0 -0.32078157362E+02 -0.18282134045E+02 -0.10692719270E+02  0.38439287849E+02  0.00000000000E+00 0.  1.
         11    1    1    2    0    0 -0.13444344553E+02  0.65462068549E+02  0.37683320790E+02  0.76720697891E+02  0.00000000000E+00 0. -1.
</event>
<event>
 7    1  0.2686828E-009  0.1302008E+03  0.7561462E-02  0.1227158E+00
          2   -1    0    0  501    0  0.00000000000E+00  0.00000000000E+00  0.99964638300E+02  0.99964638300E+02  0.00000000000E+00 0. -1.
         -2   -1    0    0    0  501 -0.00000000000E+00 -0.00000000000E+00 -0.17355322664E+03  0.17355322664E+03  0.00000000000E+00 0.  1.
         25    2    1    2    0    0 -0.37038757383E+02  0.64258287892E+02 -0.56106067070E+02  0.15587567177E+03  0.12509331387E+03 0.  0.
          5    1    3    3  502    0 -0.76661193235E+02  0.71508062143E+02 -0.41428941408E+02  0.11280146757E+03  0.41800000000E+01 0.  1.
         -5    1    3    3    0  502  0.39622435852E+02 -0.72497742511E+01 -0.14677125661E+02  0.43074204197E+02  0.41800000000E+01 0.  1.
        -11    1    1    2    0    0 -0.93511037718E+01 -0.67818967585E+02 -0.15987368920E+01  0.68479277637E+02  0.00000000000E+00 0. -1.
         11    1    1    2    0    0  0.46389861155E+02  0.35606796927E+01 -0.15883784378E+02  0.49162915536E+02  0.00000000000E+00 0.  1.
</event>
<event>
 7    1  0.2739050E-009  0.1228972E+03  0.7561462E-02  0.1238393E+00
         -2   -1    0    0    0  501 -0.00000000000E+00  0.00000000000E+00  0.27235256359E+02  0.27235256359E+02  0.00000000000E+00 0.  1.
          2   -1    0    0  501    0  0.00000000000E+00 -0.00000000000E+00 -0.57326490812E+03  0.57326490812E+03  0.00000000000E+00 0. -1.
         25    2    1    2    0    0 -0.61055157903E+02  0.79165141401E+01 -0.30911817069E+03  0.33910402695E+03  0.12508834532E+03 0.  0.
          5    1    3    3  502    0 -0.61727248518E+02 -0.50365123689E+02 -0.20000660620E+03  0.21533001142E+03  0.41800000000E+01 0. -1.
         -5    1    3    3    0  502  0.67209061498E+00  0.58281637829E+02 -0.10911156449E+03  0.12377401553E+03  0.41800000000E+01 0. -1.
        -11    1    1    2    0    0  0.23844228717E+02 -0.47565136947E+02 -0.87610233099E+02  0.10250142652E+03  0.00000000000E+00 0. -1.
         11    1    1    2    0    0  0.37210929185E+02  0.39648622806E+02 -0.14930124797E+03  0.15889471101E+03  0.00000000000E+00 0.  1.
</event>
<event>
 7    1  0.2686828E-009  0.2269765E+03  0.7561462E-02  0.1128786E+00
          2   -1    0    0  501    0  0.00000000000E+00  0.00000000000E+00  0.38911454116E+03  0.38911454116E+03  0.00000000000E+00 0. -1.
         -2   -1    0    0    0  501 -0.00000000000E+00 -0.00000000000E+00 -0.18038608108E+03  0.18038608108E+03  0.00000000000E+00 0.  1.
         25    2    1    2    0    0 -0.12347373816E+03 -0.18075641436E+03 -0.15253079370E-01  0.25212280528E+03  0.12508902175E+03 0.  0.
          5    1    3    3  502    0 -0.84656688852E+02 -0.49747042504E+02  0.45145814695E+02  0.10815331798E+03  0.41800000000E+01 0. -1.
         -5    1    3    3    0  502 -0.38817049306E+02 -0.13100937185E+03 -0.45161067775E+02  0.14396948730E+03  0.41800000000E+01 0. -1.
        -11    1    1    2    0    0  0.29182154351E+02  0.38743642177E+02  0.11038323675E+03  0.12057000828E+03  0.00000000000E+00 0. -1.
         11    1    1    2    0    0  0.94291583807E+02  0.14201277218E+03  0.98360476407E+02  0.19680780868E+03  0.00000000000E+00 0.  1.
</event>
<event>
 7    1  0.2686828E-009  0.1609335E+03  0.7561462E-02  0.1187647E+00
         -2   -1    0    0    0  501 -0.00000000000E+00  0.00000000000E+00  0.95659706765E+02  0.95659706765E+02  0.00000000000E+00 0. -1.
          2   -1    0    0  501    0  0.00000000000E+00 -0.00000000000E+00 -0.39389487383E+03  0.39389487383E+03  0.00000000000E+00 0.  1.
         25    2    1    2    0    0  0.21732052550E+02 -0.13528986958E+03 -0.26251231532E+03  0.32145899754E+03  0.12509012946E+03 0.  0.
          5    1    3    3  502    0 -0.43266608936E+02 -0.46393192974E+02 -0.45862978740E+02  0.78391409108E+02  0.41800000000E+01 0. -1.
         -5    1    3    3    0  502  0.64998661486E+02 -0.88896676606E+02 -0.21664933658E+03  0.24306758844E+03  0.41800000000E+01 0. -1.
        -11    1    1    2    0    0 -0.23638204023E+02  0.15464539204E+02 -0.39065846207E+02  0.48208474380E+02  0.00000000000E+00 0. -1.
         11    1    1    2    0    0  0.19061514729E+01  0.11982533038E+03  0.33429944653E+01  0.11988710867E+03  0.00000000000E+00 0.  1.
</event>
<event>
 7    1  0.2686828E-009  0.1246757E+03  0.7561462E-02  0.1235577E+00
         -2   -1    0    0    0  501 -0.00000000000E+00  0.00000000000E+00  0.74667183110E+02  0.74667183110E+02  0.00000000000E+00 0.  1.
          2   -1    0    0  501    0  0.00000000000E+00 -0.00000000000E+00 -0.49844652403E+03  0.49844652403E+03  0.00000000000E+00 0. -1.
         25    2    1    2    0    0 -0.10623439492E+03  0.19722389488E+02 -0.39599786873E+03  0.42911263143E+03  0.12509444071E+03 0.  0.
          5    1    3    3  502    0 -0.37455137948E+02 -0.28164297608E+02 -0.35396892429E+02  0.58877223203E+02  0.41800000000E+01 0.  1.
         -5    1    3    3    0  502 -0.68779256974E+02  0.47886687096E+02 -0.36060097630E+03  0.37023540822E+03  0.41800000000E+01 0.  1.
        -11    1    1    2    0    0  0.49038312107E+02 -0.33712318933E+02 -0.53242296705E+02  0.79849975959E+02  0.00000000000E+00 0. -1.
         11    1    1    2    0    0  0.57196082815E+02  0.13989929445E+02  0.25460824514E+02  0.64151099758E+02  0.00000000000E+00 0.  1.
</event>
<event>
 7    1  0.2686828E-009  0.1153869E+03  0.7561462E-02  0.1250907E+00
          1   -1    0    0  501    0  0.00000000000E+00  0.00000000000E+00  0.31162275965E+03  0.31162275965E+03  0.00000000000E+00 0. -1.
         -1   -1    0    0    0  501 -0.00000000000E+00 -0.00000000000E+00 -0.95686881056E+02  0.95686881056E+02  0.00000000000E+00 0.  1.
         25    2    1    2    0    0  0.69116545431E+02  0.14330492545E+02 -0.19578647064E+02  0.14495887957E+03  0.12508914212E+03 0.  0.
          5    1    3    3  502    0  0.92924235842E+02 -0.16953087321E+02 -0.37290633480E+02  0.10163849921E+03  0.41800000000E+01 0. -1.
         -5    1    3    3    0  502 -0.23807690410E+02  0.31283579866E+02  0.17711986416E+02  0.43320380362E+02  0.41800000000E+01 0. -1.
        -11    1    1    2    0    0 -0.53458551169E+02 -0.39899514922E+02  0.21721018557E+03  0.22722247402E+03  0.00000000000E+00 0. -1.
         11    1    1    2    0    0 -0.15657994263E+02  0.25569022378E+02  0.18304340094E+02  0.35128287120E+02  0.00000000000E+00 0.  1.
</event>
<event>
 7    1  0.2686828E-009  0.9329631E+02  0.7561462E-02  0.1295060E+00
         -3   -1    0    0    0  501 -0.00000000000E+00  0.00000000000E+00  0.36051038808E+03  0.36051038808E+03  0.00000000000E+00 0.  1.
          3   -1    0    0  501    0  0.00000000000E+00 -0.00000000000E+00 -0.58986887090E+02  0.58986887090E+02  0.00000000000E+00 0. -1.
         25    2    1    2    0    0 -0.75679411853E+02  0.16666597713E+02  0.24992120878E+03  0.29002242762E+03  0.12508896461E+03 0.  0.
          5    1    3    3  502    0 -0.30541753057E+02  0.32545735718E+02  0.23570694270E+03  0.23993177953E+03  0.41800000000E+01 0.  1.
         -5    1    3    3    0  502 -0.45137658797E+02 -0.15879138005E+02  0.14214266079E+02  0.50090648085E+02  0.41800000000E+01 0.  1.
        -11    1    1    2    0    0  0.10129190506E+02 -0.25643602060E+02  0.56770046335E+02  0.63111274649E+02  0.00000000000E+00 0.  1.
         11    1    1    2    0    0  0.65550221347E+02  0.89770043470E+01 -0.51677541228E+01  0.66363572903E+02  0.00000000000E+00 0. -1.
</event>
<event>
 7    1  0.3104682E-009  0.1051502E+03  0.7561462E-02  0.1269824E+00
          2   -1    0    0  501    0  0.00000000000E+00  0.00000000000E+00  0.79018526846E+03  0.79018526846E+03  0.00000000000E+00 0. -1.
         -2   -1    0    0    0  501 -0.00000000000E+00 -0.00000000000E+00 -0.20921013920E+02  0.20921013920E+02  0.00000000000E+00 0.  1.
         25    2    1    2    0    0  0.34582798846E+02  0.55797135216E+02  0.48923926632E+03  0.50922732560E+03  0.12509244243E+03 0.  0.
          5    1    3    3  502    0  0.73102319304E+02  0.18636296124E+02  0.17769476515E+03  0.19309107329E+03  0.41800000000E+01 0.  1.
         -5    1    3    3    0  502 -0.38519520458E+02  0.37160839091E+02  0.31154450116E+03  0.31613625231E+03  0.41800000000E+01 0.  1.
        -11    1    1    2    0    0 -0.26832698351E+02 -0.22206656569E+01  0.13893944809E+02  0.30297966253E+02  0.00000000000E+00 0.  1.
         11    1    1    2    0    0 -0.77501004956E+01 -0.53576469559E+02  0.26613104342E+03  0.27158099053E+03  0.00000000000E+00 0. -1.
</event>
<event>
 7    1  0.2686828E-009  0.7218158E+02  0.7561462E-02  0.1352828E+00
         -1   -1    0    0    0  501 -0.00000000000E+00  0.00000000000E+00  0.47610895767E+02  0.47610895767E+02  0.00000000000E+00 0.  1.
          1   -1    0    0  501    0  0.00000000000E+00 -0.00000000000E+00 -0.28671534016E+03  0.28671534016E+03  0.00000000000E+00 0. -1.
         25    2    1    2    0    0  0.16509040400E+02 -0.38125756269E+02 -0.13955645666E+03  0.19196205107E+03  0.12508917918E+03 0.  0.
          5    1    3    3  502    0  0.22066261223E+02 -0.32075923106E+02  0.11354513089E+02  0.40769867488E+02  0.41800000000E+01 0. -1.
         -5    1    3    3    0  502 -0.55572208235E+01 -0.60498331631E+01 -0.15091096975E+03  0.15119218358E+03  0.41800000000E+01 0. -1.
        -11    1    1    2    0    0  0.32446334766E+02 -0.22608092620E+01 -0.58037805663E+02  0.66530164470E+02  0.00000000000E+00 0.  1.
         11    1    1    2    0    0 -0.48955375165E+02  0.40386565531E+02 -0.41510182069E+02  0.75834020389E+02  0.00000000000E+00 0. -1.
</event>
<event>
 7    1  0.2686828E-009  0.1462226E+03  0.7561462E-02  0.1205193E+00
         -1   -1    0    0    0  501 -0.00000000000E+00  0.00000000000E+00  0.58611064071E+02  0.58611064071E+02  0.00000000000E+00 0.  1.
          1   -1    0    0  501    0  0.00000000000E+00 -0.00000000000E+00 -0.50669664654E+03  0.50669664654E+03  0.00000000000E+00 0. -1.
         25    2    1    2    0    0 -0.67299814689E+02  0.11319988226E+03 -0.27976383448E+03  0.33355487157E+03  0.12509025088E+03 0.  0.
          5    1    3    3  502    0  0.24833327893E+01  0.79431721338E+02 -0.22469334622E+03  0.23836974962E+03  0.41800000000E+01 0. -1.
         -5    1    3    3    0  502 -0.69783147478E+02  0.33768160927E+02 -0.55070488255E+02  0.95185121952E+02  0.41800000000E+01 0. -1.
        -11    1    1    2    0    0  0.48706628525E+01 -0.34168234652E+02 -0.11018331379E+03  0.11546234994E+03  0.00000000000E+00 0. -1.
         11    1    1    2    0    0  0.62429151837E+02 -0.79031647612E+02 -0.58138434195E+02  0.11629048910E+03  0.00000000000E+00 0.  1.
</event>
<event>
 7    1  0.2686828E-009  0.9856372E+02  0.7561462E-02  0.1283346E+00
         -2   -1    0    0    0  501 -0.00000000000E+00  0.00000000000E+00  0.25812255645E+03  0.25812255645E+03  0.00000000000E+00 0. -1.
          2   -1    0    0  501    0  0.00000000000E+00 -0.00000000000E+00 -0.48244226341E+02  0.48244226341E+02  0.00000000000E+00 0.  1.
         25    2    1    2    0    0  0.20449307837E+02 -0.39945261021E+01  0.14352636639E+03  0.19152598861E+03  0.12509298955E+03 0.  0.
          5    1    3    3  502    0  0.53657533637E+02  0.35862404217E+02  0.41082344201E+02  0.76619020858E+02  0.41800000000E+01 0.  1.
         -5    1    3    3    0  502 -0.33208225800E+02 -0.39856930319E+02  0.10244402219E+03  0.11490696775E+03  0.41800000000E+01 0.  1.
        -11    1    1    2    0    0 -0.50182026386E+02  0.63451138287E+01  0.10700687212E+02  0.51701072992E+02  0.00000000000E+00 0.  1.
         11    1    1    2    0    0  0.29732718550E+02 -0.23505877265E+01  0.55651276503E+02  0.63139721186E+02  0.00000000000E+00 0. -1.
</event>
<event>
 7    1  0.2686828E-009  0.1623335E+03  0.7561462E-02  0.1186087E+00
          2   -1    0    0  501    0  0.00000000000E+00  0.00000000000E+00  0.43648331235E+03  0.43648331235E+03  0.00000000000E+00 0. -1.
         -2   -1    0    0    0  501 -0.00000000000E+00 -0.00000000000E+00 -0.63808131412E+02  0.63808131412E+02  0.00000000000E+00 0.  1.
         25    2    1    2    0    0 -0.31434235033E+02  0.12029583904E+03  0.23166213176E+03  0.29116176615E+03  0.12509448729E+03 0.  0.
          5    1    3    3  502    0 -0.76002916881E+02  0.10016120977E+03  0.14879806703E+03  0.19485134967E+03  0.41800000000E+01 0. -1.
         -5    1    3    3    0  502  0.44568681848E+02  0.20134629269E+02  0.82864064732E+02  0.96310416474E+02  0.41800000000E+01 0. -1.
        -11    1    1    2    0    0 -0.28144341461E+02 -0.52175434800E+02  0.81639039457E+02  0.10089258009E+03  0.00000000000E+00 0. -1.
         11    1    1    2    0    0  0.59578576495E+02 -0.68120404244E+02  0.59374009722E+02  0.10823709753E+03  0.00000000000E+00 0.  1.
</event>
<event>
 7    1  0.2686828E-009  0.1030852E+03  0.7561462E-02  0.1273939E+00
          1   -1    0    0  501    0  0.00000000000E+00  0.00000000000E+00  0.90466599218E+02  0.90466599218E+02  0.00000000000E+00 0. -1.
         -1   -1    0    0    0  501 -0.00000000000E+00 -0.00000000000E+00 -0.17904080778E+03  0.17904080778E+03  0.00000000000E+00 0.  1.
         25    2    1    2    0    0 -0.29760757179E+02 -0.48319326162E+02 -0.11741385660E+02  0.13786241575E+03  0.12509086933E+03 0.  0.
          5    1    3    3  502    0  0.31476211195E+02  0.15937792364E+02  0.23140502426E+02  0.42399532417E+02  0.41800000000E+01 0.  1.
         -5    1    3    3    0  502 -0.61236968374E+02 -0.64257118526E+02 -0.34881888086E+02  0.95462883329E+02  0.41800000000E+01 0.  1.
        -11    1    1    2    0    0  0.45395817363E+02  0.48106889924E+02 -0.89661629223E+02  0.11141930195E+03  0.00000000000E+00 0.  1.
         11    1    1    2    0    0 -0.15635060184E+02  0.21243623783E+00  0.12828806322E+02  0.20225689302E+02  0.00000000000E+00 0. -1.
</event>
<event>
 7    1  0.2686828E-009  0.7522159E+02  0.7561462E-02  0.1343186E+00
          1   -1    0    0  501    0  0.00000000000E+00  0.00000000000E+00  0.93884289671E+02  0.93884289671E+02  0.00000000000E+00 0. -1.
         -1   -1    0    0    0  501 -0.00000000000E+00 -0.00000000000E+00 -0.12893917180E+03  0.12893917180E+03  0.00000000000E+00 0.  1.
         25    2    1    2    0    0 -0.11761815963E+01 -0.30013888820E+01 -0.50157425132E+02  0.13481097828E+03  0.12509132996E+03 0.  0.
          5    1    3    3  502    0 -0.37152062197E+02  0.20640039332E+02  0.23981580694E+02  0.48978317261E+02  0.41800000000E+01 0.  1.
         -5    1    3    3    0  502  0.35975880601E+02 -0.23641428214E+02 -0.74139005826E+02  0.85832661021E+02  0.41800000000E+01 0.  1.
        -11    1    1    2    0    0 -0.17162036101E+02  0.28386139181E+02  0.37081987687E+02  0.49753212877E+02  0.00000000000E+00 0. -1.
         11    1    1    2    0    0  0.18338217697E+02 -0.25384750299E+02 -0.21979444683E+02  0.38259270310E+02  0.00000000000E+00 0.  1.
</event>
<event>
 7    1  0.2686828E-009  0.1297473E+03  0.7561462E-02  0.1227831E+00
          2   -1    0    0  501    0  0.00000000000E+00  0.00000000000E+00  0.59076752971E+03  0.59076752971E+03  0.00000000000E+00 0. -1.
         -2   -1    0    0    0  501 -0.00000000000E+00 -0.00000000000E+00 -0.36690991602E+02  0.36690991602E+02  0.00000000000E+00 0.  1.
         25    2    1    2    0    0 -0.22662945781E+02  0.92421083063E+02  0.37472619025E+03  0.40635119242E+03  0.12508520383E+03 0.  0.
          5    1    3    3  502    0  0.42715584607E+02  0.79204097828E+02  0.22636792896E+03  0.24363460744E+03  0.41800000000E+01 0.  1.
         -5    1    3    3    0  502 -0.65378530389E+02  0.13216985235E+02  0.14835826129E+03  0.16271658498E+03  0.41800000000E+01 0.  1.
        -11    1    1    2    0    0  0.31889236524E+02 -0.51064321248E+02  0.32810195165E+02  0.68563818574E+02  0.00000000000E+00 0.  1.
         11    1    1    2    0    0 -0.92262907429E+01 -0.41356761815E+02  0.14654015270E+03  0.15254351032E+03  0.00000000000E+00 0. -1.
</event>
<event>
 7    1  0.2686828E-009  0.9818466E+02  0.7561462E-02  0.1284160E+00
         -1   -1    0    0    0  501 -0.00000000000E+00  0.00000000000E+00  0.26829827333E+02  0.26829827333E+02  0.00000000000E+00 0.  1.
          1   -1    0    0  501    0  0.00000000000E+00 -0.00000000000E+00 -0.64142108517E+03  0.64142108517E+03  0.00000000000E+00 0. -1.
         25    2    1    2    0    0 -0.57267390753E+02 -0.27904324753E+02 -0.44634576194E+03  0.46789960685E+03  0.12508915822E+03 0.  0.
          5    1    3    3  502    0  0.24334396023E+02  0.17772666799E+02 -0.23224745089E+03  0.23423146962E+03  0.41800000000E+01 0.  1.
         -5    1    3    3    0  502 -0.81601786776E+02 -0.45676991551E+02 -0.21409831105E+03  0.23366813723E+03  0.41800000000E+01 0.  1.
        -11    1    1    2    0    0  0.44791333852E+02  0.36000022942E+02 -0.17487006812E+03  0.18407011154E+03  0.00000000000E+00 0. -1.
         11    1    1    2    0    0  0.12476056900E+02 -0.80956981893E+01  0.66245722123E+01  0.16281194119E+02  0.00000000000E+00 0.  1.
</event>
<event>
 7    1  0.2686828E-009  0.8892508E+02  0.7561462E-02  0.1305476E+00
          1   -1    0    0  501    0  0.00000000000E+00  0.00000000000E+00  0.15531567769E+03  0.15531567769E+03  0.00000000000E+00 0. -1.
         -1   -1    0    0    0  501 -0.00000000000E+00 -0.00000000000E+00 -0.12758673271E+03  0.12758673271E+03  0.00000000000E+00 0.  1.
         25    2    1    2    0    0 -0.27144520837E+02 -0.11438580242E+02 -0.68630956352E+02  0.14568906371E+03  0.12508968377E+03 0.  0.
          5    1    3    3  502    0 -0.67773728761E+02 -0.10666082615E+02 -0.35214944321E+01  0.68825263905E+02  0.41800000000E+01 0. -1.
         -5    1    3    3    0  502  0.40629207924E+02 -0.77249762623E+00 -0.65109461920E+02  0.76863799806E+02  0.41800000000E+01 0. -1.
        -11    1    1    2    0    0  0.47203038459E+02  0.69845207218E+01  0.10407008519E+02  0.48838675205E+02  0.00000000000E+00 0.  1.
         11    1    1    2    0    0 -0.20058517622E+02  0.44540595198E+01  0.85952892813E+02  0.88374671475E+02  0.00000000000E+00 0. -1.
</event>
<event>
 7    1  0.2686828E-009  0.1564879E+03  0.7561462E-02  0.1192720E+00
          2   -1    0    0  501    0  0.00000000000E+00  0.00000000000E+00  0.10355084217E+04  0.10355084217E+04  0.00000000000E+00 0. -1.
         -2   -1    0    0    0  501 -0.00000000000E+00 -0.00000000000E+00 -0.35827179390E+02  0.35827179390E+02  0.00000000000E+00 0.  1.
         25    2    1    2    0    0 -0.73202769575E+02  0.13044615024E+03  0.37985852060E+03  0.42698412714E+03  0.12509238817E+03 0.  0.
          5    1    3    3  502    0 -0.74864791822E+01  0.27449506097E+01 -0.88175351683E+01  0.12601724122E+02  0.41800000000E+01 0. -1.
         -5    1    3    3    0  502 -0.65716290393E+02  0.12770119963E+03  0.38867605576E+03  0.41438240302E+03  0.41800000000E+01 0. -1.
        -11    1    1    2    0    0  0.47821417056E+02 -0.12567724877E+03  0.58892833244E+03  0.60408462945E+03  0.00000000000E+00 0. -1.
         11    1    1    2    0    0  0.25381352519E+02 -0.47689014660E+01  0.30894389263E+02  0.40266844485E+02  0.00000000000E+00 0.  1.
</event>
<event>
 7    1  0.2686828E-009  0.1096705E+03  0.7561462E-02  0.1261181E+00
         -2   -1    0    0    0  501 -0.00000000000E+00  0.00000000000E+00  0.27692547324E+03  0.27692547324E+03  0.00000000000E+00 0.  1.
          2   -1    0    0  501    0  0.00000000000E+00 -0.00000000000E+00 -0.58697982401E+02  0.58697982401E+02  0.00000000000E+00 0. -1.
         25    2    1    2    0    0  0.62627639177E+02 -0.20644381523E+01  0.88538344855E+02  0.16556556431E+03  0.12508570855E+03 0.  0.
          5    1    3    3  502    0  0.61555604698E+02  0.43694324646E+02  0.12375202841E+02  0.76608775747E+02  0.41800000000E+01 0. -1.
         -5    1    3    3    0  502  0.10720344794E+01 -0.45758762799E+02  0.76163142014E+02  0.88956788568E+02  0.41800000000E+01 0. -1.
        -11    1    1    2    0    0 -0.42167440299E+02 -0.35421301217E+02  0.11003448157E+03  0.12304612443E+03  0.00000000000E+00 0.  1.
         11    1    1    2    0    0 -0.20460198879E+02  0.37485739369E+02  0.19654664412E+02  0.47011766903E+02  0.00000000000E+00 0. -1.
</event>
<event>
 7    1  0.2686828E-009  0.9197292E+02  0.7561462E-02  0.1298143E+00
         -1   -1    0    0    0  501 -0.00000000000E+00  0.00000000000E+00  0.12375909559E+02  0.12375909559E+02  0.00000000000E+00 0.  1.
          1   -1    0    0  501    0  0.00000000000E+00 -0.00000000000E+00 -0.11470732530E+04  0.11470732530E+04  0.00000000000E+00 0. -1.
         25    2    1    2    0    0  0.49130476192E+00 -0.36679302827E+02 -0.78674679584E+03  0.79747334706E+03  0.12509039079E+03 0.  0.
          5    1    3    3  502    0  0.29865360108E+02 -0.46617213322E+02 -0.14979254890E+03  0.15975100757E+03  0.41800000000E+01 0.  1.
         -5    1    3    3    0  502 -0.29374055346E+02  0.99379104952E+01 -0.63695424694E+03  0.63772233949E+03  0.41800000000E+01 0.  1.
        -11    1    1    2    0    0  0.65242385511E+01  0.66337796521E+02 -0.19677164862E+03  0.20775550687E+03  0.00000000000E+00 0.  1.
         11    1    1    2    0    0 -0.70155433130E+01 -0.29658493694E+02 -0.15117889899E+03  0.15422030863E+03  0.00000000000E+00 0. -1.
</event>
<event>
 7    1  0.2686828E-009  0.6926847E+02  0.7561462E-02  0.1362598E+00
         -4   -1    0    0    0  501 -0.00000000000E+00  0.00000000000E+00  0.11375370909E+03  0.11375370909E+03  0.00000000000E+00 0.  1.
          4   -1    0    0  501    0  0.00000000000E+00 -0.00000000000E+00 -0.13913266654E+03  0.13913266654E+03  0.00000000000E+00 0. -1.
         25    2    1    2    0    0 -0.22878516408E+01  0.30401343208E+02 -0.69391210089E+02  0.14626259615E+03  0.12509249003E+03 0.  0.
          5    1    3    3  502    0  0.15895356646E+02  0.37033793666E+01  0.33955096840E+02  0.37905123440E+02  0.41800000000E+01 0.  1.
         -5    1    3    3    0  502 -0.18183208286E+02  0.26697963841E+02 -0.10334630693E+03  0.10835747271E+03  0.41800000000E+01 0.  1.
        -11    1    1    2    0    0  0.19045347683E+02 -0.55647482351E+02  0.76826084543E+01  0.59316018351E+02  0.00000000000E+00 0. -1.
         11    1    1    2    0    0 -0.16757496042E+02  0.25246139143E+02  0.36329644187E+02  0.47307761117E+02  0.00000000000E+00 0.  1.
</event>
<event>
 7    1  0.2686828E-009  0.9162811E+02  0.7561462E-02  0.1298956E+00
          3   -1    0    0  501    0  0.00000000000E+00  0.00000000000E+00  0.12202836900E+03  0.12202836900E+03  0.00000000000E+00 0. -1.
         -3   -1    0    0    0  501 -0.00000000000E+00 -0.00000000000E+00 -0.16863219081E+03  0.16863219081E+03  0.00000000000E+00 0.  1.
         25    2    1    2    0    0  0.56205488621E+02 -0.17483944650E+02  0.49136815190E+02  0.14671753804E+03  0.12508742579E+03 0.  0.
          5    1    3    3  502    0 -0.16272162731E+02  0.29561241285E+02  0.49686891090E+02  0.60207223923E+02  0.41800000000E+01 0.  1.
         -5    1    3    3    0  502  0.72477651353E+02 -0.47045185936E+02 -0.55007590052E+00  0.86510314118E+02  0.41800000000E+01 0.  1.
        -11    1    1    2    0    0 -0.11743453480E+02  0.13816279143E+02  0.15648773401E+02  0.23951667540E+02  0.00000000000E+00 0. -1.
         11    1    1    2    0    0 -0.44462035142E+02  0.36676655068E+01 -0.11138941040E+03  0.11999135423E+03  0.00000000000E+00 0.  1.
</event>
<event>
 7    1  0.2686828E-009  0.9840382E+02  0.7561462E-02  0.1283689E+00
          1   -1    0    0  501    0  0.00000000000E+00  0.00000000000E+00  0.63224906819E+03  0.63224906819E+03  0.00000000000E+00 0. -1.
         -1   -1    0    0    0  501 -0.00000000000E+00 -0.00000000000E+00 -0.25831452783E+02  0.25831452783E+02  0.00000000000E+00 0.  1.
         25    2    1    2    0    0  0.40082162357E+02  0.21978640860E+02  0.46981658998E+03  0.48832946407E+03  0.12509355247E+03 0.  0.
          5    1    3    3  502    0 -0.31922037938E+00  0.47776217782E+02  0.40380073797E+03  0.40663887821E+03  0.41800000000E+01 0. -1.
         -5    1    3    3    0  502  0.40401382736E+02 -0.25797576922E+02  0.66015852012E+02  0.81690585865E+02  0.41800000000E+01 0. -1.
        -11    1    1    2    0    0  0.97646704722E+01  0.28296010932E+02  0.42914731673E+02  0.52322912941E+02  0.00000000000E+00 0. -1.
         11    1    1    2    0    0 -0.49846832829E+02 -0.50274651792E+02  0.93686293753E+02  0.11742814396E+03  0.00000000000E+00 0.  1.
</event>
<event>
 7    1  0.2686828E-009  0.1231360E+03  0.7561462E-02  0.1238012E+00
         -3   -1    0    0    0  501 -0.00000000000E+00  0.00000000000E+00  0.77937210702E+03  0.77937210702E+03  0.00000000000E+00 0.  1.
          3   -1    0    0  501    0  0.00000000000E+00 -0.00000000000E+00 -0.24604081431E+02  0.24604081431E+02  0.00000000000E+00 0. -1.
         25    2    1    2    0    0 -0.26954199365E+02 -0.48794785023E+02  0.44704416503E+03  0.46755039782E+03  0.12508968424E+03 0.  0.
          5    1    3    3  502    0  0.42504614804E+02 -0.45970523479E+02  0.15291129780E+03  0.16528541588E+03  0.41800000000E+01 0. -1.
         -5    1    3    3    0  502 -0.69458814169E+02 -0.28242615437E+01  0.29413286723E+03  0.30226498194E+03  0.41800000000E+01 0. -1.
        -11    1    1    2    0    0  0.61477890672E+02  0.50139525942E+02  0.28308367719E+03  0.29398957701E+03  0.00000000000E+00 0.  1.
         11    1    1    2    0    0 -0.34523691307E+02 -0.13447409198E+01  0.24640183368E+02  0.42436213615E+02  0.00000000000E+00 0. -1.
</event>
<event>
 7    1  0.2686828E-009  0.7668279E+02  0.7561462E-02  0.1338738E+00
          2   -1    0    0  501    0  0.00000000000E+00  0.00000000000E+00  0.12709618820E+03  0.12709618820E+03  0.00000000000E+00 0. -1.
         -2   -1    0    0    0  501 -0.00000000000E+00 -0.00000000000E+00 -0.13443660503E+03  0.13443660503E+03  0.00000000000E+00 0.  1.
         25    2    1    2    0    0  0.40051504771E+02 -0.16791140194E+02  0.54684471788E+02  0.14326021199E+03  0.12508809480E+03 0.  0.
          5    1    3    3  502    0 -0.16493914300E+02 -0.25252583628E+02 -0.28849801724E+02  0.41946700089E+02  0.41800000000E+01 0.  1.
         -5    1    3    3    0  502  0.56545419071E+02  0.84614434341E+01  0.83534273512E+02  0.10131351190E+03  0.41800000000E+01 0.  1.
        -11    1    1    2    0    0  0.99966360819E+01 -0.47899375033E+01  0.18185123421E+02  0.21297299079E+02  0.00000000000E+00 0. -1.
         11    1    1    2    0    0 -0.50048140853E+02  0.21581077697E+02 -0.80210012038E+02  0.96975282152E+02  0.00000000000E+00 0.  1.
</event>
<event>
 7    1  0.2686828E-009  0.1229544E+03  0.7561462E-02  0.1238301E+00
         -2   -1    0    0    0  501 -0.00000000000E+00  0.00000000000E+00  0.26079264409E+02  0.26079264409E+02  0.00000000000E+00 0.  1.
          2   -1    0    0  501    0  0.00000000000E+00 -0.00000000000E+00 -0.69224533533E+03  0.69224533533E+03  0.00000000000E+00 0. -1.
         25    2    1    2    0    0  0.63075500700E+02 -0.63743659695E+01 -0.47710762003E+03  0.49729120294E+03  0.12509079944E+03 0.  0.
          5    1    3    3  502    0  0.83801254208E+02 -0.40365090164E+02 -0.25198048625E+03  0.26863288809E+03  0.41800000000E+01 0. -1.
         -5    1    3    3    0  502 -0.20725753507E+02  0.33990724194E+02 -0.22512713378E+03  0.22865831486E+03  0.41800000000E+01 0. -1.
        -11    1    1    2    0    0 -0.10325349395E+02  0.45777037834E+02 -0.98090369622E+02  0.10873762295E+03  0.00000000000E+00 0. -1.
         11    1    1    2    0    0 -0.52750151306E+02 -0.39402671865E+02 -0.90968081266E+02  0.11229577384E+03  0.00000000000E+00 0.  1.
</event>
<event>
 7    1  0.2686828E-009  0.1245683E+03  0.7561462E-02  0.1235746E+00
          2   -1    0    0  501    0  0.00000000000E+00  0.00000000000E+00  0.70392033889E+02  0.70392033889E+02  0.00000000000E+00 0. -1.
         -2   -1    0    0    0  501 -0.00000000000E+00 -0.00000000000E+00 -0.38699726876E+03  0.38699726876E+03  0.00000000000E+00 0.  1.
         25    2    1    2    0    0  0.10195717097E+03  0.44452345564E+02 -0.95492428813E+02  0.19270925380E+03  0.12508707688E+03 0.  0.
          5    1    3    3  502    0  0.37724957922E+02  0.33188609248E+02 -0.11411845714E+03  0.12476037390E+03  0.41800000000E+01 0.  1.
         -5    1    3    3    0  502  0.64232213047E+02  0.11263736316E+02  0.18626028332E+02  0.67948879904E+02  0.41800000000E+01 0.  1.
        -11    1    1    2    0    0 -0.72031193774E+02 -0.65037681626E+02 -0.20089943586E+03  0.22311202620E+03  0.00000000000E+00 0.  1.
         11    1    1    2    0    0 -0.29925977194E+02  0.20585336063E+02 -0.20213370202E+02  0.41568022647E+02  0.00000000000E+00 0. -1.
</event>
<event>
 7    1  0.2686828E-009  0.2223767E+03  0.7561462E-02  0.1132123E+00
         -2   -1    0    0    0  501 -0.00000000000E+00  0.00000000000E+00  0.76747579115E+03  0.76747579115E+03  0.00000000000E+00 0.  1.
          2   -1    0    0  501    0  0.00000000000E+00 -0.00000000000E+00 -0.89432576435E+02  0.89432576435E+02  0.00000000000E+00 0. -1.
         25    2    1    2    0    0 -0.20963869956E+03 -0.22449878479E+02  0.53083991419E+03  0.58471421253E+03  0.12508922594E+03 0.  0.
          5    1    3    3  502    0 -0.16790508973E+03  0.11134849191E+02  0.48731036586E+03  0.51556276931E+03  0.41800000000E+01 0. -1.
         -5    1    3    3    0  502 -0.41733609831E+02 -0.33584727670E+02  0.43529548325E+02  0.69151443221E+02  0.41800000000E+01 0. -1.
        -11    1    1    2    0    0  0.10921213832E+03  0.47651913225E+02  0.11001799552E+03  0.16217877583E+03  0.00000000000E+00 0.  1.
         11    1    1    2    0    0  0.10042656124E+03 -0.25202034746E+02  0.37185305005E+02  0.11001537922E+03  0.00000000000E+00 0. -1.
</event>
<event>
 7    1  0.2686828E-009  0.1944492E+03  0.7561462E-02  0.1154509E+00
         -1   -1    0    0    0  501 -0.00000000000E+00  0.00000000000E+00  0.13090002677E+03  0.13090002677E+03  0.00000000000E+00 0.  1.
          1   -1    0    0  501    0  0.00000000000E+00 -0.00000000000E+00 -0.29571367780E+03  0.29571367780E+03  0.00000000000E+00 0. -1.
         25    2    1    2    0    0 -0.16289833189E+03 -0.15777755816E+02 -0.92913490945E+02  0.22597695757E+03  0.12509142433E+03 0.  0.
          5    1    3    3  502    0 -0.69259361658E+02 -0.65572727053E+02 -0.67262440621E+02  0.11678334654E+03  0.41800000000E+01 0. -1.
         -5    1    3    3    0  502 -0.93638970231E+02  0.49794971237E+02 -0.25651050325E+02  0.10919361103E+03  0.41800000000E+01 0. -1.
        -11    1    1    2    0    0  0.14142954420E+03  0.47321253113E+02 -0.58388506917E+02  0.16015877968E+03  0.00000000000E+00 0. -1.
         11    1    1    2    0    0  0.21468787690E+02 -0.31543497298E+02 -0.13511653168E+02  0.40477967315E+02  0.00000000000E+00 0.  1.
</event>
<event>
 7    1  0.2686828E-009  0.1464921E+03  0.7561462E-02  0.1204851E+00
          1   -1    0    0  501    0  0.00000000000E+00  0.00000000000E+00  0.33183759869E+03  0.33183759869E+03  0.00000000000E+00 0. -1.
         -1   -1    0    0    0  501 -0.00000000000E+00 -0.00000000000E+00 -0.74023427353E+02  0.74023427353E+02  0.00000000000E+00 0.  1.
         25    2    1    2    0    0  0.78213941814E+02  0.77453989387E+02  0.17209253029E+03  0.23954107112E+03  0.12509014592E+03 0.  0.
          5    1    3    3  502    0  0.59134685874E+02 -0.12504229634E+02  0.23994373174E+02  0.65164938243E+02  0.41800000000E+01 0.  1.
         -5    1    3    3    0  502  0.19079255940E+02  0.89958219021E+02  0.14809815711E+03  0.17437613288E+03  0.41800000000E+01 0.  1.
        -11    1    1    2    0    0 -0.51404230208E+02 -0.95200638564E+02  0.53111108043E+02  0.12052529305E+03  0.00000000000E+00 0.  1.
         11    1    1    2    0    0 -0.26809711606E+02  0.17746649177E+02  0.32610533007E+02  0.45794661877E+02  0.00000000000E+00 0. -1.
</event>
<event>
 7    1  0.2686828E-009  0.1631421E+03  0.7561462E-02  0.1185194E+00
         -2   -1    0    0    0  501 -0.00000000000E+00  0.00000000000E+00  0.34310895879E+02  0.34310895879E+02  0.00000000000E+00 0.  1.
          2   -1    0    0  501    0  0.00000000000E+00 -0.00000000000E+00 -0.87977715943E+03  0.87977715943E+03  0.00000000000E+00 0. -1.
         25    2    1    2    0    0  0.12300409261E+03  0.32981430213E+02 -0.57054133582E+03  0.59781523538E+03  0.12509139956E+03 0.  0.
          5    1    3    3  502    0  0.14085082024E+03  0.10383035261E+02 -0.38710751344E+03  0.41208792794E+03  0.41800000000E+01 0. -1.
         -5    1    3    3    0  502 -0.17846727636E+02  0.22598394952E+02 -0.18343382237E+03  0.18572730745E+03  0.41800000000E+01 0. -1.
        -11    1    1    2    0    0 -0.36319729452E+02 -0.55502298676E+02 -0.12903720853E+03  0.14508697078E+03  0.00000000000E+00 0.  1.
         11    1    1    2    0    0 -0.86684363156E+02  0.22520868463E+02 -0.14588771920E+03  0.17118584914E+03  0.00000000000E+00 0. -1.
</event>
<event>
 7    1  0.2686828E-009  0.1036568E+03  0.7561462E-02  0.1272789E+00
          3   -1    0    0  501    0  0.00000000000E+00  0.00000000000E+00  0.50732381810E+02  0.50732381810E+02  0.00000000000E+00 0. -1.
         -3   -1    0    0    0  501 -0.00000000000E+00 -0.00000000000E+00 -0.39407364554E+03  0.39407364554E+03  0.00000000000E+00 0.  1.
         25    2    1    2    0    0  0.87952742354E+02 -0.81473129958E+01 -0.22054677443E+03  0.26849587395E+03  0.12508833286E+03 0.  0.
          5    1    3    3  502    0  0.49494547809E+02  0.54703629349E+01 -0.22190490697E+03  0.22746185454E+03  0.41800000000E+01 0.  1.
         -5    1    3    3    0  502  0.38458194545E+02 -0.13617675931E+02  0.13581325310E+01  0.41034019416E+02  0.41800000000E+01 0.  1.
        -11    1    1    2    0    0 -0.10054412089E+03  0.15527689407E+02 -0.75155187947E+02  0.12648530215E+03  0.00000000000E+00 0. -1.
         11    1    1    2    0    0  0.12591378535E+02 -0.73803764111E+01 -0.47639301353E+02  0.49824851257E+02  0.00000000000E+00 0.  1.
</event>
<event>
 7    1  0.2686828E-009  0.7662705E+02  0.7561462E-02  0.1338905E+00
          2   -1    0    0  501    0  0.00000000000E+00  0.00000000000E+00  0.70185802361E+03  0.70185802361E+03  0.00000000000E+00 0. -1.
         -2   -1    0    0    0  501 -0.00000000000E+00 -0.00000000000E+00 -0.21365331994E+02  0.21365331994E+02  0.00000000000E+00 0.  1.
         25    2    1    2    0    0  0.10884862571E+02  0.55697187788E+02  0.35581823709E+03  0.38141352602E+03  0.12509597524E+03 0.  0.
          5    1    3    3  502    0 -0.79383825419E+01  0.29895643825E+02  0.81539221370E+01  0.32260289573E+02  0.41800000000E+01 0. -1.
         -5    1    3    3    0  502  0.18823245113E+02  0.25801543962E+02  0.34766431495E+03  0.34915323644E+03  0.41800000000E+01 0. -1.
        -11    1    1    2    0    0  0.26554732812E+02 -0.42537881912E+02  0.26782499954E+03  0.27247909206E+03  0.00000000000E+00 0.  1.
         11    1    1    2    0    0 -0.37439595383E+02 -0.13159305876E+02  0.56849454983E+02  0.69330737523E+02  0.00000000000E+00 0. -1.
</event>
<event>
 7    1  0.2686828E-009  0.1210493E+03  0.7561462E-02  0.1241376E+00
          1   -1    0    0  501    0  0.00000000000E+00  0.00000000000E+00  0.42871729971E+02  0.42871729971E+02  0.00000000000E+00 0. -1.
         -1   -1    0    0    0  501 -0.00000000000E+00 -0.00000000000E+00 -0.43782758282E+03  0.43782758282E+03  0.00000000000E+00 0.  1.
         25    2    1    2    0    0  0.22677732402E+02  0.73537037850E+02 -0.27242764424E+03  0.30949350314E+03  0.12508969446E+03 0.  0.
          5    1    3    3  502    0  0.62690137696E+02  0.30957148701E+02 -0.21999582143E+03  0.23087666029E+03  0.41800000000E+01 0. -1.
         -5    1    3    3    0  502 -0.40012405294E+02  0.42579889149E+02 -0.52431822815E+02  0.78616842858E+02  0.41800000000E+01 0. -1.
        -11    1    1    2    0    0 -0.39259791062E+02 -0.12146954189E+01 -0.70096091844E+02  0.80350910207E+02  0.00000000000E+00 0.  1.
         11    1    1    2    0    0  0.16582058660E+02 -0.72322342431E+02 -0.52432116766E+02  0.90854899443E+02  0.00000000000E+00 0. -1.
</event>
<event>
 7    1  0.2686828E-009  0.1767689E+03  0.7561462E-02  0.1170967E+00
         -1   -1    0    0    0  501 -0.00000000000E+00  0.00000000000E+00  0.76921123723E+02  0.76921123723E+02  0.00000000000E+00 0.  1.
          1   -1    0    0  501    0  0.00000000000E+00 -0.00000000000E+00 -0.47505349575E+03  0.47505349575E+03  0.00000000000E+00 0. -1.
         25    2    1    2    0    0 -0.14690488028E+03  0.55971753585E+01 -0.28852140895E+03  0.34714145420E+03  0.12510081365E+03 0.  0.
          5    1    3    3  502    0 -0.88589477172E+02 -0.52095735104E+02 -0.20838607531E+03  0.23238823091E+03  0.41800000000E+01 0. -1.
         -5    1    3    3    0  502 -0.58315403112E+02  0.57692910463E+02 -0.80135333640E+02  0.11475322329E+03  0.41800000000E+01 0. -1.
        -11    1    1    2    0    0  0.32283944722E+02 -0.37580691896E+02 -0.12137440346E+02  0.51008616413E+02  0.00000000000E+00 0.  1.
         11    1    1    2    0    0  0.11462093556E+03  0.31983516538E+02 -0.97473522730E+02  0.15382454886E+03  0.00000000000E+00 0. -1.
</event>
<event>
 7    1  0.2686828E-009  0.1570890E+03  0.7561462E-02  0.1192023E+00
          2   -1    0    0  501    0  0.00000000000E+00  0.00000000000E+00  0.97112386959E+03  0.97112386959E+03  0.00000000000E+00 0. -1.
         -2   -1    0    0    0  501 -0.00000000000E+00 -0.00000000000E+00 -0.28183020013E+02  0.28183020013E+02  0.00000000000E+00 0.  1.
         25    2    1    2    0    0 -0.46089773862E+02  0.11628262608E+03  0.54050979613E+03  0.56872142991E+03  0.12508920315E+03 0.  0.
          5    1    3    3  502    0 -0.74446797527E+02  0.12552168088E+03  0.42628916318E+03  0.45059731587E+03  0.41800000000E+01 0. -1.
         -5    1    3    3    0  502  0.28357023665E+02 -0.92390547940E+01  0.11422063295E+03  0.11812411403E+03  0.41800000000E+01 0. -1.
        -11    1    1    2    0    0  0.57532241148E+02 -0.71132487093E+02  0.34347579070E+03  0.35545099281E+03  0.00000000000E+00 0. -1.
         11    1    1    2    0    0 -0.11442467286E+02 -0.45150138990E+02  0.58955262753E+02  0.75134466889E+02  0.00000000000E+00 0.  1.
</event>
<event>
 7    1  0.2686828E-009  0.1320974E+03  0.7561462E-02  0.1224376E+00
          3   -1    0    0  501    0  0.00000000000E+00  0.00000000000E+00  0.20653149487E+02  0.20653149487E+02  0.00000000000E+00 0.  1.
         -3   -1    0    0    0  501 -0.00000000000E+00 -0.00000000000E+00 -0.12597423097E+04  0.12597423097E+04  0.00000000000E+00 0. -1.
         25    2    1    2    0    0  0.22844066766E+02  0.11659518431E+03 -0.67088325333E+03  0.69271136410E+03  0.12509358886E+03 0.  0.
          5    1    3    3  502    0  0.41129374322E+01  0.23224291379E+02 -0.46733551717E+03  0.46794897368E+03  0.41800000000E+01 0.  1.
         -5    1    3    3    0  502  0.18731129334E+02  0.93370892928E+02 -0.20354773616E+03  0.22476239042E+03  0.41800000000E+01 0.  1.
        -11    1    1    2    0    0 -0.52258120543E+02 -0.95013223245E+02 -0.34883449417E+03  0.36529977837E+03  0.00000000000E+00 0.  1.
         11    1    1    2    0    0  0.29414053777E+02 -0.21581961062E+02 -0.21937141277E+03  0.22238431676E+03  0.00000000000E+00 0. -1.
</event>
<event>
 7    1  0.2686828E-009  0.7644838E+02  0.7561462E-02  0.1339444E+00
          1   -1    0    0  501    0  0.00000000000E+00  0.00000000000E+00  0.84981314321E+02  0.84981314321E+02  0.00000000000E+00 0. -1.
         -1   -1    0    0    0  501 -0.00000000000E+00 -0.00000000000E+00 -0.17334728946E+03  0.17334728946E+03  0.00000000000E+00 0.  1.
         25    2    1    2    0    0 -0.10689855583E+02 -0.45767997854E+02 -0.84890007545E+02  0.15830993970E+03  0.12508693372E+03 0.  0.
          5    1    3    3  502    0  0.63368957243E+01  0.31835605785E+01  0.30582248138E+02  0.31670768960E+02  0.41800000000E+01 0. -1.
         -5    1    3    3    0  502 -0.17026751307E+02 -0.48951558432E+02 -0.11547225568E+03  0.12663917074E+03  0.41800000000E+01 0. -1.
        -11    1    1    2    0    0 -0.30884416622E+02  0.40243653962E+02 -0.20554844871E+02  0.54734820014E+02  0.00000000000E+00 0. -1.
         11    1    1    2    0    0  0.41574272205E+02  0.55243438914E+01  0.17078877273E+02  0.45283844070E+02  0.00000000000E+00 0.  1.
</event>
<event>
 7    1  0.2686828E-009  0.1758642E+03  0.7561462E-02  0.1171867E+00
          1   -1    0    0  501    0  0.00000000000E+00  0.00000000000E+00  0.42763798494E+03  0.42763798494E+03  0.00000000000E+00 0. -1.
         -1   -1    0    0    0  501 -0.00000000000E+00 -0.00000000000E+00 -0.78750430174E+02  0.78750430174E+02  0.00000000000E+00 0.  1.
         25    2    1    2    0    0 -0.10723018753E+03 -0.92533207018E+02  0.12577439128E+03  0.22699812780E+03  0.12509294546E+03 0.  0.
          5    1    3    3  502    0 -0.34240257915E+02 -0.10426243075E+03  0.10019691335E+03  0.14866049769E+03  0.41800000000E+01 0. -1.
         -5    1    3    3    0  502 -0.72989929617E+02  0.11729223730E+02  0.25577477928E+02  0.78337630115E+02  0.41800000000E+01 0. -1.
        -11    1    1    2    0    0  0.92396979016E+01  0.65588460847E+02  0.96292659187E+02  0.11687383979E+03  0.00000000000E+00 0. -1.
         11    1    1    2    0    0  0.97990489631E+02  0.26944746171E+02  0.12682050430E+03  0.16251644752E+03  0.00000000000E+00 0.  1.
</event>
<event>
 7    1  0.2686828E-009  0.1531670E+03  0.7561462E-02  0.1196635E+00
          2   -1    0    0  501    0  0.00000000000E+00  0.00000000000E+00  0.25161178825E+03  0.25161178825E+03  0.00000000000E+00 0. -1.
         -2   -1    0    0    0  501 -0.00000000000E+00 -0.00000000000E+00 -0.23899576084E+03  0.23899576084E+03  0.00000000000E+00 0.  1.
         25    2    1    2    0    0  0.22257990283E+02 -0.14047523332E+03 -0.16080240719E+03  0.24846371948E+03  0.12509235160E+03 0.  0.
          5    1    3    3  502    0  0.29148663902E+02 -0.11961106168E+03 -0.45981586623E+02  0.13148471163E+03  0.41800000000E+01 0.  1.
         -5    1    3    3    0  502 -0.68906736187E+01 -0.20864171640E+02 -0.11482082057E+03  0.11697900785E+03  0.41800000000E+01 0.  1.
        -11    1    1    2    0    0  0.21891231515E+02  0.94664817207E+02  0.66543603561E+02  0.11776546526E+03  0.00000000000E+00 0.  1.
         11    1    1    2    0    0 -0.44149221798E+02  0.45810416114E+02  0.10687483104E+03  0.12437836435E+03  0.00000000000E+00 0. -1.
</event>
<event>
 7    1  0.2686828E-009  0.1463472E+03  0.7561462E-02  0.1205035E+00
          2   -1    0    0  501    0  0.00000000000E+00  0.00000000000E+00  0.53435516832E+03  0.53435516832E+03  0.00000000000E+00 0. -1.
         -2   -1    0    0    0  501 -0.00000000000E+00 -0.00000000000E+00 -0.14963609667E+03  0.14963609667E+03  0.00000000000E+00 0.  1.
         25    2    1    2    0    0 -0.13899724199E+03  0.23462054577E+02  0.46430714948E+03  0.50109806402E+03  0.12508972550E+03 0.  0.
          5    1    3    3  502    0 -0.10413568900E+02  0.61386104130E+01 -0.53253009817E+01  0.13854825354E+02  0.41800000000E+01 0. -1.
         -5    1    3    3    0  502 -0.12858367309E+03  0.17323444164E+02  0.46963245046E+03  0.48724323867E+03  0.41800000000E+01 0. -1.
        -11    1    1    2    0    0  0.80200526071E+02 -0.39137945621E+02 -0.83101076408E+02  0.12194134684E+03  0.00000000000E+00 0.  1.
         11    1    1    2    0    0  0.58796715920E+02  0.15675891044E+02  0.35129985774E+01  0.60951854131E+02  0.00000000000E+00 0. -1.
</event>
<event>
 7    1  0.2686828E-009  0.1125803E+03  0.7561462E-02  0.1255865E+00
         -1   -1    0    0    0  501 -0.00000000000E+00  0.00000000000E+00  0.32794502817E+02  0.32794502817E+02  0.00000000000E+00 0.  1.
          1   -1    0    0  501    0  0.00000000000E+00 -0.00000000000E+00 -0.62281979641E+03  0.62281979641E+03  0.00000000000E+00 0. -1.
         25    2    1    2    0    0  0.37747689907E+02  0.51269721500E+02 -0.48484067494E+03  0.50474885788E+03  0.12508979581E+03 0.  0.
          5    1    3    3  502    0  0.18566204005E+02  0.91517888971E+02 -0.28443650100E+03  0.29940244393E+03  0.41800000000E+01 0.  1.
         -5    1    3    3    0  502  0.19181485902E+02 -0.40248167472E+02 -0.20040417395E+03  0.20534641395E+03  0.41800000000E+01 0.  1.
        -11    1    1    2    0    0 -0.38349494425E+02 -0.63757259253E+02 -0.39961012093E+02  0.84454451142E+02  0.00000000000E+00 0.  1.
         11    1    1    2    0    0  0.60180451833E+00  0.12487537754E+02 -0.65223606558E+02  0.66410990207E+02  0.00000000000E+00 0. -1.
</event>
<event>
 7    1  0.2686828E-009  0.1084504E+03  0.7561462E-02  0.1263467E+00
          1   -1    0    0  501    0  0.00000000000E+00  0.00000000000E+00  0.22692941170E+03  0.22692941170E+03  0.00000000000E+00 0. -1.
         -1   -1    0    0    0  501 -0.00000000000E+00 -0.00000000000E+00 -0.66224925332E+02  0.66224925332E+02  0.00000000000E+00 0.  1.
         25    2    1    2    0    0 -0.51370237738E+02  0.13482259715E+02  0.72762754301E+02  0.15415135277E+03  0.12509016146E+03 0.  0.
          5    1    3    3  502    0  0.76476679484E+01  0.42552540716E+02 -0.13589944902E+02  0.45512246142E+02  0.41800000000E+01 0.  1.
         -5    1    3    3    0  502 -0.59017905686E+02 -0.29070281001E+02  0.86352699202E+02  0.10863910663E+03  0.41800000000E+01 0.  1.
        -11    1    1    2    0    0  0.37708063095E+02  0.38443750461E+02  0.40969923086E+02  0.67663539440E+02  0.00000000000E+00 0.  1.
         11    1    1    2    0    0  0.13662174643E+02 -0.51926010177E+02  0.46971808980E+02  0.71339444823E+02  0.00000000000E+00 0. -1.
</event>
<event>
 7    1  0.2686828E-009  0.7932276E+02  0.7561462E-02  0.1330984E+00
          1   -1    0    0  501    0  0.00000000000E+00  0.00000000000E+00  0.11059695559E+03  0.11059695559E+03  0.00000000000E+00 0. -1.
         -1   -1    0    0    0  501 -0.00000000000E+00 -0.00000000000E+00 -0.13497936268E+03  0.13497936268E+03  0.00000000000E+00 0.  1.
         25    2    1    2    0    0 -0.32110151823E+02 -0.37710564600E+02  0.10925086112E+02  0.13498070627E+03  0.12508910834E+03 0.  0.
          5    1    3    3  502    0 -0.28558297840E+02 -0.38685425618E+02  0.64810258093E+02  0.80808294654E+02  0.41800000000E+01 0. -1.
         -5    1    3    3    0  502 -0.35518539824E+01  0.97486101836E+00 -0.53885171981E+02  0.54172411615E+02  0.41800000000E+01 0. -1.
        -11    1    1    2    0    0 -0.11021892860E+01  0.63033608205E+02 -0.21233771732E+02  0.66523106110E+02  0.00000000000E+00 0.  1.
         11    1    1    2    0    0  0.33212341109E+02 -0.25323043605E+02 -0.14073721466E+02  0.44072505888E+02  0.00000000000E+00 0. -1.
</event>
<event>
 7    1  0.2686828E-009  0.8633674E+02  0.7561462E-02  0.1311973E+00
         -2   -1    0    0    0  501 -0.00000000000E+00  0.00000000000E+00  0.11869451945E+03  0.11869451945E+03  0.00000000000E+00 0.  1.
          2   -1    0    0  501    0  0.00000000000E+00 -0.00000000000E+00 -0.17195256052E+03  0.17195256052E+03  0.00000000000E+00 0. -1.
         25    2    1    2    0    0  0.52147461849E+02  0.43805814460E+02  0.34313544616E+02  0.14650369139E+03  0.12509038768E+03 0.  0.
          5    1    3    3  502    0  0.21831248328E+02  0.59594783244E+02  0.71584324033E+02  0.95759748541E+02  0.41800000000E+01 0. -1.
         -5    1    3    3    0  502  0.30316213521E+02 -0.15788968783E+02 -0.37270779416E+02  0.50743942848E+02  0.41800000000E+01 0. -1.
        -11    1    1    2    0    0 -0.28159204046E+02 -0.44021939531E+01  0.14612524607E+02  0.32028830130E+02  0.00000000000E+00 0.  1.
         11    1    1    2    0    0 -0.23988257803E+02 -0.39403620507E+02 -0.10218411029E+03  0.11211455846E+03  0.00000000000E+00 0. -1.
</event>
<event>
 7    1  0.2686828E-009  0.2261602E+03  0.7561462E-02  0.1129372E+00
         -2   -1    0    0    0  501 -0.00000000000E+00  0.00000000000E+00  0.32550348521E+03  0.32550348521E+03  0.00000000000E+00 0.  1.
          2   -1    0    0  501    0  0.00000000000E+00 -0.00000000000E+00 -0.24906075715E+03  0.24906075715E+03  0.00000000000E+00 0. -1.
         25    2    1    2    0    0 -0.10064248457E+03  0.18330247363E+03 -0.12138176967E+03  0.27223128908E+03  0.12509050406E+03 0.  0.
          5    1    3    3  502    0 -0.60895981421E+01 -0.88735567630E+01 -0.42356540679E+02  0.43901846812E+02  0.41800000000E+01 0.  1.
         -5    1    3    3    0  502 -0.94552886426E+02  0.19217603039E+03 -0.79025228986E+02  0.22832944227E+03  0.41800000000E+01 0. -1.
        -11    1    1    2    0    0  0.13262928691E+02 -0.11470150482E+03  0.80491869869E+02  0.14075255451E+03  0.00000000000E+00 0.  1.
         11    1    1    2    0    0  0.87379555877E+02 -0.68600968811E+02  0.11733262785E+03  0.16158039877E+03  0.00000000000E+00 0. -1.
</event>
<event>
 7    1  0.2686828E-009  0.1040004E+03  0.7561462E-02  0.1272102E+00
          1   -1    0    0  501    0  0.00000000000E+00  0.00000000000E+00  0.71388018947E+03  0.71388018947E+03  0.00000000000E+00 0. -1.
         -1   -1    0    0    0  501 -0.00000000000E+00 -0.00000000000E+00 -0.19465324428E+02  0.19465324428E+02  0.00000000000E+00 0.  1.
         25    2    1    2    0    0  0.40011209342E+02 -0.54709708289E+01  0.32042160822E+03  0.34633376229E+03  0.12508492912E+03 0.  0.
          5    1    3    3  502    0  0.72934618044E+02  0.23106151693E+02  0.12964191705E+03  0.15059167245E+03  0.41800000000E+01 0.  1.
         -5    1    3    3    0  502 -0.32923408702E+02 -0.28577122522E+02  0.19077969117E+03  0.19574208984E+03  0.41800000000E+01 0.  1.
        -11    1    1    2    0    0 -0.56994217804E+02  0.24536117201E+02  0.33289066512E+03  0.33862450713E+03  0.00000000000E+00 0. -1.
         11    1    1    2    0    0  0.16983008462E+02 -0.19065146372E+02  0.41102591703E+02  0.48387244469E+02  0.00000000000E+00 0.  1.
</event>
<event>
 7    1  0.2686828E-009  0.1903382E+03  0.7561462E-02  0.1158157E+00
         -1   -1    0    0    0  501 -0.00000000000E+00  0.00000000000E+00  0.55499530830E+02  0.55499530830E+02  0.00000000000E+00 0.  1.
          1   -1    0    0  501    0  0.00000000000E+00 -0.00000000000E+00 -0.95535153673E+03  0.95535153673E+03  0.00000000000E+00 0. -1.
         25    2    1    2    0    0  0.16783052142E+03 -0.41813174334E+02 -0.69322801584E+03  0.72534716130E+03  0.12509195413E+03 0.  0.
          5    1    3    3  502    0  0.18257328219E+03 -0.24919013681E+02 -0.65842547654E+03  0.68373645593E+03  0.41800000000E+01 0.  1.
         -5    1    3    3    0  502 -0.14742760771E+02 -0.16894160653E+02 -0.34802539301E+02  0.41610705367E+02  0.41800000000E+01 0.  1.
        -11    1    1    2    0    0 -0.78948731043E+02  0.12302474516E+02 -0.16436758003E+03  0.18275927986E+03  0.00000000000E+00 0. -1.
         11    1    1    2    0    0 -0.88881790378E+02  0.29510699819E+02 -0.42256410030E+02  0.10274462640E+03  0.00000000000E+00 0.  1.
</event>
<event>
 7    1  0.2686828E-009  0.1051365E+03  0.7561462E-02  0.1269851E+00
         -1   -1    0    0    0  501 -0.00000000000E+00  0.00000000000E+00  0.40234793101E+03  0.40234793101E+03  0.00000000000E+00 0.  1.
          1   -1    0    0  501    0  0.00000000000E+00 -0.00000000000E+00 -0.29632449098E+02  0.29632449098E+02  0.00000000000E+00 0. -1.
         25    2    1    2    0    0 -0.21632091128E+01  0.18594434309E+01  0.24673145277E+03  0.27664288018E+03  0.12508691525E+03 0.  0.
          5    1    3    3  502    0  0.35988456797E+02  0.47571184957E+02  0.16451293799E+03  0.17504332557E+03  0.41800000000E+01 0.  1.
         -5    1    3    3    0  502 -0.38151665910E+02 -0.45711741526E+02  0.82218514780E+02  0.10159955461E+03  0.41800000000E+01 0.  1.
        -11    1    1    2    0    0  0.93697919928E+01  0.43684601436E+02  0.65326351817E+02  0.79143348718E+02  0.00000000000E+00 0.  1.
         11    1    1    2    0    0 -0.72065828800E+01 -0.45544044867E+02  0.60657677329E+02  0.76194151209E+02  0.00000000000E+00 0. -1.
</event>
<event>
 7    1  0.2686828E-009  0.6332391E+02  0.7561462E-02  0.1384390E+00
          2   -1    0    0  501    0  0.00000000000E+00  0.00000000000E+00  0.27537885297E+03  0.27537885297E+03  0.00000000000E+00 0. -1.
         -2   -1    0    0    0  501 -0.00000000000E+00 -0.00000000000E+00 -0.43094681679E+02  0.43094681679E+02  0.00000000000E+00 0.  1.
         25    2    1    2    0    0 -0.15404494161E+01  0.12001137280E+02  0.14727670260E+03  0.19360864752E+03  0.12508989162E+03 0.  0.
          5    1    3    3  502    0  0.19528693804E+02  0.30854259368E+02  0.15864784025E+03  0.16284951587E+03  0.41800000000E+01 0. -1.
         -5    1    3    3    0  502 -0.21069143220E+02 -0.18853122088E+02 -0.11371137651E+02  0.30759131652E+02  0.41800000000E+01 0. -1.
        -11    1    1    2    0    0  0.20344024466E+02 -0.29362286091E+02 -0.38107342359E+00  0.35723499169E+02  0.00000000000E+00 0.  1.
         11    1    1    2    0    0 -0.18803575050E+02  0.17361148810E+02  0.85388542118E+02  0.89141387962E+02  0.00000000000E+00 0. -1.
</event>
<event>
 7    1  0.2686828E-009  0.1044199E+03  0.7561462E-02  0.1271267E+00
         -2   -1    0    0    0  501 -0.00000000000E+00  0.00000000000E+00  0.58086326867E+02  0.58086326867E+02  0.00000000000E+00 0.  1.
          2   -1    0    0  501    0  0.00000000000E+00 -0.00000000000E+00 -0.24199234967E+03  0.24199234967E+03  0.00000000000E+00 0. -1.
         25    2    1    2    0    0  0.31589055770E+01  0.47314073080E+02 -0.10925008050E+03  0.17272004553E+03  0.12509210143E+03 0.  0.
          5    1    3    3  502    0  0.41638634538E+02 -0.27051269096E+02 -0.37318559284E+02  0.62255074596E+02  0.41800000000E+01 0.  1.
         -5    1    3    3    0  502 -0.38479728961E+02  0.74365342176E+02 -0.71931521219E+02  0.11046497093E+03  0.41800000000E+01 0.  1.
        -11    1    1    2    0    0 -0.30489744685E+02 -0.30274296530E+02  0.32178940115E+01  0.43087264977E+02  0.00000000000E+00 0.  1.
         11    1    1    2    0    0  0.27330839108E+02 -0.17039776550E+02 -0.77873836311E+02  0.84271366033E+02  0.00000000000E+00 0. -1.
</event>
<event>
 7    1  0.2686828E-009  0.1169908E+03  0.7561462E-02  0.1248145E+00
          1   -1    0    0  501    0  0.00000000000E+00  0.00000000000E+00  0.67084537468E+03  0.67084537468E+03  0.00000000000E+00 0. -1.
         -1   -1    0    0    0  501 -0.00000000000E+00 -0.00000000000E+00 -0.32468708568E+02  0.32468708568E+02  0.00000000000E+00 0.  1.
         25    2    1    2    0    0 -0.93573735806E+02 -0.30516222496E+02  0.39458227603E+03  0.42547566998E+03  0.12508832606E+03 0.  0.
          5    1    3    3  502    0  0.16652216073E+02  0.51192242873E+01  0.44135595678E+01  0.18451413645E+02  0.41800000000E+01 0.  1.
         -5    1    3    3    0  502 -0.11022595188E+03 -0.35635446783E+02  0.39016871646E+03  0.40702425633E+03  0.41800000000E+01 0.  1.
        -11    1    1    2    0    0  0.53691838696E+02  0.27034032736E+02  0.45099588912E+02  0.75150684551E+02  0.00000000000E+00 0.  1.
         11    1    1    2    0    0  0.39881897110E+02  0.34821897597E+01  0.19869480117E+03  0.20268772872E+03  0.00000000000E+00 0. -1.
</event>
<event>
 7    1  0.2686828E-009  0.1148403E+03  0.7561462E-02  0.1251860E+00
         -1   -1    0    0    0  501 -0.00000000000E+00  0.00000000000E+00  0.41315486005E+02  0.41315486005E+02  0.00000000000E+00 0.  1.
          1   -1    0    0  501    0  0.00000000000E+00 -0.00000000000E+00 -0.39088032501E+03  0.39088032501E+03  0.00000000000E+00 0. -1.
         25    2    1    2    0    0  0.22373038690E+02  0.52981727058E+02 -0.26244414196E+03  0.29636500818E+03  0.12509066376E+03 0.  0.
          5    1    3    3  502    0  0.55485219553E+02 -0.84938505147E+01 -0.17812921043E+03  0.18681071461E+03  0.41800000000E+01 0.  1.
         -5    1    3    3    0  502 -0.33112180863E+02  0.61475577573E+02 -0.84314931527E+02  0.10955429356E+03  0.41800000000E+01 0.  1.
        -11    1    1    2    0    0 -0.34609646024E+02 -0.72539132087E+02 -0.74213268030E+02  0.10939544064E+03  0.00000000000E+00 0. -1.
         11    1    1    2    0    0  0.12236607335E+02  0.19557405029E+02 -0.12907429011E+02  0.26435362191E+02  0.00000000000E+00 0.  1.
</event>
<event>
 7    1  0.2686828E-009  0.9780022E+02  0.7561462E-02  0.1284991E+00
         -1   -1    0    0    0  501 -0.00000000000E+00  0.00000000000E+00  0.68476757948E+02  0.68476757948E+02  0.00000000000E+00 0.  1.
          1   -1    0    0  501    0  0.00000000000E+00 -0.00000000000E+00 -0.21795439951E+03  0.21795439951E+03  0.00000000000E+00 0. -1.
         25    2    1    2    0    0  0.48385918343E+02 -0.25842143105E+02 -0.10930109191E+03  0.17493821470E+03  0.12509051449E+03 0.  0.
          5    1    3    3  502    0 -0.10647953888E+02 -0.44050222278E+02  0.41393924433E+01  0.45699102557E+02  0.41800000000E+01 0. -1.
         -5    1    3    3    0  502  0.59033872231E+02  0.18208079173E+02 -0.11344048435E+03  0.12923911214E+03  0.41800000000E+01 0. -1.
        -11    1    1    2    0    0  0.17951331934E+02  0.49734254712E+01 -0.37532051943E+02  0.41900360406E+02  0.00000000000E+00 0. -1.
         11    1    1    2    0    0 -0.66337250277E+02  0.20868717634E+02 -0.26444977103E+01  0.69592582350E+02  0.00000000000E+00 0.  1.
</event>
<event>
 7    1  0.2686828E-009  0.8986963E+02  0.7561462E-02  0.1303168E+00
          2   -1    0    0  501    0  0.00000000000E+00  0.00000000000E+00  0.34690182526E+03  0.34690182526E+03  0.00000000000E+00 0. -1.
         -2   -1    0    0    0  501 -0.00000000000E+00 -0.00000000000E+00 -0.38164354572E+02  0.38164354572E+02  0.00000000000E+00 0.  1.
         25    2    1    2    0    0 -0.30092901097E+02  0.18661071409E+02  0.20604860238E+03  0.24363415254E+03  0.12509098872E+03 0.  0.
          5    1    3    3  502    0  0.28101616176E+02  0.12626100385E+02  0.17407567648E+03  0.17683023719E+03  0.41800000000E+01 0.  1.
         -5    1    3    3    0  502 -0.58194517273E+02  0.60349710241E+01  0.31972925902E+02  0.66803915354E+02  0.41800000000E+01 0.  1.
        -11    1    1    2    0    0 -0.28447554304E+02  0.33046466196E+00  0.60383960217E+02  0.66750244976E+02  0.00000000000E+00 0.  1.
         11    1    1    2    0    0  0.58540455401E+02 -0.18991536071E+02  0.42304908088E+02  0.74681782312E+02  0.00000000000E+00 0. -1.
</event>
<event>
 7    1  0.2686828E-009  0.1027943E+03  0.7561462E-02  0.1274527E+00
          1   -1    0    0  501    0  0.00000000000E+00  0.00000000000E+00  0.12512925573E+02  0.12512925573E+02  0.00000000000E+00 0. -1.
         -1   -1    0    0    0  501 -0.00000000000E+00 -0.00000000000E+00 -0.11913703503E+04  0.11913703503E+04  0.00000000000E+00 0.  1.
         25    2    1    2    0    0 -0.49720495769E+02  0.97634425899E+01 -0.79616814674E+03  0.80752394224E+03  0.12507496513E+03 0.  0.
          5    1    3    3  502    0 -0.67685665803E+02  0.35375949177E+02 -0.27609348683E+03  0.28649239607E+03  0.41800000000E+01 0. -1.
         -5    1    3    3    0  502  0.17965170034E+02 -0.25612506587E+02 -0.52007465991E+03  0.52103154617E+03  0.41800000000E+01 0. -1.
        -11    1    1    2    0    0 -0.43225843103E+01 -0.36839382683E+02 -0.87372507771E+02  0.94919860755E+02  0.00000000000E+00 0. -1.
         11    1    1    2    0    0  0.54043080079E+02  0.27075940093E+02 -0.29531677021E+03  0.30143947287E+03  0.00000000000E+00 0.  1.
</event>
<event>
 7    1  0.2686828E-009  0.1349568E+03  0.7561462E-02  0.1220281E+00
         -2   -1    0    0    0  501 -0.00000000000E+00  0.00000000000E+00  0.19080685919E+02  0.19080685919E+02  0.00000000000E+00 0.  1.
          2   -1    0    0  501    0  0.00000000000E+00 -0.00000000000E+00 -0.17121720045E+04  0.17121720045E+04  0.00000000000E+00 0. -1.
         25    2    1    2    0    0 -0.11068712826E+03  0.11906526291E+02 -0.13184826892E+04  0.13290739363E+04  0.12509005008E+03 0.  0.
          5    1    3    3  502    0  0.13099631707E+02 -0.25341091522E+02 -0.46005335246E+03  0.46095588811E+03  0.41800000000E+01 0.  1.
         -5    1    3    3    0  502 -0.12378675996E+03  0.37247617813E+02 -0.85842933673E+03  0.86811804815E+03  0.41800000000E+01 0.  1.
        -11    1    1    2    0    0  0.28390598601E+02 -0.73308898969E+01 -0.14412472220E+02  0.32672425547E+02  0.00000000000E+00 0.  1.
         11    1    1    2    0    0  0.82296529654E+02 -0.45756363945E+01 -0.36019615717E+03  0.36950632860E+03  0.00000000000E+00 0. -1.
</event>
<event>
 7    1  0.2686828E-009  0.9358118E+02  0.7561462E-02  0.1294404E+00
          1   -1    0    0  501    0  0.00000000000E+00  0.00000000000E+00  0.88864103360E+02  0.88864103360E+02  0.00000000000E+00 0.  1.
         -1   -1    0    0    0  501 -0.00000000000E+00 -0.00000000000E+00 -0.19159673753E+03  0.19159673753E+03  0.00000000000E+00 0. -1.
         25    2    1    2    0    0 -0.58724478739E+01 -0.70518582351E+02 -0.42671484994E+02  0.14992917077E+03  0.12510213633E+03 0.  0.
          5    1    3    3  502    0 -0.57162987171E+01 -0.59379100559E+02  0.36373724203E+02  0.69993384449E+02  0.41800000000E+01 0. -1.
         -5    1    3    3    0  502 -0.15614915680E+00 -0.11139481792E+02 -0.79045209197E+02  0.79935786317E+02  0.41800000000E+01 0. -1.
        -11    1    1    2    0    0 -0.34176458031E+02 -0.21727266509E+00 -0.22997211071E+02  0.41194043356E+02  0.00000000000E+00 0.  1.
         11    1    1    2    0    0  0.40048905905E+02  0.70735855016E+02 -0.37063938110E+02  0.89337626772E+02  0.00000000000E+00 0. -1.
</event>
<event>
 7    1  0.2686828E-009  0.1331980E+03  0.7561462E-02  0.1222786E+00
         -1   -1    0    0    0  501 -0.00000000000E+00  0.00000000000E+00  0.42915592027E+02  0.42915592027E+02  0.00000000000E+00 0.  1.
          1   -1    0    0  501    0  0.00000000000E+00 -0.00000000000E+00 -0.49222663141E+03  0.49222663141E+03  0.00000000000E+00 0. -1.
         25    2    1    2    0    0  0.52576288792E+01 -0.92285634983E+02 -0.20850662511E+03  0.26012901556E+03  0.12509121048E+03 0.  0.
          5    1    3    3  502    0 -0.57770540769E+02 -0.29848774594E+02 -0.70387780294E+02  0.95918177319E+02  0.41800000000E+01 0.  1.
         -5    1    3    3    0  502  0.63028169648E+02 -0.62436860389E+02 -0.13811884481E+03  0.16421083824E+03  0.41800000000E+01 0.  1.
        -11    1    1    2    0    0 -0.31827812012E+02  0.72850052745E+02 -0.87532340724E+02  0.11824572075E+03  0.00000000000E+00 0.  1.
         11    1    1    2    0    0  0.26570183133E+02  0.19435582238E+02 -0.15327207355E+03  0.15676748713E+03  0.00000000000E+00 0. -1.
</event>
<event>
 7    1  0.2686828E-009  0.1104114E+03  0.7561462E-02  0.1259810E+00
          1   -1    0    0  501    0  0.00000000000E+00  0.00000000000E+00  0.23282222806E+03  0.23282222806E+03  0.00000000000E+00 0. -1.
         -1   -1    0    0    0  501 -0.00000000000E+00 -0.00000000000E+00 -0.10436078713E+03  0.10436078713E+03  0.00000000000E+00 0.  1.
         25    2    1    2    0    0 -0.44990344377E+02 -0.72652102683E+02  0.14790554580E+03  0.21172168593E+03  0.12509021824E+03 0.  0.
          5    1    3    3  502    0 -0.32540510261E+02 -0.91641505873E+02  0.46781700970E+02  0.10799560339E+03  0.41800000000E+01 0. -1.
         -5    1    3    3    0  502 -0.12449834116E+02  0.18989403190E+02  0.10112384484E+03  0.10372608253E+03  0.41800000000E+01 0. -1.
        -11    1    1    2    0    0 -0.34640088996E+01  0.43937241512E+02 -0.45549665851E+02  0.63381800293E+02  0.00000000000E+00 0.  1.
         11    1    1    2    0    0  0.48454353276E+02  0.28714861172E+02  0.26105560971E+02  0.62079528970E+02  0.00000000000E+00 0. -1.
</event>
<event>
 7    1  0.2686828E-009  0.1508288E+03  0.7561462E-02  0.1199458E+00
         -1   -1    0    0    0  501 -0.00000000000E+00  0.00000000000E+00  0.13984654615E+03  0.13984654615E+03  0.00000000000E+00 0.  1.
          1   -1    0    0  501    0  0.00000000000E+00 -0.00000000000E+00 -0.17335217488E+03  0.17335217488E+03  0.00000000000E+00 0. -1.
         25    2    1    2    0    0 -0.31909444248E+02  0.10722277120E+03 -0.14403823585E+02  0.16843191553E+03  0.12508758828E+03 0.  0.
          5    1    3    3  502    0 -0.61188233342E+02  0.15261731952E+02 -0.31036278384E+02  0.70410534280E+02  0.41800000000E+01 0.  1.
         -5    1    3    3    0  502  0.29278789094E+02  0.91961039246E+02  0.16632454800E+02  0.98021381253E+02  0.41800000000E+01 0.  1.
        -11    1    1    2    0    0  0.27701668935E+02  0.61742438940E+01  0.48464221211E+01  0.28792213476E+02  0.00000000000E+00 0.  1.
         11    1    1    2    0    0  0.42077753123E+01 -0.11339701509E+03 -0.23948227266E+02  0.11597459202E+03  0.00000000000E+00 0. -1.
</event>
<event>
 7    1  0.2686828E-009  0.1164463E+03  0.7561462E-02  0.1249077E+00
          2   -1    0    0  501    0  0.00000000000E+00  0.00000000000E+00  0.74468869884E+02  0.74468869884E+02  0.00000000000E+00 0. -1.
         -2   -1    0    0    0  501 -0.00000000000E+00 -0.00000000000E+00 -0.22239151549E+03  0.22239151549E+03  0.00000000000E+00 0.  1.
         25    2    1    2    0    0 -0.45909171697E+02  0.48636826669E+02 -0.10134416762E+03  0.17432556978E+03  0.12508225699E+03 0.  0.
          5    1    3    3  502    0 -0.13411897173E+02 -0.42618137829E+02 -0.32927699738E+02  0.55658696246E+02  0.41800000000E+01 0.  1.
         -5    1    3    3    0  502 -0.32497274523E+02  0.91254964498E+02 -0.68416467881E+02  0.11866687353E+03  0.41800000000E+01 0.  1.
        -11    1    1    2    0    0 -0.29365360319E+01 -0.41607657878E+02 -0.58422548771E+02  0.71784501411E+02  0.00000000000E+00 0.  1.
         11    1    1    2    0    0  0.48845707729E+02 -0.70291687912E+01  0.11844070780E+02  0.50750314187E+02  0.00000000000E+00 0. -1.
</event>
<event>
 7    1  0.2686828E-009  0.1268930E+03  0.7561462E-02  0.1232140E+00
          2   -1    0    0  501    0  0.00000000000E+00  0.00000000000E+00  0.37855661704E+03  0.37855661704E+03  0.00000000000E+00 0. -1.
         -2   -1    0    0    0  501 -0.00000000000E+00 -0.00000000000E+00 -0.43261737159E+02  0.43261737159E+02  0.00000000000E+00 0.  1.
         25    2    1    2    0    0 -0.58616919285E+02 -0.21483032108E+02  0.18440487092E+03  0.23141035823E+03  0.12509250010E+03 0.  0.
          5    1    3    3  502    0 -0.70359795139E+01  0.50226907546E+02  0.76787896279E+02  0.92120034000E+02  0.41800000000E+01 0.  1.
         -5    1    3    3    0  502 -0.51580939771E+02 -0.71709939654E+02  0.10761697464E+03  0.13929032423E+03  0.41800000000E+01 0.  1.
        -11    1    1    2    0    0  0.30818076618E+02  0.59712252256E+02  0.72349338076E+02  0.98740739495E+02  0.00000000000E+00 0.  1.
         11    1    1    2    0    0  0.27798842668E+02 -0.38229220148E+02  0.78540670889E+02  0.91667256479E+02  0.00000000000E+00 0. -1.
</event>
<event>
 7    1  0.2686828E-009  0.1758658E+03  0.7561462E-02  0.1171865E+00
          1   -1    0    0  501    0  0.00000000000E+00  0.00000000000E+00  0.51792403193E+02  0.51792403193E+02  0.00000000000E+00 0. -1.
         -1   -1    0    0    0  501 -0.00000000000E+00 -0.00000000000E+00 -0.94935987838E+03  0.94935987838E+03  0.00000000000E+00 0.  1.
         25    2    1    2    0    0  0.13070466236E+03 -0.76379787045E+02 -0.19547819199E+03  0.27708710216E+03  0.12509179832E+03 0.  0.
          5    1    3    3  502    0  0.64020991137E+00 -0.40852655900E+02 -0.10993380174E+03  0.11735528334E+03  0.41800000000E+01 0.  1.
         -5    1    3    3    0  502  0.13006445245E+03 -0.35527131145E+02 -0.85544390249E+02  0.15973181882E+03  0.41800000000E+01 0.  1.
        -11    1    1    2    0    0 -0.10257161671E+03  0.92593936856E+01 -0.36791308293E+03  0.38205589842E+03  0.00000000000E+00 0. -1.
         11    1    1    2    0    0 -0.28133045652E+02  0.67120393359E+02 -0.33417620026E+03  0.34200928099E+03  0.00000000000E+00 0.  1.
</event>
<event>
 7    1  0.2686828E-009  0.1714339E+03  0.7561462E-02  0.1176361E+00
         -2   -1    0    0    0  501 -0.00000000000E+00  0.00000000000E+00  0.39016919211E+03  0.39016919211E+03  0.00000000000E+00 0.  1.
          2   -1    0    0  501    0  0.00000000000E+00 -0.00000000000E+00 -0.99655567466E+02  0.99655567466E+02  0.00000000000E+00 0. -1.
         25    2    1    2    0    0 -0.14007633591E+03  0.78529053072E+02  0.18377515218E+03  0.27424279500E+03  0.12509041527E+03 0.  0.
          5    1    3    3  502    0 -0.40854297546E+02  0.18002538661E+02 -0.12098550826E+02  0.46443647126E+02  0.41800000000E+01 0.  1.
         -5    1    3    3    0  502 -0.99222038367E+02  0.60526514411E+02  0.19587370301E+03  0.22779914788E+03  0.41800000000E+01 0.  1.
        -11    1    1    2    0    0  0.11461407197E+03 -0.97096365551E+02  0.65989157171E+02  0.16406906644E+03  0.00000000000E+00 0. -1.
         11    1    1    2    0    0  0.25462263940E+02  0.18567312478E+02  0.40749315293E+02  0.51512898137E+02  0.00000000000E+00 0.  1.
</event>
<event>
 7    1  0.2686828E-009  0.8871289E+02  0.7561462E-02  0.1305999E+00
         -2   -1    0    0    0  501 -0.00000000000E+00  0.00000000000E+00  0.46458374173E+02  0.46458374173E+02  0.00000000000E+00 0.  1.
          2   -1    0    0  501    0  0.00000000000E+00 -0.00000000000E+00 -0.26203984579E+03  0.26203984579E+03  0.00000000000E+00 0. -1.
         25    2    1    2    0    0  0.33843085807E+00 -0.21604219590E+02 -0.11500930567E+03  0.17129457371E+03  0.12509130166E+03 0.  0.
          5    1    3    3  502    0  0.37105014511E+02 -0.42377034760E+02 -0.11581301964E+03  0.12885155449E+03  0.41800000000E+01 0. -1.
         -5    1    3    3    0  502 -0.36766583653E+02  0.20772815170E+02  0.80371397065E+00  0.42443019211E+02  0.41800000000E+01 0. -1.
        -11    1    1    2    0    0  0.99499049875E+01 -0.27027915854E+02 -0.76958884151E+02  0.82171641668E+02  0.00000000000E+00 0. -1.
         11    1    1    2    0    0 -0.10288335846E+02  0.48632135444E+02 -0.23613281798E+02  0.55032004594E+02  0.00000000000E+00 0.  1.
</event>
<event>
 7    1  0.2686828E-009  0.1894868E+03  0.7561462E-02  0.1158925E+00
          2   -1    0    0  501    0  0.00000000000E+00  0.00000000000E+00  0.11917189807E+03  0.11917189807E+03  0.00000000000E+00 0. -1.
         -2   -1    0    0    0  501 -0.00000000000E+00 -0.00000000000E+00 -0.39002803010E+03  0.39002803010E+03  0.00000000000E+00 0.  1.
         25    2    1    2    0    0  0.15287815426E+03  0.71879292360E+02 -0.23325504636E+03  0.31399616072E+03  0.12508920647E+03 0.  0.
          5    1    3    3  502    0  0.12261189538E+03 -0.95620090359E+01 -0.13050272426E+03  0.17936984793E+03  0.41800000000E+01 0.  1.
         -5    1    3    3    0  502  0.30266258876E+02  0.81441301396E+02 -0.10275232210E+03  0.13462631279E+03  0.41800000000E+01 0.  1.
        -11    1    1    2    0    0 -0.38272600472E+02 -0.17654943113E+02 -0.52744563576E+02  0.67516501317E+02  0.00000000000E+00 0.  1.
         11    1    1    2    0    0 -0.11460555379E+03 -0.54224349248E+02  0.15143477908E+02  0.12768726614E+03  0.00000000000E+00 0. -1.
</event>
<event>
 7    1  0.2686828E-009  0.1231947E+03  0.7561462E-02  0.1237918E+00
         -1   -1    0    0    0  501 -0.00000000000E+00  0.00000000000E+00  0.16524000536E+03  0.16524000536E+03  0.00000000000E+00 0.  1.
          1   -1    0    0  501    0  0.00000000000E+00 -0.00000000000E+00 -0.11517523262E+03  0.11517523262E+03  0.00000000000E+00 0. -1.
         25    2    1    2    0    0 -0.38009852049E+02  0.71135549665E+02  0.55536851817E+02  0.15886228532E+03  0.12509144059E+03 0.  0.
          5    1    3    3  502    0 -0.60258146690E+02  0.54955749386E+01 -0.12192449156E+02  0.61865772466E+02  0.41800000000E+01 0. -1.
         -5    1    3    3    0  502  0.22248294641E+02  0.65639974727E+02  0.67729300972E+02  0.96996512859E+02  0.41800000000E+01 0. -1.
        -11    1    1    2    0    0 -0.22816763277E+01 -0.75717560333E+02  0.13227068374E+02  0.76898051519E+02  0.00000000000E+00 0.  1.
         11    1    1    2    0    0  0.40291528377E+02  0.45820106680E+01 -0.18699147453E+02  0.44654901144E+02  0.00000000000E+00 0. -1.
</event>
<event>
 7    1  0.2686828E-009  0.1072171E+03  0.7561462E-02  0.1265812E+00
         -1   -1    0    0    0  501 -0.00000000000E+00  0.00000000000E+00  0.46127661166E+02  0.46127661166E+02  0.00000000000E+00 0.  1.
          1   -1    0    0  501    0  0.00000000000E+00 -0.00000000000E+00 -0.29608415493E+03  0.29608415493E+03  0.00000000000E+00 0. -1.
         25    2    1    2    0    0 -0.30363883175E+02 -0.22166804544E+02 -0.10384778049E+03  0.16686870505E+03  0.12508985006E+03 0.  0.
          5    1    3    3  502    0 -0.63041652891E+02  0.29141141414E+02 -0.57995226249E+02  0.90578003897E+02  0.41800000000E+01 0.  1.
         -5    1    3    3    0  502  0.32677769716E+02 -0.51307945958E+02 -0.45852554236E+02  0.76290701151E+02  0.41800000000E+01 0.  1.
        -11    1    1    2    0    0  0.50801978618E+02 -0.36769201225E+01 -0.12796437964E+03  0.13772887580E+03  0.00000000000E+00 0. -1.
         11    1    1    2    0    0 -0.20438095442E+02  0.25843724667E+02 -0.18144333640E+02  0.37614235247E+02  0.00000000000E+00 0.  1.
</event>
<event>
 7    1  0.2686828E-009  0.8155695E+02  0.7561462E-02  0.1324690E+00
          2   -1    0    0  501    0  0.00000000000E+00  0.00000000000E+00  0.18272777389E+03  0.18272777389E+03  0.00000000000E+00 0. -1.
         -2   -1    0    0    0  501 -0.00000000000E+00 -0.00000000000E+00 -0.79346005241E+02  0.79346005241E+02  0.00000000000E+00 0.  1.
         25    2    1    2    0    0  0.22661520240E+02  0.42642279671E+02  0.77984199733E+02  0.15511707446E+03  0.12509141803E+03 0.  0.
          5    1    3    3  502    0 -0.17382666303E+02  0.86100744572E+01  0.97049508497E+02  0.99057407444E+02  0.41800000000E+01 0.  1.
         -5    1    3    3    0  502  0.40044186543E+02  0.34032205214E+02 -0.19065308764E+02  0.56059667015E+02  0.41800000000E+01 0.  1.
        -11    1    1    2    0    0 -0.11796721529E+02  0.22021481882E+02  0.32512026420E+02  0.41001709294E+02  0.00000000000E+00 0. -1.
         11    1    1    2    0    0 -0.10864798710E+02 -0.64663761552E+02 -0.71144575077E+01  0.65954995374E+02  0.00000000000E+00 0.  1.
</event>
<event>
 7    1  0.2686828E-009  0.1138042E+03  0.7561462E-02  0.1253683E+00
         -1   -1    0    0    0  501 -0.00000000000E+00  0.00000000000E+00  0.45606078602E+02  0.45606078602E+02  0.00000000000E+00 0.  1.
          1   -1    0    0  501    0  0.00000000000E+00 -0.00000000000E+00 -0.39021129058E+03  0.39021129058E+03  0.00000000000E+00 0. -1.
         25    2    1    2    0    0 -0.62661501767E+02 -0.47954605045E+02 -0.21489187277E+03  0.26086699904E+03  0.12508783419E+03 0.  0.
          5    1    3    3  502    0 -0.91470444376E+02 -0.25601202253E+02 -0.90833520241E+02  0.13149321104E+03  0.41800000000E+01 0.  1.
         -5    1    3    3    0  502  0.28808942610E+02 -0.22353402792E+02 -0.12405835252E+03  0.12937378800E+03  0.41800000000E+01 0.  1.
        -11    1    1    2    0    0  0.72668006145E+02  0.39392660218E+02 -0.55464455486E+02  0.99542586959E+02  0.00000000000E+00 0.  1.
         11    1    1    2    0    0 -0.10006504379E+02  0.85619448266E+01 -0.74248883729E+02  0.75407783180E+02  0.00000000000E+00 0. -1.
</event>
<event>
 7    1  0.2686828E-009  0.1164832E+03  0.7561462E-02  0.1249014E+00
         -1   -1    0    0    0  501 -0.00000000000E+00  0.00000000000E+00  0.12875808770E+03  0.12875808770E+03  0.00000000000E+00 0.  1.
          1   -1    0    0  501    0  0.00000000000E+00 -0.00000000000E+00 -0.15618280986E+03  0.15618280986E+03  0.00000000000E+00 0. -1.
         25    2    1    2    0    0 -0.33795906997E+02  0.83061449448E+02  0.14405739637E+01  0.15391479639E+03  0.12508525724E+03 0.  0.
          5    1    3    3  502    0 -0.45310687974E+02  0.38606966323E+02  0.56444016241E+02  0.82139854290E+02  0.41800000000E+01 0. -1.
         -5    1    3    3    0  502  0.11514780977E+02  0.44454483125E+02 -0.55003442277E+02  0.71774942098E+02  0.41800000000E+01 0. -1.
        -11    1    1    2    0    0 -0.31110679968E+02 -0.22359111502E+02 -0.14701473440E+02  0.41035808711E+02  0.00000000000E+00 0. -1.
         11    1    1    2    0    0  0.64906586965E+02 -0.60702337946E+02 -0.14163822692E+02  0.89990292459E+02  0.00000000000E+00 0.  1.
</event>
<event>
 7    1  0.2686828E-009  0.1094106E+03  0.7561462E-02  0.1261665E+00
          4   -1    0    0  501    0  0.00000000000E+00  0.00000000000E+00  0.66900394384E+02  0.66900394384E+02  0.00000000000E+00 0. -1.
         -4   -1    0    0    0  501 -0.00000000000E+00 -0.00000000000E+00 -0.18369044455E+03  0.18369044455E+03  0.00000000000E+00 0.  1.
         25    2    1    2    0    0  0.20358163855E+02  0.14775793253E+02 -0.72422795457E+02  0.14671489306E+03  0.12508964642E+03 0.  0.
          5    1    3    3  502    0 -0.48622420456E+02  0.29366801046E+02 -0.33089645791E+02  0.65870675063E+02  0.41800000000E+01 0.  1.
         -5    1    3    3    0  502  0.68980584311E+02 -0.14591007793E+02 -0.39333149666E+02  0.80844217994E+02  0.41800000000E+01 0.  1.
        -11    1    1    2    0    0 -0.13818850940E+02 -0.51813040112E+02 -0.38017909829E+02  0.65733653746E+02  0.00000000000E+00 0.  1.
         11    1    1    2    0    0 -0.65393129146E+01  0.37037246860E+02 -0.63493448744E+01  0.38142292127E+02  0.00000000000E+00 0. -1.
</event>
<event>
 7    1  0.2686828E-009  0.1029766E+03  0.7561462E-02  0.1274158E+00
         -1   -1    0    0    0  501 -0.00000000000E+00  0.00000000000E+00  0.43741508990E+02  0.43741508990E+02  0.00000000000E+00 0.  1.
          1   -1    0    0  501    0  0.00000000000E+00 -0.00000000000E+00 -0.34668411439E+03  0.34668411439E+03  0.00000000000E+00 0. -1.
         25    2    1    2    0    0 -0.21214298186E+02 -0.49129690744E+02 -0.21147455844E+03  0.25145924474E+03  0.12508593022E+03 0.  0.
          5    1    3    3  502    0 -0.60708448683E+02 -0.48355048066E+02 -0.19217243224E+03  0.20729554392E+03  0.41800000000E+01 0. -1.
         -5    1    3    3    0  502  0.39494150498E+02 -0.77464267810E+00 -0.19302126201E+02  0.44163700827E+02  0.41800000000E+01 0. -1.
        -11    1    1    2    0    0  0.68403461582E+01  0.65993585931E+02 -0.28492884140E+02  0.72206565949E+02  0.00000000000E+00 0.  1.
         11    1    1    2    0    0  0.14373952027E+02 -0.16863895187E+02 -0.62975162824E+02  0.66759812691E+02  0.00000000000E+00 0. -1.
</event>
<event>
 7    1  0.2686828E-009  0.7148579E+02  0.7561462E-02  0.1355112E+00
         -2   -1    0    0    0  501 -0.00000000000E+00  0.00000000000E+00  0.28460646310E+02  0.28460646310E+02  0.00000000000E+00 0.  1.
          2   -1    0    0  501    0  0.00000000000E+00 -0.00000000000E+00 -0.49236020593E+03  0.49236020593E+03  0.00000000000E+00 0. -1.
         25    2    1    2    0    0  0.32321163285E+02  0.27061895178E+02 -0.20465076704E+03  0.24352866196E+03  0.12508904421E+03 0.  0.
          5    1    3    3  502    0  0.83866491546E+01  0.19025971776E+02  0.12671029017E+02  0.24705280052E+02  0.41800000000E+01 0.  1.
         -5    1    3    3    0  502  0.23934514130E+02  0.80359234020E+01 -0.21732179605E+03  0.21882338191E+03  0.41800000000E+01 0.  1.
        -11    1    1    2    0    0  0.28967831280E+02  0.49688569402E+00 -0.10738457255E+03  0.11122422653E+03  0.00000000000E+00 0. -1.
         11    1    1    2    0    0 -0.61288994564E+02 -0.27558780873E+02 -0.15186422002E+03  0.16606796374E+03  0.00000000000E+00 0.  1.
</event>
<event>
 7    1  0.2686828E-009  0.1241758E+03  0.7561462E-02  0.1236363E+00
          1   -1    0    0  501    0  0.00000000000E+00  0.00000000000E+00  0.16336818824E+04  0.16336818824E+04  0.00000000000E+00 0. -1.
         -1   -1    0    0    0  501 -0.00000000000E+00 -0.00000000000E+00 -0.12611888329E+02  0.12611888329E+02  0.00000000000E+00 0.  1.
         25    2    1    2    0    0 -0.19974248529E+02  0.70267609605E+02  0.12855946353E+04  0.12937300607E+04  0.12508955186E+03 0.  0.
          5    1    3    3  502    0  0.51118784121E+02  0.12167606361E+02  0.43361166262E+03  0.43680399162E+03  0.41800000000E+01 0.  1.
         -5    1    3    3    0  502 -0.71093032650E+02  0.58100003244E+02  0.85198297272E+03  0.85692606909E+03  0.41800000000E+01 0.  1.
        -11    1    1    2    0    0 -0.25970659059E+02 -0.97353737649E+01  0.14230629428E+03  0.14498390954E+03  0.00000000000E+00 0. -1.
         11    1    1    2    0    0  0.45944907589E+02 -0.60532235840E+02  0.19316906447E+03  0.20757980051E+03  0.00000000000E+00 0.  1.
</event>
<event>
 7    1  0.2686828E-009  0.1045512E+03  0.7561462E-02  0.1271006E+00
          1   -1    0    0  501    0  0.00000000000E+00  0.00000000000E+00  0.20648208254E+03  0.20648208254E+03  0.00000000000E+00 0. -1.
         -1   -1    0    0    0  501 -0.00000000000E+00 -0.00000000000E+00 -0.78574241713E+02  0.78574241713E+02  0.00000000000E+00 0.  1.
         25    2    1    2    0    0 -0.25117233226E+02  0.50520586586E+02  0.30643313412E+02  0.14060274703E+03  0.12508762825E+03 0.  0.
          5    1    3    3  502    0  0.20280939995E+02  0.77655132923E+02  0.34388098702E+02  0.87416531209E+02  0.41800000000E+01 0.  1.
         -5    1    3    3    0  502 -0.45398173220E+02 -0.27134546337E+02 -0.37447852897E+01  0.53186215822E+02  0.41800000000E+01 0.  1.
        -11    1    1    2    0    0 -0.15608247616E+02 -0.13244212744E+02  0.85615286494E+02  0.88028426354E+02  0.00000000000E+00 0. -1.
         11    1    1    2    0    0  0.40725480842E+02 -0.37276373842E+02  0.11649240924E+02  0.56425150870E+02  0.00000000000E+00 0.  1.
</event>
<event>
 7    1  0.2686828E-009  0.1220570E+03  0.7561462E-02  0.1239742E+00
         -2   -1    0    0    0  501 -0.00000000000E+00  0.00000000000E+00  0.25142872994E+02  0.25142872994E+02  0.00000000000E+00 0.  1.
          2   -1    0    0  501    0  0.00000000000E+00 -0.00000000000E+00 -0.91738365281E+03  0.91738365281E+03  0.00000000000E+00 0. -1.
         25    2    1    2    0    0 -0.28817659741E+02 -0.92198975200E+02 -0.62618073962E+03  0.64581785927E+03  0.12508908881E+03 0.  0.
          5    1    3    3  502    0 -0.39284112326E+02 -0.96127137392E+02 -0.62526956627E+03  0.63384790836E+03  0.41800000000E+01 0. -1.
         -5    1    3    3    0  502  0.10466452586E+02  0.39281621917E+01 -0.91117334698E+00  0.11969950910E+02  0.41800000000E+01 0. -1.
        -11    1    1    2    0    0 -0.27885832551E+02  0.51117310820E+02 -0.89544636513E+02  0.10681217651E+03  0.00000000000E+00 0. -1.
         11    1    1    2    0    0  0.56703492292E+02  0.41081664381E+02 -0.17651540369E+03  0.18989649003E+03  0.00000000000E+00 0.  1.
</event>
<event>
 7    1  0.2686828E-009  0.2405907E+03  0.7561462E-02  0.1119400E+00
          2   -1    0    0  501    0  0.00000000000E+00  0.00000000000E+00  0.50699719483E+03  0.50699719483E+03  0.00000000000E+00 0. -1.
         -2   -1    0    0    0  501 -0.00000000000E+00 -0.00000000000E+00 -0.12701634678E+03  0.12701634678E+03  0.00000000000E+00 0.  1.
         25    2    1    2    0    0 -0.18655782455E+03  0.12996568928E+03  0.14196626478E+03  0.29580022095E+03  0.12509375719E+03 0.  0.
          5    1    3    3  502    0 -0.16782075281E+03  0.56221471807E+02  0.68130446773E+02  0.18969419903E+03  0.41800000000E+01 0.  1.
         -5    1    3    3    0  502 -0.18737071733E+02  0.73744217468E+02  0.73835818006E+02  0.10610602192E+03  0.41800000000E+01 0.  1.
        -11    1    1    2    0    0  0.10044420903E+03 -0.60100137856E+02  0.68415889017E+02  0.13557949538E+03  0.00000000000E+00 0. -1.
         11    1    1    2    0    0  0.86113615520E+02 -0.69865551419E+02  0.16959869426E+03  0.20263382528E+03  0.00000000000E+00 0.  1.
</event>
<event>
 7    1  0.2686828E-009  0.1511936E+03  0.7561462E-02  0.1199014E+00
         -2   -1    0    0    0  501 -0.00000000000E+00  0.00000000000E+00  0.27505798806E+03  0.27505798806E+03  0.00000000000E+00 0.  1.
          2   -1    0    0  501    0  0.00000000000E+00 -0.00000000000E+00 -0.11677729643E+03  0.11677729643E+03  0.00000000000E+00 0. -1.
         25    2    1    2    0    0  0.51539179732E+02 -0.11613117154E+03  0.15269792898E+03  0.23475050330E+03  0.12509358590E+03 0.  0.
          5    1    3    3  502    0 -0.35335775062E+02 -0.13708232245E+02  0.61476328057E+02  0.72341854703E+02  0.41800000000E+01 0.  1.
         -5    1    3    3    0  502  0.86874954794E+02 -0.10242293930E+03  0.91221600925E+02  0.16240864860E+03  0.41800000000E+01 0.  1.
        -11    1    1    2    0    0 -0.66336247539E+01  0.46899953141E+02  0.45267104615E+02  0.65518862492E+02  0.00000000000E+00 0.  1.
         11    1    1    2    0    0 -0.44905554978E+02  0.69231218404E+02 -0.39684341964E+02  0.91565918696E+02  0.00000000000E+00 0. -1.
</event>
<event>
 7    1  0.2686828E-009  0.6846780E+02  0.7561462E-02  0.1365382E+00
          1   -1    0    0  501    0  0.00000000000E+00  0.00000000000E+00  0.74715367682E+02  0.74715367682E+02  0.00000000000E+00 0. -1.
         -1   -1    0    0    0  501 -0.00000000000E+00 -0.00000000000E+00 -0.25923280646E+03  0.25923280646E+03  0.00000000000E+00 0.  1.
         25    2    1    2    0    0  0.25408566844E+01  0.18907578497E+02  0.66021425293E-01  0.12652952474E+03  0.12508302761E+03 0.  0.
          5    1    3    3  502    0 -0.32059693929E+02  0.27564857293E+02 -0.49556359253E+02  0.65275956330E+02  0.41800000000E+01 0. -1.
         -5    1    3    3    0  502  0.34600550613E+02 -0.86572787963E+01  0.49622380678E+02  0.61253568411E+02  0.41800000000E+01 0. -1.
        -11    1    1    2    0    0  0.21151702172E+02 -0.26270525900E+02 -0.17878672677E+03  0.18194017892E+03  0.00000000000E+00 0.  1.
         11    1    1    2    0    0 -0.23692558857E+02  0.73629474031E+01 -0.57967334338E+01  0.25478470483E+02  0.00000000000E+00 0. -1.
</event>
<event>
 7    1  0.2686828E-009  0.1094660E+03  0.7561462E-02  0.1261562E+00
         -1   -1    0    0    0  501 -0.00000000000E+00  0.00000000000E+00  0.52831115598E+03  0.52831115598E+03  0.00000000000E+00 0.  1.
          1   -1    0    0  501    0  0.00000000000E+00 -0.00000000000E+00 -0.35537710694E+02  0.35537710694E+02  0.00000000000E+00 0. -1.
         25    2    1    2    0    0  0.30685028391E+02 -0.21224850954E+02  0.11693830644E+03  0.17524539456E+03  0.12507723828E+03 0.  0.
          5    1    3    3  502    0 -0.27856743291E+02  0.35787079148E+02  0.61012038440E+02  0.76135763051E+02  0.41800000000E+01 0.  1.
         -5    1    3    3    0  502  0.58541771683E+02 -0.57011930102E+02  0.55926268003E+02  0.99109631512E+02  0.41800000000E+01 0.  1.
        -11    1    1    2    0    0 -0.25380931647E+01  0.50727090604E+02  0.27815864268E+03  0.28275768803E+03  0.00000000000E+00 0.  1.
         11    1    1    2    0    0 -0.28146935227E+02 -0.29502239649E+02  0.97676496163E+02  0.10584578409E+03  0.00000000000E+00 0. -1.
</event>
<event>
 7    1  0.2686828E-009  0.1072600E+03  0.7561462E-02  0.1265730E+00
          2   -1    0    0  501    0  0.00000000000E+00  0.00000000000E+00  0.10042532042E+04  0.10042532042E+04  0.00000000000E+00 0. -1.
         -2   -1    0    0    0  501 -0.00000000000E+00 -0.00000000000E+00 -0.15725658654E+02  0.15725658654E+02  0.00000000000E+00 0.  1.
         25    2    1    2    0    0 -0.93454495253E+01 -0.55032945404E+02  0.68508595318E+03  0.69864720527E+03  0.12509672927E+03 0.  0.
          5    1    3    3  502    0  0.91419925012E+01  0.29944512592E+02  0.62761514460E+02  0.70261867030E+02  0.41800000000E+01 0. -1.
         -5    1    3    3    0  502 -0.18487442027E+02 -0.84977457996E+02  0.62232443872E+03  0.62838533824E+03  0.41800000000E+01 0. -1.
        -11    1    1    2    0    0  0.42596256298E+02  0.42946264924E+02  0.11859798306E+03  0.13313265681E+03  0.00000000000E+00 0.  1.
         11    1    1    2    0    0 -0.33250806772E+02  0.12086680480E+02  0.18484360933E+03  0.18819900081E+03  0.00000000000E+00 0. -1.
</event>
<event>
 7    1  0.2686828E-009  0.1021360E+03  0.7561462E-02  0.1275867E+00
         -2   -1    0    0    0  501 -0.00000000000E+00  0.00000000000E+00  0.28274987208E+02  0.28274987208E+02  0.00000000000E+00 0.  1.
          2   -1    0    0  501    0  0.00000000000E+00 -0.00000000000E+00 -0.78765843274E+03  0.78765843274E+03  0.00000000000E+00 0. -1.
         25    2    1    2    0    0 -0.51796809786E+02  0.60528234435E+02 -0.57763281416E+03  0.59636698479E+03  0.12508931163E+03 0.  0.
          5    1    3    3  502    0  0.29263488781E+01  0.36956002908E+02 -0.37342095302E+02  0.52784601449E+02  0.41800000000E+01 0.  1.
         -5    1    3    3    0  502 -0.54723158664E+02  0.23572231528E+02 -0.54029071886E+03  0.54358238334E+03  0.41800000000E+01 0.  1.
        -11    1    1    2    0    0 -0.17945260003E+02 -0.18668469363E+02 -0.70179127993E+01  0.26828999329E+02  0.00000000000E+00 0.  1.
         11    1    1    2    0    0  0.69742069789E+02 -0.41859765072E+02 -0.17473271857E+03  0.19273743583E+03  0.00000000000E+00 0. -1.
</event>
<event>
 7    1  0.2686828E-009  0.1708400E+03  0.7561462E-02  0.1176975E+00
          2   -1    0    0  501    0  0.00000000000E+00  0.00000000000E+00  0.21345202654E+04  0.21345202654E+04  0.00000000000E+00 0.  1.
         -2   -1    0    0    0  501 -0.00000000000E+00 -0.00000000000E+00 -0.16975989546E+02  0.16975989546E+02  0.00000000000E+00 0. -1.
         25    2    1    2    0    0 -0.12733503453E+03 -0.49819656750E+02  0.13801451805E+04  0.13925315748E+04  0.12508900170E+03 0.  0.
          5    1    3    3  502    0  0.11263639953E+02 -0.18340009102E+02  0.47426771555E+02  0.52249369173E+02  0.41800000000E+01 0. -1.
         -5    1    3    3    0  502 -0.13859867448E+03 -0.31479647648E+02  0.13327184090E+04  0.13402822057E+04  0.41800000000E+01 0. -1.
        -11    1    1    2    0    0  0.12855770568E+03  0.77332807187E+02  0.65924478811E+03  0.67609994631E+03  0.00000000000E+00 0. -1.
         11    1    1    2    0    0 -0.12226711536E+01 -0.27513150437E+02  0.78154307241E+02  0.82864733826E+02  0.00000000000E+00 0.  1.
</event>
<event>
 7    1  0.2686828E-009  0.1811674E+03  0.7561462E-02  0.1166678E+00
          2   -1    0    0  501    0  0.00000000000E+00  0.00000000000E+00  0.30226534700E+04  0.30226534700E+04  0.00000000000E+00 0. -1.
         -2   -1    0    0    0  501 -0.00000000000E+00 -0.00000000000E+00 -0.37002030111E+02  0.37002030111E+02  0.00000000000E+00 0.  1.
         25    2    1    2    0    0  0.95530546032E+01  0.17864772368E+03  0.27344390512E+04  0.27431388374E+04  0.12508991253E+03 0.  0.
          5    1    3    3  502    0  0.22382305926E+02  0.13435009440E+03  0.25235150810E+04  0.25271914751E+04  0.41800000000E+01 0. -1.
         -5    1    3    3    0  502 -0.12829251322E+02  0.44297629279E+02  0.21092397025E+03  0.21594736228E+03  0.41800000000E+01 0. -1.
        -11    1    1    2    0    0  0.52121268795E+01 -0.44759581286E+02  0.20824914404E+02  0.49641348123E+02  0.00000000000E+00 0.  1.
         11    1    1    2    0    0 -0.14765181483E+02 -0.13388814239E+03  0.23038747429E+03  0.26687531465E+03  0.00000000000E+00 0. -1.
</event>
<event>
 7    1  0.2686828E-009  0.1105043E+03  0.7561462E-02  0.1259639E+00
         -2   -1    0    0    0  501 -0.00000000000E+00  0.00000000000E+00  0.13151140679E+03  0.13151140679E+03  0.00000000000E+00 0.  1.
          2   -1    0    0  501    0  0.00000000000E+00 -0.00000000000E+00 -0.13971695680E+03  0.13971695680E+03  0.00000000000E+00 0. -1.
         25    2    1    2    0    0 -0.58690995303E+02  0.52914898299E+02  0.15761028348E+02  0.14879606844E+03  0.12508893067E+03 0.  0.
          5    1    3    3  502    0  0.14210267745E+02 -0.26723784665E+02 -0.18165936729E+02  0.35546674014E+02  0.41800000000E+01 0.  1.
         -5    1    3    3    0  502 -0.72901263048E+02  0.79638682964E+02  0.33926965077E+02  0.11324939442E+03  0.41800000000E+01 0.  1.
        -11    1    1    2    0    0  0.24699209144E+02 -0.37918794116E+02  0.31880766937E+02  0.55355841426E+02  0.00000000000E+00 0.  1.
         11    1    1    2    0    0  0.33991786158E+02 -0.14996104183E+02 -0.55847345299E+02  0.67076453721E+02  0.00000000000E+00 0. -1.
</event>
<event>
 7    1  0.2686828E-009  0.1136677E+03  0.7561462E-02  0.1253925E+00
         -1   -1    0    0    0  501 -0.00000000000E+00  0.00000000000E+00  0.23712603001E+03  0.23712603001E+03  0.00000000000E+00 0.  1.
          1   -1    0    0  501    0  0.00000000000E+00 -0.00000000000E+00 -0.60527410888E+02  0.60527410888E+02  0.00000000000E+00 0. -1.
         25    2    1    2    0    0  0.47765258716E+02 -0.10093041848E+02  0.75525882064E+02  0.15405802101E+03  0.12508527308E+03 0.  0.
          5    1    3    3  502    0 -0.52742346848E+01  0.49725001597E+02  0.11327991025E+02  0.51441122811E+02  0.41800000000E+01 0.  1.
         -5    1    3    3    0  502  0.53039493401E+02 -0.59818043445E+02  0.64197891039E+02  0.10261689820E+03  0.41800000000E+01 0.  1.
        -11    1    1    2    0    0 -0.61486946844E+02  0.33461713735E+02  0.50829797111E+02  0.86510110349E+02  0.00000000000E+00 0. -1.
         11    1    1    2    0    0  0.13721688128E+02 -0.23368671887E+02  0.50242939951E+02  0.57085309544E+02  0.00000000000E+00 0.  1.
</event>
<event>
 7    1  0.2686828E-009  0.1149237E+03  0.7561462E-02  0.1251714E+00
         -2   -1    0    0    0  501 -0.00000000000E+00  0.00000000000E+00  0.15816239477E+02  0.15816239477E+02  0.00000000000E+00 0.  1.
          2   -1    0    0  501    0  0.00000000000E+00 -0.00000000000E+00 -0.92341163205E+03  0.92341163205E+03  0.00000000000E+00 0. -1.
         25    2    1    2    0    0 -0.10998768577E+02 -0.53791204507E+02 -0.56411479900E+03  0.58042041217E+03  0.12509149381E+03 0.  0.
          5    1    3    3  502    0 -0.61021164251E+02 -0.54342669857E+02 -0.27255519546E+03  0.28457075610E+03  0.41800000000E+01 0.  1.
         -5    1    3    3    0  502  0.50022395674E+02  0.55146534972E+00 -0.29155960354E+03  0.29584965607E+03  0.41800000000E+01 0.  1.
        -11    1    1    2    0    0  0.74954740928E+01 -0.21339350806E+02 -0.38157260083E+02  0.44356809192E+02  0.00000000000E+00 0.  1.
         11    1    1    2    0    0  0.35032944845E+01  0.75130555313E+02 -0.30532333349E+03  0.31445065016E+03  0.00000000000E+00 0. -1.
</event>
<event>
 7    1  0.2686828E-009  0.1419489E+03  0.7561462E-02  0.1210730E+00
          1   -1    0    0  501    0  0.00000000000E+00  0.00000000000E+00  0.49622074894E+03  0.49622074894E+03  0.00000000000E+00 0. -1.
         -1   -1    0    0    0  501 -0.00000000000E+00 -0.00000000000E+00 -0.62529505695E+02  0.62529505695E+02  0.00000000000E+00 0.  1.
         25    2    1    2    0    0 -0.62213048871E+02 -0.10509221235E+03  0.12513740037E+03  0.21499150630E+03  0.12508853770E+03 0.  0.
          5    1    3    3  502    0 -0.24811724292E+02 -0.52052080676E+01 -0.21579532537E+02  0.33553904064E+02  0.41800000000E+01 0.  1.
         -5    1    3    3    0  502 -0.37401324579E+02 -0.99887004278E+02  0.14671693291E+03  0.18143760224E+03  0.41800000000E+01 0.  1.
        -11    1    1    2    0    0 -0.19143737360E+02  0.49098699485E+02  0.11267806264E+03  0.12439256719E+03  0.00000000000E+00 0.  1.
         11    1    1    2    0    0  0.81356786231E+02  0.55993512860E+02  0.19587578023E+03  0.21936618114E+03  0.00000000000E+00 0. -1.
</event>
<event>
 7    1  0.2686828E-009  0.9599791E+02  0.7561462E-02  0.1288944E+00
          2   -1    0    0  501    0  0.00000000000E+00  0.00000000000E+00  0.35658984904E+03  0.35658984904E+03  0.00000000000E+00 0. -1.
         -2   -1    0    0    0  501 -0.00000000000E+00 -0.00000000000E+00 -0.30066732367E+02  0.30066732367E+02  0.00000000000E+00 0.  1.
         25    2    1    2    0    0 -0.39977409859E+02  0.37749071991E+02  0.21124089665E+03  0.25158248628E+03  0.12509134763E+03 0.  0.
          5    1    3    3  502    0 -0.84676132287E+02  0.34794199736E+02  0.14308226823E+03  0.16991377695E+03  0.41800000000E+01 0.  1.
         -5    1    3    3    0  502  0.44698722428E+02  0.29548722549E+01  0.68158628420E+02  0.81668709338E+02  0.41800000000E+01 0.  1.
        -11    1    1    2    0    0  0.21772581954E+02 -0.16107084180E+02  0.15165874246E+02  0.31040090647E+02  0.00000000000E+00 0.  1.
         11    1    1    2    0    0  0.18204827905E+02 -0.21641987811E+02  0.10011634578E+03  0.10403400448E+03  0.00000000000E+00 0. -1.
</event>
<event>
 7    1  0.2686828E-009  0.1081339E+03  0.7561462E-02  0.1264065E+00
         -1   -1    0    0    0  501 -0.00000000000E+00  0.00000000000E+00  0.39581597519E+03  0.39581597519E+03  0.00000000000E+00 0.  1.
          1   -1    0    0  501    0  0.00000000000E+00 -0.00000000000E+00 -0.30186444859E+02  0.30186444859E+02  0.00000000000E+00 0. -1.
         25    2    1    2    0    0 -0.83477364009E+01 -0.10241532500E+02  0.22403012586E+03  0.25692546060E+03  0.12508645539E+03 0.  0.
          5    1    3    3  502    0 -0.65529438079E+02 -0.13629656434E+00  0.96330620774E+02  0.11658124519E+03  0.41800000000E+01 0.  1.
         -5    1    3    3    0  502  0.57181701678E+02 -0.10105235936E+02  0.12769950508E+03  0.14034421541E+03  0.41800000000E+01 0.  1.
        -11    1    1    2    0    0 -0.41733981159E+02  0.43593921305E+01  0.65339143304E+02  0.77652644069E+02  0.00000000000E+00 0. -1.
         11    1    1    2    0    0  0.50081717560E+02  0.58821403694E+01  0.76260261166E+02  0.91424315377E+02  0.00000000000E+00 0.  1.
</event>
<event>
 7    1  0.2686828E-009  0.6296862E+02  0.7561462E-02  0.1385780E+00
          3   -1    0    0  501    0  0.00000000000E+00  0.00000000000E+00  0.66423508112E+02  0.66423508112E+02  0.00000000000E+00 0. -1.
         -3   -1    0    0    0  501 -0.00000000000E+00 -0.00000000000E+00 -0.19769153484E+03  0.19769153484E+03  0.00000000000E+00 0.  1.
         25    2    1    2    0    0 -0.76206339603E+00  0.19077434580E+01 -0.11899703237E+03  0.17266206610E+03  0.12509066765E+03 0.  0.
          5    1    3    3  502    0 -0.18640684177E+02  0.61310238835E+01 -0.14172645418E+03  0.14313952904E+03  0.41800000000E+01 0.  1.
         -5    1    3    3    0  502  0.17878620781E+02 -0.42232804255E+01  0.22729421812E+02  0.29522537060E+02  0.41800000000E+01 0.  1.
        -11    1    1    2    0    0  0.12244885714E+02  0.40909862356E+02 -0.18774250955E+02  0.46647899879E+02  0.00000000000E+00 0.  1.
         11    1    1    2    0    0 -0.11482822318E+02 -0.42817605814E+02  0.65032565938E+01  0.44805076971E+02  0.00000000000E+00 0. -1.
</event>
<event>
 7    1  0.2686828E-009  0.9836627E+02  0.7561462E-02  0.1283769E+00
          2   -1    0    0  501    0  0.00000000000E+00  0.00000000000E+00  0.22314476501E+03  0.22314476501E+03  0.00000000000E+00 0. -1.
         -2   -1    0    0    0  501 -0.00000000000E+00 -0.00000000000E+00 -0.66048977588E+02  0.66048977588E+02  0.00000000000E+00 0.  1.
         25    2    1    2    0    0  0.27514682048E+02  0.32397311736E+02  0.57542098029E+02  0.14409884588E+03  0.12508693298E+03 0.  0.
          5    1    3    3  502    0  0.52488973834E+02  0.22146750898E+01  0.82183383174E+02  0.97629800931E+02  0.41800000000E+01 0. -1.
         -5    1    3    3    0  502 -0.24974291786E+02  0.30182636647E+02 -0.24641285145E+02  0.46469044952E+02  0.41800000000E+01 0. -1.
        -11    1    1    2    0    0 -0.20180801557E+02  0.33078122112E+02  0.27852111110E+02  0.47719671072E+02  0.00000000000E+00 0.  1.
         11    1    1    2    0    0 -0.73338804913E+01 -0.65475433848E+02  0.71701578279E+02  0.97375225639E+02  0.00000000000E+00 0. -1.
</event>
<event>
 7    1  0.2686828E-009  0.1106069E+03  0.7561462E-02  0.1259450E+00
         -2   -1    0    0    0  501 -0.00000000000E+00  0.00000000000E+00  0.77356968325E+02  0.77356968325E+02  0.00000000000E+00 0.  1.
          2   -1    0    0  501    0  0.00000000000E+00 -0.00000000000E+00 -0.21259898816E+03  0.21259898816E+03  0.00000000000E+00 0. -1.
         25    2    1    2    0    0  0.64708809842E+02 -0.29265798994E+02 -0.60081769030E+02  0.15588826719E+03  0.12509043055E+03 0.  0.
          5    1    3    3  502    0  0.91284793827E+02 -0.47104337757E+01 -0.73195072214E+02  0.11717547852E+03  0.41800000000E+01 0.  1.
         -5    1    3    3    0  502 -0.26575983986E+02 -0.24555365219E+02  0.13113303184E+02  0.38712788665E+02  0.41800000000E+01 0.  1.
        -11    1    1    2    0    0 -0.56694766864E+02 -0.61030666692E+01 -0.79184841390E+02  0.97579624505E+02  0.00000000000E+00 0. -1.
         11    1    1    2    0    0 -0.80140429777E+01  0.35368865664E+02  0.40245905824E+01  0.36488064796E+02  0.00000000000E+00 0.  1.
</event>
<event>
 7    1  0.2686828E-009  0.7717047E+02  0.7561462E-02  0.1337279E+00
          1   -1    0    0  501    0  0.00000000000E+00  0.00000000000E+00  0.14035545625E+03  0.14035545625E+03  0.00000000000E+00 0. -1.
         -1   -1    0    0    0  501 -0.00000000000E+00 -0.00000000000E+00 -0.13653120976E+03  0.13653120976E+03  0.00000000000E+00 0.  1.
         25    2    1    2    0    0 -0.52955307494E+02  0.46626878626E+02  0.65191696497E+02  0.15772234966E+03  0.12509217357E+03 0.  0.
          5    1    3    3  502    0 -0.24457799774E+02  0.17579759324E+02 -0.36855862955E+02  0.47781366052E+02  0.41800000000E+01 0. -1.
         -5    1    3    3    0  502 -0.28497507720E+02  0.29047119302E+02  0.10204755945E+03  0.10994098361E+03  0.41800000000E+01 0. -1.
        -11    1    1    2    0    0 -0.75355329893E+01 -0.92022277217E+01 -0.44497021240E+02  0.46059202682E+02  0.00000000000E+00 0.  1.
         11    1    1    2    0    0  0.60490840483E+02 -0.37424650904E+02 -0.16870428761E+02  0.73105113667E+02  0.00000000000E+00 0. -1.
</event>
<event>
 7    1  0.2686828E-009  0.1763304E+03  0.7561462E-02  0.1171403E+00
          3   -1    0    0  501    0  0.00000000000E+00  0.00000000000E+00  0.69616559774E+02  0.69616559774E+02  0.00000000000E+00 0. -1.
         -3   -1    0    0    0  501 -0.00000000000E+00 -0.00000000000E+00 -0.49392064235E+03  0.49392064235E+03  0.00000000000E+00 0.  1.
         25    2    1    2    0    0 -0.84688300843E+02 -0.11023550424E+03 -0.16003952859E+03  0.24613860544E+03  0.12509031809E+03 0.  0.
          5    1    3    3  502    0  0.17657036679E+02 -0.60360905659E+02 -0.97710140000E+02  0.11627533588E+03  0.41800000000E+01 0.  1.
         -5    1    3    3    0  502 -0.10234533752E+03 -0.49874598582E+02 -0.62329388594E+02  0.12986326955E+03  0.41800000000E+01 0.  1.
        -11    1    1    2    0    0  0.49433306453E+02  0.12728173551E+03 -0.20968473203E+03  0.25022385743E+03  0.00000000000E+00 0.  1.
         11    1    1    2    0    0  0.35254994390E+02 -0.17046231267E+02 -0.54579821951E+02  0.67174739256E+02  0.00000000000E+00 0. -1.
</event>
<event>
 7    1  0.2686828E-009  0.7036790E+02  0.7561462E-02  0.1358846E+00
          1   -1    0    0  501    0  0.00000000000E+00  0.00000000000E+00  0.36516292274E+02  0.36516292274E+02  0.00000000000E+00 0. -1.
         -1   -1    0    0    0  501 -0.00000000000E+00 -0.00000000000E+00 -0.37709615404E+03  0.37709615404E+03  0.00000000000E+00 0.  1.
         25    2    1    2    0    0  0.48583091534E+01 -0.33441617752E+02 -0.25315553048E+03  0.28438896806E+03  0.12508963816E+03 0.  0.
          5    1    3    3  502    0 -0.54095824147E+01 -0.57079861010E+02 -0.25176306619E+03  0.25824307931E+03  0.41800000000E+01 0. -1.
         -5    1    3    3    0  502  0.10267891568E+02  0.23638243258E+02 -0.13924642896E+01  0.26145888747E+02  0.41800000000E+01 0. -1.
        -11    1    1    2    0    0  0.43535385803E+01 -0.10959528077E+02  0.13891845906E+02  0.18222182540E+02  0.00000000000E+00 0. -1.
         11    1    1    2    0    0 -0.92118477336E+01  0.44401145829E+02 -0.10131617720E+03  0.11100129572E+03  0.00000000000E+00 0.  1.
</event>
<event>
 7    1  0.2686828E-009  0.1206942E+03  0.7561462E-02  0.1241956E+00
          2   -1    0    0  501    0  0.00000000000E+00  0.00000000000E+00  0.13882790433E+03  0.13882790433E+03  0.00000000000E+00 0. -1.
         -2   -1    0    0    0  501 -0.00000000000E+00 -0.00000000000E+00 -0.13107898948E+03  0.13107898948E+03  0.00000000000E+00 0.  1.
         25    2    1    2    0    0 -0.49112041347E+02  0.10861063597E+02 -0.51931430791E+02  0.14448014743E+03  0.12509070386E+03 0.  0.
          5    1    3    3  502    0  0.18986006901E+02 -0.43346745537E+02 -0.14793327153E+02  0.49756645134E+02  0.41800000000E+01 0.  1.
         -5    1    3    3    0  502 -0.68098048248E+02  0.54207809135E+02 -0.37138103638E+02  0.94723502301E+02  0.41800000000E+01 0.  1.
        -11    1    1    2    0    0 -0.43269588801E+01 -0.43769785308E+02  0.40533025998E+02  0.59811728579E+02  0.00000000000E+00 0. -1.
         11    1    1    2    0    0  0.53439000227E+02  0.32908721710E+02  0.19147319642E+02  0.65615017788E+02  0.00000000000E+00 0.  1.
</event>
<event>
 7    1  0.2686828E-009  0.1157476E+03  0.7561462E-02  0.1250282E+00
         -2   -1    0    0    0  501 -0.00000000000E+00  0.00000000000E+00  0.40610906977E+02  0.40610906977E+02  0.00000000000E+00 0.  1.
          2   -1    0    0  501    0  0.00000000000E+00 -0.00000000000E+00 -0.10639348167E+04  0.10639348167E+04  0.00000000000E+00 0. -1.
         25    2    1    2    0    0  0.14860427825E+02 -0.83155064325E+02 -0.94751018673E+03  0.95945726065E+03  0.12508830482E+03 0.  0.
          5    1    3    3  502    0  0.49149149659E+02  0.75425630295E+01 -0.22561861389E+03  0.23107089930E+03  0.41800000000E+01 0. -1.
         -5    1    3    3    0  502 -0.34288721833E+02 -0.90697627355E+02 -0.72189157284E+03  0.72838636135E+03  0.41800000000E+01 0. -1.
        -11    1    1    2    0    0 -0.78011020654E+01  0.34030053698E+02 -0.87407941798E+02  0.94122526727E+02  0.00000000000E+00 0. -1.
         11    1    1    2    0    0 -0.70593257598E+01  0.49125010628E+02  0.11594218843E+02  0.50965936271E+02  0.00000000000E+00 0.  1.
</event>
<event>
 7    1  0.2686828E-009  0.1133880E+03  0.7561462E-02  0.1254421E+00
         -2   -1    0    0    0  501 -0.00000000000E+00  0.00000000000E+00  0.28396012842E+02  0.28396012842E+02  0.00000000000E+00 0.  1.
          2   -1    0    0  501    0  0.00000000000E+00 -0.00000000000E+00 -0.59012959670E+03  0.59012959670E+03  0.00000000000E+00 0. -1.
         25    2    1    2    0    0  0.29217470643E+02 -0.57004714262E+02 -0.42558560990E+03  0.44819190091E+03  0.12509864366E+03 0.  0.
          5    1    3    3  502    0 -0.44374055068E+02 -0.15181791413E+02 -0.84475789600E+02  0.96711814078E+02  0.41800000000E+01 0.  1.
         -5    1    3    3    0  502  0.73591525711E+02 -0.41822922849E+02 -0.34110982030E+03  0.35148008683E+03  0.41800000000E+01 0.  1.
        -11    1    1    2    0    0  0.23324370975E+02  0.15833617088E+02 -0.14804026292E+02  0.31841622225E+02  0.00000000000E+00 0.  1.
         11    1    1    2    0    0 -0.52541841618E+02  0.41171097174E+02 -0.12134394766E+03  0.13849208641E+03  0.00000000000E+00 0. -1.
</event>
<event>
 7    1  0.2686828E-009  0.9600247E+02  0.7561462E-02  0.1288934E+00
          2   -1    0    0  501    0  0.00000000000E+00  0.00000000000E+00  0.10828167397E+03  0.10828167397E+03  0.00000000000E+00 0. -1.
         -2   -1    0    0    0  501 -0.00000000000E+00 -0.00000000000E+00 -0.18004755891E+03  0.18004755891E+03  0.00000000000E+00 0.  1.
         25    2    1    2    0    0 -0.44559069401E+02  0.10987162795E+02  0.36947028407E+02  0.13826975596E+03  0.12508882481E+03 0.  0.
          5    1    3    3  502    0  0.68829944683E+01 -0.51208568074E+02  0.20778035484E+02  0.55847043034E+02  0.41800000000E+01 0. -1.
         -5    1    3    3    0  502 -0.51442063869E+02  0.62195730869E+02  0.16168992923E+02  0.82422712923E+02  0.41800000000E+01 0. -1.
        -11    1    1    2    0    0  0.86851462065E+01 -0.20472942532E+02 -0.11068811108E+03  0.11290009334E+03  0.00000000000E+00 0.  1.
         11    1    1    2    0    0  0.35873923195E+02  0.94857797373E+01  0.19751977326E+01  0.37159383589E+02  0.00000000000E+00 0. -1.
</event>
<event>
 7    1  0.2686828E-009  0.9238398E+02  0.7561462E-02  0.1297179E+00
         -2   -1    0    0    0  501 -0.00000000000E+00  0.00000000000E+00  0.34051099646E+02  0.34051099646E+02  0.00000000000E+00 0.  1.
          2   -1    0    0  501    0  0.00000000000E+00 -0.00000000000E+00 -0.55143144656E+03  0.55143144656E+03  0.00000000000E+00 0. -1.
         25    2    1    2    0    0  0.58640697114E+02 -0.15406631817E+02 -0.20738312605E+03  0.24966439609E+03  0.12509378101E+03 0.  0.
          5    1    3    3  502    0  0.63757255439E+02  0.52533229566E+01 -0.29687610597E+02  0.70649923186E+02  0.41800000000E+01 0. -1.
         -5    1    3    3    0  502 -0.51165583246E+01 -0.20659954773E+02 -0.17769551545E+03  0.17901447291E+03  0.41800000000E+01 0. -1.
        -11    1    1    2    0    0 -0.25115762265E+02 -0.32140466339E+02 -0.32126108075E+02  0.51922036851E+02  0.00000000000E+00 0.  1.
         11    1    1    2    0    0 -0.33524934849E+02  0.47547098155E+02 -0.27787111279E+03  0.28389611326E+03  0.00000000000E+00 0. -1.
</event>
<event>
 7    1  0.2686828E-009  0.1102932E+03  0.7561462E-02  0.1260028E+00
         -1   -1    0    0    0  501 -0.00000000000E+00  0.00000000000E+00  0.38695929043E+02  0.38695929043E+02  0.00000000000E+00 0.  1.
          1   -1    0    0  501    0  0.00000000000E+00 -0.00000000000E+00 -0.55565880779E+03  0.55565880779E+03  0.00000000000E+00 0. -1.
         25    2    1    2    0    0 -0.87279645528E+02  0.44653932393E+02 -0.26255181986E+03  0.30690649111E+03  0.12508567454E+03 0.  0.
          5    1    3    3  502    0 -0.16499040072E+02 -0.54495284110E+00 -0.20337163977E+03  0.20408334464E+03  0.41800000000E+01 0. -1.
         -5    1    3    3    0  502 -0.70780605456E+02  0.45198885234E+02 -0.59180180085E+02  0.10282314647E+03  0.41800000000E+01 0. -1.
        -11    1    1    2    0    0  0.61579315833E+02  0.68033305053E+01 -0.66305782912E+02  0.90745546954E+02  0.00000000000E+00 0.  1.
         11    1    1    2    0    0  0.25700329695E+02 -0.51457262898E+02 -0.18810527598E+03  0.19670269876E+03  0.00000000000E+00 0. -1.
</event>
<event>
 7    1  0.2686828E-009  0.1453308E+03  0.7561462E-02  0.1206331E+00
         -2   -1    0    0    0  501 -0.00000000000E+00  0.00000000000E+00  0.31807233207E+02  0.31807233207E+02  0.00000000000E+00 0.  1.
          2   -1    0    0  501    0  0.00000000000E+00 -0.00000000000E+00 -0.81338424180E+03  0.81338424180E+03  0.00000000000E+00 0. -1.
         25    2    1    2    0    0  0.55945552445E+02 -0.10480031317E+03 -0.45174733587E+03  0.48356693817E+03  0.12509323623E+03 0.  0.
          5    1    3    3  502    0 -0.14215571937E+02 -0.10034907649E+03 -0.24567578643E+03  0.26579331082E+03  0.41800000000E+01 0.  1.
         -5    1    3    3    0  502  0.70161124382E+02 -0.44512366757E+01 -0.20607154944E+03  0.21777362735E+03  0.41800000000E+01 0.  1.
        -11    1    1    2    0    0 -0.30550501781E+02  0.57162231824E+02 -0.66661194273E+02  0.92976172905E+02  0.00000000000E+00 0.  1.
         11    1    1    2    0    0 -0.25395050664E+02  0.47638081342E+02 -0.26316847845E+03  0.26864836393E+03  0.00000000000E+00 0. -1.
</event>
<event>
 7    1  0.2686828E-009  0.1100366E+03  0.7561462E-02  0.1260502E+00
          2   -1    0    0  501    0  0.00000000000E+00  0.00000000000E+00  0.93130422902E+02  0.93130422902E+02  0.00000000000E+00 0.  1.
         -2   -1    0    0    0  501 -0.00000000000E+00 -0.00000000000E+00 -0.22101734310E+03  0.22101734310E+03  0.00000000000E+00 0. -1.
         25    2    1    2    0    0 -0.74443476036E+02  0.28556423157E+02 -0.12126312038E+03  0.19159721941E+03  0.12508976654E+03 0.  0.
          5    1    3    3  502    0 -0.46334213944E+02 -0.42912727360E+02 -0.24210770982E+02  0.67764263316E+02  0.41800000000E+01 0. -1.
         -5    1    3    3    0  502 -0.28109262093E+02  0.71469150517E+02 -0.97052349401E+02  0.12383295610E+03  0.41800000000E+01 0. -1.
        -11    1    1    2    0    0  0.20137345268E+02 -0.99751279261E+01 -0.47188280367E+02  0.52266142536E+02  0.00000000000E+00 0. -1.
         11    1    1    2    0    0  0.54306130768E+02 -0.18581295231E+02  0.40564480550E+02  0.70284404057E+02  0.00000000000E+00 0.  1.
</event>
<event>
 7    1  0.2686828E-009  0.1117019E+03  0.7561462E-02  0.1257450E+00
          3   -1    0    0  501    0  0.00000000000E+00  0.00000000000E+00  0.21307272660E+03  0.21307272660E+03  0.00000000000E+00 0. -1.
         -3   -1    0    0    0  501 -0.00000000000E+00 -0.00000000000E+00 -0.70901452068E+02  0.70901452068E+02  0.00000000000E+00 0.  1.
         25    2    1    2    0    0 -0.27900163849E+02  0.64904479620E+02  0.76096683518E+02  0.16257318913E+03  0.12509326907E+03 0.  0.
          5    1    3    3  502    0  0.11483558046E+02  0.93094761679E+02  0.40171633152E+02  0.10212609494E+03  0.41800000000E+01 0. -1.
         -5    1    3    3    0  502 -0.39383721895E+02 -0.28190282059E+02  0.35925050366E+02  0.60447094195E+02  0.41800000000E+01 0. -1.
        -11    1    1    2    0    0 -0.33934942358E-01 -0.48504694849E+02  0.73600210759E+02  0.88145888150E+02  0.00000000000E+00 0. -1.
         11    1    1    2    0    0  0.27934098791E+02 -0.16399784770E+02 -0.75256197411E+01  0.33255101387E+02  0.00000000000E+00 0.  1.
</event>
<event>
 7    1  0.2686828E-009  0.1318601E+03  0.7561462E-02  0.1224722E+00
         -1   -1    0    0    0  501 -0.00000000000E+00  0.00000000000E+00  0.33201820599E+03  0.33201820599E+03  0.00000000000E+00 0.  1.
          1   -1    0    0  501    0  0.00000000000E+00 -0.00000000000E+00 -0.58211202276E+02  0.58211202276E+02  0.00000000000E+00 0. -1.
         25    2    1    2    0    0  0.81452009187E+02 -0.13746473861E+02  0.10906728612E+03  0.18538070025E+03  0.12508771234E+03 0.  0.
          5    1    3    3  502    0 -0.22347112801E+02 -0.29765914619E+02  0.56681483376E+02  0.67938693550E+02  0.41800000000E+01 0. -1.
         -5    1    3    3    0  502  0.10379912199E+03  0.16019440758E+02  0.52385802747E+02  0.11744200670E+03  0.41800000000E+01 0. -1.
        -11    1    1    2    0    0 -0.31248416345E+02 -0.37904621314E+02  0.56983018274E+02  0.75234886938E+02  0.00000000000E+00 0. -1.
         11    1    1    2    0    0 -0.50203592843E+02  0.51651095175E+02  0.10775669932E+03  0.12961382108E+03  0.00000000000E+00 0.  1.
</event>
<event>
 7    1  0.2686828E-009  0.5717343E+02  0.7561462E-02  0.1410091E+00
         -2   -1    0    0    0  501 -0.00000000000E+00  0.00000000000E+00  0.40496584171E+02  0.40496584171E+02  0.00000000000E+00 0.  1.
          2   -1    0    0  501    0  0.00000000000E+00 -0.00000000000E+00 -0.59164959024E+03  0.59164959024E+03  0.00000000000E+00 0. -1.
         25    2    1    2    0    0 -0.14189923483E+02 -0.19882170657E+02 -0.51428307902E+03  0.52984434554E+03  0.12510511779E+03 0.  0.
          5    1    3    3  502    0 -0.77514977160E+01 -0.40390696919E+02 -0.49268606446E+02  0.64314555861E+02  0.41800000000E+01 0.  1.
         -5    1    3    3    0  502 -0.64384257668E+01  0.20508526262E+02 -0.46501447257E+03  0.46552978968E+03  0.41800000000E+01 0.  1.
        -11    1    1    2    0    0  0.18687901418E+01  0.33034374417E+02  0.22660586561E+02  0.40103172605E+02  0.00000000000E+00 0.  1.
         11    1    1    2    0    0  0.12321133341E+02 -0.13152203760E+02 -0.59530513616E+02  0.62198656271E+02  0.00000000000E+00 0. -1.
</event>
<event>
 7    1  0.2686828E-009  0.8940330E+02  0.7561462E-02  0.1304303E+00
         -1   -1    0    0    0  501 -0.00000000000E+00  0.00000000000E+00  0.95135443568E+02  0.95135443568E+02  0.00000000000E+00 0.  1.
          1   -1    0    0  501    0  0.00000000000E+00 -0.00000000000E+00 -0.16863667304E+03  0.16863667304E+03  0.00000000000E+00 0. -1.
         25    2    1    2    0    0 -0.24366066880E+02 -0.32441756510E+02 -0.91090801989E+02  0.15996940776E+03  0.12508598815E+03 0.  0.
          5    1    3    3  502    0 -0.15945956382E+02 -0.55521121973E+02 -0.11287718638E+03  0.12686843624E+03  0.41800000000E+01 0. -1.
         -5    1    3    3    0  502 -0.84201104981E+01  0.23079365463E+02  0.21786384388E+02  0.33100971522E+02  0.41800000000E+01 0. -1.
        -11    1    1    2    0    0 -0.32706927946E+02  0.68263270496E+01  0.23675448237E+02  0.40949587615E+02  0.00000000000E+00 0.  1.
         11    1    1    2    0    0  0.57072994826E+02  0.25615429460E+02 -0.60858757175E+01  0.62853121228E+02  0.00000000000E+00 0. -1.
</event>
<event>
 7    1  0.2686828E-009  0.2358481E+03  0.7561462E-02  0.1122590E+00
         -2   -1    0    0    0  501 -0.00000000000E+00  0.00000000000E+00  0.10596575515E+03  0.10596575515E+03  0.00000000000E+00 0.  1.
          2   -1    0    0  501    0  0.00000000000E+00 -0.00000000000E+00 -0.58417578603E+03  0.58417578603E+03  0.00000000000E+00 0. -1.
         25    2    1    2    0    0  0.12479934257E+03 -0.17258856464E+03 -0.15325787465E+03  0.29068377255E+03  0.12508953167E+03 0.  0.
          5    1    3    3  502    0  0.14576871678E+03 -0.17184463941E+03 -0.13636352678E+03  0.26342282119E+03  0.41800000000E+01 0. -1.
         -5    1    3    3    0  502 -0.20969374211E+02 -0.74392523037E+00 -0.16894347866E+02  0.27260951365E+02  0.41800000000E+01 0. -1.
        -11    1    1    2    0    0 -0.28513345806E+02  0.10097193235E+03 -0.20216799409E+03  0.22777234215E+03  0.00000000000E+00 0. -1.
         11    1    1    2    0    0 -0.96285996767E+02  0.71616632291E+02 -0.12278416214E+03  0.17168542648E+03  0.00000000000E+00 0.  1.
</event>
<event>
 7    1  0.2686828E-009  0.9133549E+02  0.7561462E-02  0.1299649E+00
         -1   -1    0    0    0  501 -0.00000000000E+00  0.00000000000E+00  0.32791110584E+03  0.32791110584E+03  0.00000000000E+00 0.  1.
          1   -1    0    0  501    0  0.00000000000E+00 -0.00000000000E+00 -0.35158461054E+02  0.35158461054E+02  0.00000000000E+00 0. -1.
         25    2    1    2    0    0  0.24707053998E+02 -0.31882436760E+02  0.23413576801E+03  0.26850498270E+03  0.12509372319E+03 0.  0.
          5    1    3    3  502    0 -0.48962270841E+02 -0.25125406886E+02  0.76582963566E+02  0.94398160711E+02  0.41800000000E+01 0. -1.
         -5    1    3    3    0  502  0.73669324839E+02 -0.67570298742E+01  0.15755280444E+03  0.17410682199E+03  0.41800000000E+01 0. -1.
        -11    1    1    2    0    0  0.72521293742E+01  0.16272972168E+02  0.56153450535E+02  0.58911908904E+02  0.00000000000E+00 0.  1.
         11    1    1    2    0    0 -0.31959183373E+02  0.15609464592E+02  0.24634262442E+01  0.35652675293E+02  0.00000000000E+00 0. -1.
</event>
<event>
 7    1  0.2686828E-009  0.2590979E+03  0.7561462E-02  0.1107686E+00
         -1   -1    0    0    0  501 -0.00000000000E+00  0.00000000000E+00  0.14184857051E+03  0.14184857051E+03  0.00000000000E+00 0.  1.
          1   -1    0    0  501    0  0.00000000000E+00 -0.00000000000E+00 -0.53810453403E+03  0.53810453403E+03  0.00000000000E+00 0. -1.
         25    2    1    2    0    0 -0.12529132867E+03  0.20093518291E+03 -0.86340505782E+02  0.28138140152E+03  0.12509174797E+03 0.  0.
          5    1    3    3  502    0 -0.13291627412E+03  0.99766853101E+02 -0.51915756640E+02  0.17416336897E+03  0.41800000000E+01 0. -1.
         -5    1    3    3    0  502  0.76249454499E+01  0.10116832981E+03 -0.34424749143E+02  0.10721803255E+03  0.41800000000E+01 0. -1.
        -11    1    1    2    0    0  0.10890885706E+02  0.70946794647E+01 -0.19990907867E+02  0.23844963106E+02  0.00000000000E+00 0.  1.
         11    1    1    2    0    0  0.11440044297E+03 -0.20802986238E+03 -0.28992454987E+03  0.37472673992E+03  0.00000000000E+00 0. -1.
</event>
<event>
 7    1  0.2686828E-009  0.1116101E+03  0.7561462E-02  0.1257617E+00
          2   -1    0    0  501    0  0.00000000000E+00  0.00000000000E+00  0.29636023790E+03  0.29636023790E+03  0.00000000000E+00 0.  1.
         -2   -1    0    0    0  501 -0.00000000000E+00 -0.00000000000E+00 -0.55232619137E+02  0.55232619137E+02  0.00000000000E+00 0. -1.
         25    2    1    2    0    0 -0.41794444722E+02  0.42792938565E+02  0.91378181069E+02  0.16606259802E+03  0.12509517691E+03 0.  0.
          5    1    3    3  502    0  0.19588336779E+02  0.57812787862E+02  0.81584474412E+02  0.10197803804E+03  0.41800000000E+01 0.  1.
         -5    1    3    3    0  502 -0.61382781501E+02 -0.15019849297E+02  0.97937066565E+01  0.64084559980E+02  0.41800000000E+01 0.  1.
        -11    1    1    2    0    0  0.17610305237E+02 -0.64098651604E+02  0.13416480424E+03  0.14972960524E+03  0.00000000000E+00 0.  1.
         11    1    1    2    0    0  0.24184139485E+02  0.21305713039E+02  0.15584633451E+02  0.35800653772E+02  0.00000000000E+00 0. -1.
</event>
<event>
 7    1  0.2686828E-009  0.5866691E+02  0.7561462E-02  0.1403513E+00
         -3   -1    0    0    0  501 -0.00000000000E+00  0.00000000000E+00  0.26685254656E+03  0.26685254656E+03  0.00000000000E+00 0.  1.
          3   -1    0    0  501    0  0.00000000000E+00 -0.00000000000E+00 -0.70975291575E+02  0.70975291575E+02  0.00000000000E+00 0. -1.
         25    2    1    2    0    0  0.16428656065E+02 -0.30322424075E+02  0.15675348161E+02  0.13070191314E+03  0.12509166006E+03 0.  0.
          5    1    3    3  502    0 -0.57786688361E+01 -0.24647849458E+02 -0.52619477086E+02  0.58542217802E+02  0.41800000000E+01 0.  1.
         -5    1    3    3    0  502  0.22207324901E+02 -0.56745746171E+01  0.68294825246E+02  0.72159695341E+02  0.41800000000E+01 0.  1.
        -11    1    1    2    0    0 -0.13029068053E+00  0.45858784444E+02  0.17877570597E+03  0.18456380504E+03  0.00000000000E+00 0.  1.
         11    1    1    2    0    0 -0.16298365385E+02 -0.15536360369E+02  0.14262008525E+01  0.22562119949E+02  0.00000000000E+00 0. -1.
</event>
<event>
 7    1  0.2686828E-009  0.1440063E+03  0.7561462E-02  0.1208038E+00
         -2   -1    0    0    0  501 -0.00000000000E+00  0.00000000000E+00  0.85897087300E+02  0.85897087300E+02  0.00000000000E+00 0.  1.
          2   -1    0    0  501    0  0.00000000000E+00 -0.00000000000E+00 -0.26388732720E+03  0.26388732720E+03  0.00000000000E+00 0. -1.
         25    2    1    2    0    0  0.93323603100E+02 -0.26766361108E+02 -0.13704568664E+03  0.20941578582E+03  0.12509083956E+03 0.  0.
          5    1    3    3  502    0  0.61919812754E+02 -0.74681646194E+02 -0.10735359848E+03  0.14475385658E+03  0.41800000000E+01 0.  1.
         -5    1    3    3    0  502  0.31403790346E+02  0.47915285086E+02 -0.29692088158E+02  0.64661929233E+02  0.41800000000E+01 0.  1.
        -11    1    1    2    0    0 -0.94143720560E+02  0.52452199073E+02 -0.26873279487E+02  0.11106955685E+03  0.00000000000E+00 0.  1.
         11    1    1    2    0    0  0.82011745983E+00 -0.25685837965E+02 -0.14071273777E+02  0.29299071834E+02  0.00000000000E+00 0. -1.
</event>
<event>
 7    1  0.2686828E-009  0.1825204E+03  0.7561462E-02  0.1165386E+00
          2   -1    0    0  501    0  0.00000000000E+00  0.00000000000E+00  0.47677545579E+03  0.47677545579E+03  0.00000000000E+00 0. -1.
         -2   -1    0    0    0  501 -0.00000000000E+00 -0.00000000000E+00 -0.10750646376E+03  0.10750646376E+03  0.00000000000E+00 0.  1.
         25    2    1    2    0    0  0.90222210811E+02  0.14625556319E+03  0.62463793654E+02  0.22154080481E+03  0.12509142892E+03 0.  0.
          5    1    3    3  502    0  0.88400642380E+02  0.94505162227E+02 -0.12782450447E+02  0.13010289274E+03  0.41800000000E+01 0.  1.
         -5    1    3    3    0  502  0.18215684303E+01  0.51750400963E+02  0.75246244101E+02  0.91437912065E+02  0.41800000000E+01 0.  1.
        -11    1    1    2    0    0 -0.74479238980E+00 -0.57773134978E+02  0.48585096614E+02  0.75490406370E+02  0.00000000000E+00 0.  1.
         11    1    1    2    0    0 -0.89477418421E+02 -0.88482428212E+02  0.25822010176E+03  0.28725070838E+03  0.00000000000E+00 0. -1.
</event>
<event>
 7    1  0.2686828E-009  0.9571673E+02  0.7561462E-02  0.1289570E+00
         -2   -1    0    0    0  501 -0.00000000000E+00  0.00000000000E+00  0.39838380063E+02  0.39838380063E+02  0.00000000000E+00 0.  1.
          2   -1    0    0  501    0  0.00000000000E+00 -0.00000000000E+00 -0.41714912544E+03  0.41714912544E+03  0.00000000000E+00 0. -1.
         25    2    1    2    0    0  0.51548354147E+01  0.17414504166E+02 -0.89042603602E+02  0.15461560001E+03  0.12509021235E+03 0.  0.
          5    1    3    3  502    0 -0.45042531380E+02  0.41972048060E+02 -0.74467182948E+02  0.96712544107E+02  0.41800000000E+01 0.  1.
         -5    1    3    3    0  502  0.50197366794E+02 -0.24557543894E+02 -0.14575420654E+02  0.57903055899E+02  0.41800000000E+01 0.  1.
        -11    1    1    2    0    0 -0.24218195400E+02  0.20187047232E+02 -0.41976593740E+02  0.52498307462E+02  0.00000000000E+00 0.  1.
         11    1    1    2    0    0  0.19063359985E+02 -0.37601551397E+02 -0.24629154804E+03  0.24987359804E+03  0.00000000000E+00 0. -1.
</event>
<event>
 7    1  0.2686828E-009  0.1151812E+03  0.7561462E-02  0.1251265E+00
         -3   -1    0    0    0  501 -0.00000000000E+00  0.00000000000E+00  0.26377417006E+02  0.26377417006E+02  0.00000000000E+00 0.  1.
          3   -1    0    0  501    0  0.00000000000E+00 -0.00000000000E+00 -0.69797967605E+03  0.69797967605E+03  0.00000000000E+00 0. -1.
         25    2    1    2    0    0  0.19532199328E+02  0.47537053032E+02 -0.19973460275E+03  0.24121157782E+03  0.12509130872E+03 0.  0.
          5    1    3    3  502    0  0.39910938637E+02 -0.28017271626E+02 -0.11912839392E+03  0.12879012839E+03  0.41800000000E+01 0. -1.
         -5    1    3    3    0  502 -0.20378739309E+02  0.75554324658E+02 -0.80606208829E+02  0.11242144943E+03  0.41800000000E+01 0. -1.
        -11    1    1    2    0    0 -0.55410558019E+02 -0.31685968089E+02 -0.26375894123E+03  0.27137263973E+03  0.00000000000E+00 0.  1.
         11    1    1    2    0    0  0.35878358691E+02 -0.15851084943E+02 -0.20810871506E+03  0.21177287550E+03  0.00000000000E+00 0. -1.
</event>
<event>
 7    1  0.2686828E-009  0.1167666E+03  0.7561462E-02  0.1248529E+00
          1   -1    0    0  501    0  0.00000000000E+00  0.00000000000E+00  0.17235328377E+03  0.17235328377E+03  0.00000000000E+00 0. -1.
         -1   -1    0    0    0  501 -0.00000000000E+00 -0.00000000000E+00 -0.12345186675E+03  0.12345186675E+03  0.00000000000E+00 0.  1.
         25    2    1    2    0    0 -0.25559995181E+02  0.72096923937E+02 -0.35901503823E+02  0.15096629793E+03  0.12510245937E+03 0.  0.
          5    1    3    3  502    0  0.33771108248E+02  0.40928064708E+02 -0.59460176644E+02  0.79803378622E+02  0.41800000000E+01 0. -1.
         -5    1    3    3    0  502 -0.59331103429E+02  0.31168859229E+02  0.23558672820E+02  0.71162919311E+02  0.41800000000E+01 0. -1.
        -11    1    1    2    0    0  0.19001719585E+02  0.15984724696E+02  0.40432843828E+01  0.25157999113E+02  0.00000000000E+00 0.  1.
         11    1    1    2    0    0  0.65582755961E+01 -0.88081648633E+02  0.80759636460E+02  0.11968085346E+03  0.00000000000E+00 0. -1.
</event>
<event>
 7    1  0.2686828E-009  0.1664463E+03  0.7561462E-02  0.1181605E+00
         -1   -1    0    0    0  501 -0.00000000000E+00  0.00000000000E+00  0.13015785903E+04  0.13015785903E+04  0.00000000000E+00 0.  1.
          1   -1    0    0  501    0  0.00000000000E+00 -0.00000000000E+00 -0.36419207804E+02  0.36419207804E+02  0.00000000000E+00 0. -1.
         25    2    1    2    0    0 -0.71687755958E+02  0.14561032550E+03  0.95163043153E+03  0.97344254860E+03  0.12509362878E+03 0.  0.
          5    1    3    3  502    0  0.91903313127E+00  0.27954214062E+02  0.50713953305E+03  0.50792741715E+03  0.41800000000E+01 0. -1.
         -5    1    3    3    0  502 -0.72606789089E+02  0.11765611144E+03  0.44449089848E+03  0.46551513145E+03  0.41800000000E+01 0. -1.
        -11    1    1    2    0    0  0.59234589999E+02 -0.80173080559E+02  0.26205297946E+03  0.28037158120E+03  0.00000000000E+00 0.  1.
         11    1    1    2    0    0  0.12453165959E+02 -0.65437244941E+02  0.51475971513E+02  0.84183668316E+02  0.00000000000E+00 0. -1.
</event>
<event>
 7    1  0.2686828E-009  0.1123776E+03  0.7561462E-02  0.1256229E+00
         -1   -1    0    0    0  501 -0.00000000000E+00  0.00000000000E+00  0.95873186004E+02  0.95873186004E+02  0.00000000000E+00 0.  1.
          1   -1    0    0  501    0  0.00000000000E+00 -0.00000000000E+00 -0.18945403869E+03  0.18945403869E+03  0.00000000000E+00 0. -1.
         25    2    1    2    0    0 -0.55284051344E+02  0.55695652633E+02 -0.42387979700E+02  0.15362997190E+03  0.12508835033E+03 0.  0.
          5    1    3    3  502    0 -0.39112051180E+02  0.78300798912E+02 -0.71550873809E+02  0.11312721865E+03  0.41800000000E+01 0. -1.
         -5    1    3    3    0  502 -0.16172000165E+02 -0.22605146279E+02  0.29162894109E+02  0.40502753245E+02  0.41800000000E+01 0. -1.
        -11    1    1    2    0    0  0.42849289609E+02  0.84572344110E+01 -0.49931645278E+02  0.66338191369E+02  0.00000000000E+00 0. -1.
         11    1    1    2    0    0  0.12434761735E+02 -0.64152887044E+02 -0.12612277106E+01  0.65359061428E+02  0.00000000000E+00 0.  1.
</event>
<event>
 7    1  0.2686828E-009  0.1179350E+03  0.7561462E-02  0.1246543E+00
         -2   -1    0    0    0  501 -0.00000000000E+00  0.00000000000E+00  0.56072059022E+02  0.56072059022E+02  0.00000000000E+00 0. -1.
          2   -1    0    0  501    0  0.00000000000E+00 -0.00000000000E+00 -0.26768816760E+03  0.26768816760E+03  0.00000000000E+00 0.  1.
         25    2    1    2    0    0 -0.45324885496E+02  0.34301270022E+02 -0.10760671101E+03  0.17450889686E+03  0.12507289258E+03 0.  0.
          5    1    3    3  502    0  0.40327654176E+02  0.16287449283E+02 -0.13065959182E+02  0.45604740816E+02  0.41800000000E+01 0. -1.
         -5    1    3    3    0  502 -0.85652539673E+02  0.18013820739E+02 -0.94540751824E+02  0.12890415604E+03  0.41800000000E+01 0. -1.
        -11    1    1    2    0    0  0.22183799223E+02  0.29369055625E+02 -0.52645657261E+02  0.64235719072E+02  0.00000000000E+00 0.  1.
         11    1    1    2    0    0  0.23141086273E+02 -0.63670325647E+02 -0.51363740308E+02  0.85015610686E+02  0.00000000000E+00 0. -1.
</event>
<event>
 7    1  0.2686828E-009  0.1178893E+03  0.7561462E-02  0.1246620E+00
          2   -1    0    0  501    0  0.00000000000E+00  0.00000000000E+00  0.37240326528E+03  0.37240326528E+03  0.00000000000E+00 0. -1.
         -2   -1    0    0    0  501 -0.00000000000E+00 -0.00000000000E+00 -0.55902612342E+02  0.55902612342E+02  0.00000000000E+00 0.  1.
         25    2    1    2    0    0 -0.74804509884E+02 -0.44759395169E+02  0.22314357557E+03  0.27025825451E+03  0.12508937068E+03 0.  0.
          5    1    3    3  502    0  0.97629942455E+01  0.28139075683E+02  0.97925536261E+02  0.10244025912E+03  0.41800000000E+01 0.  1.
         -5    1    3    3    0  502 -0.84567504130E+02 -0.72898470852E+02  0.12521803931E+03  0.16781799538E+03  0.41800000000E+01 0.  1.
        -11    1    1    2    0    0  0.24399932472E+02 -0.29405446224E+01 -0.15424119360E+02  0.29015633120E+02  0.00000000000E+00 0.  1.
         11    1    1    2    0    0  0.50404577412E+02  0.47699939791E+02  0.10878119673E+03  0.12903199000E+03  0.00000000000E+00 0. -1.
</event>
<event>
 7    1  0.2686828E-009  0.1077847E+03  0.7561462E-02  0.1264728E+00
         -2   -1    0    0    0  501 -0.00000000000E+00  0.00000000000E+00  0.10045217849E+03  0.10045217849E+03  0.00000000000E+00 0. -1.
          2   -1    0    0  501    0  0.00000000000E+00 -0.00000000000E+00 -0.14297814345E+03  0.14297814345E+03  0.00000000000E+00 0.  1.
         25    2    1    2    0    0 -0.31168989042E+02  0.31781638509E+02 -0.38823493847E+02  0.13833307695E+03  0.12508876081E+03 0.  0.
          5    1    3    3  502    0 -0.35953837806E+01 -0.40784398565E+02 -0.44216213820E+02  0.60405628177E+02  0.41800000000E+01 0.  1.
         -5    1    3    3    0  502 -0.27573605261E+02  0.72566037074E+02  0.53927199736E+01  0.77927448774E+02  0.41800000000E+01 0.  1.
        -11    1    1    2    0    0 -0.27078684280E+02 -0.26984391780E+02 -0.21682306906E+02  0.43949231789E+02  0.00000000000E+00 0.  1.
         11    1    1    2    0    0  0.58247673322E+02 -0.47972467287E+01  0.17979835787E+02  0.61148013202E+02  0.00000000000E+00 0. -1.
</event>
<event>
 7    1  0.2686828E-009  0.2106722E+03  0.7561462E-02  0.1141035E+00
          2   -1    0    0  501    0  0.00000000000E+00  0.00000000000E+00  0.11692222708E+04  0.11692222708E+04  0.00000000000E+00 0. -1.
         -2   -1    0    0    0  501 -0.00000000000E+00 -0.00000000000E+00 -0.46745075590E+02  0.46745075590E+02  0.00000000000E+00 0.  1.
         25    2    1    2    0    0  0.17687460580E+03 -0.62244122272E+02  0.35501563855E+03  0.42052841441E+03  0.12509630999E+03 0.  0.
          5    1    3    3  502    0  0.38333007549E+02 -0.76461384785E+02  0.12254738675E+03  0.14950283352E+03  0.41800000000E+01 0. -1.
         -5    1    3    3    0  502  0.13854159825E+03  0.14217262513E+02  0.23246825180E+03  0.27102558089E+03  0.41800000000E+01 0. -1.
        -11    1    1    2    0    0 -0.10000064035E+03  0.65318105744E+02  0.32319534289E+03  0.34456031790E+03  0.00000000000E+00 0. -1.
         11    1    1    2    0    0 -0.76873965456E+02 -0.30739834724E+01  0.44426621376E+03  0.45087861407E+03  0.00000000000E+00 0.  1.
</event>
<event>
 7    1  0.2686828E-009  0.1207018E+03  0.7561462E-02  0.1241944E+00
         -2   -1    0    0    0  501 -0.00000000000E+00  0.00000000000E+00  0.11294381641E+03  0.11294381641E+03  0.00000000000E+00 0.  1.
          2   -1    0    0  501    0  0.00000000000E+00 -0.00000000000E+00 -0.26770356264E+03  0.26770356264E+03  0.00000000000E+00 0. -1.
         25    2    1    2    0    0 -0.66466863189E+02 -0.26686309839E+01 -0.20960044195E+03  0.25300037293E+03  0.12510746557E+03 0.  0.
          5    1    3    3  502    0  0.38562066067E+01 -0.50121277845E+02 -0.11663310885E+03  0.12707386553E+03  0.41800000000E+01 0. -1.
         -5    1    3    3    0  502 -0.70323069796E+02  0.47452646861E+02 -0.92967333108E+02  0.12592650740E+03  0.41800000000E+01 0. -1.
        -11    1    1    2    0    0 -0.18786840122E+02 -0.73674926633E+01 -0.75294920713E+01  0.21538768785E+02  0.00000000000E+00 0. -1.
         11    1    1    2    0    0  0.85253703311E+02  0.10036123647E+02  0.62370187798E+02  0.10610823734E+03  0.00000000000E+00 0.  1.
</event>
<event>
 7    1  0.2686828E-009  0.1405035E+03  0.7561462E-02  0.1212653E+00
         -2   -1    0    0    0  501 -0.00000000000E+00  0.00000000000E+00  0.21662166342E+02  0.21662166342E+02  0.00000000000E+00 0. -1.
          2   -1    0    0  501    0  0.00000000000E+00 -0.00000000000E+00 -0.14387288992E+04  0.14387288992E+04  0.00000000000E+00 0.  1.
         25    2    1    2    0    0  0.13651372469E+02  0.10150785141E+03 -0.11164515363E+04  0.11280967603E+04  0.12509222166E+03 0.  0.
          5    1    3    3  502    0 -0.50245349619E+02  0.13584422423E+02 -0.31512929127E+03  0.31942616409E+03  0.41800000000E+01 0.  1.
         -5    1    3    3    0  502  0.63896722088E+02  0.87923428992E+02 -0.80132224503E+03  0.80867059625E+03  0.41800000000E+01 0.  1.
        -11    1    1    2    0    0  0.12919497868E+02 -0.90238806191E+02 -0.28552837796E+03  0.29972722630E+03  0.00000000000E+00 0.  1.
         11    1    1    2    0    0 -0.26570870337E+02 -0.11269045224E+02 -0.15086818552E+02  0.32567078849E+02  0.00000000000E+00 0. -1.
</event>
<event>
 7    1  0.2686828E-009  0.1256344E+03  0.7561462E-02  0.1234081E+00
         -1   -1    0    0    0  501 -0.00000000000E+00  0.00000000000E+00  0.33969760745E+02  0.33969760745E+02  0.00000000000E+00 0.  1.
          1   -1    0    0  501    0  0.00000000000E+00 -0.00000000000E+00 -0.64250114714E+03  0.64250114714E+03  0.00000000000E+00 0. -1.
         25    2    1    2    0    0 -0.83382456670E+02  0.53058617415E+02 -0.28518060325E+03  0.32671562138E+03  0.12508904756E+03 0.  0.
          5    1    3    3  502    0 -0.92006987910E+02  0.36431226277E+02 -0.29040067731E+03  0.30682657292E+03  0.41800000000E+01 0.  1.
         -5    1    3    3    0  502  0.86245312407E+01  0.16627391138E+02  0.52200740579E+01  0.19889048453E+02  0.41800000000E+01 0.  1.
        -11    1    1    2    0    0  0.90335410306E+02 -0.11696898595E+02 -0.21054674972E+03  0.22940627195E+03  0.00000000000E+00 0.  1.
         11    1    1    2    0    0 -0.69529536363E+01 -0.41361718820E+02 -0.11280403342E+03  0.12034901455E+03  0.00000000000E+00 0. -1.
</event>
<event>
 7    1  0.2686828E-009  0.1578723E+03  0.7561462E-02  0.1191120E+00
          2   -1    0    0  501    0  0.00000000000E+00  0.00000000000E+00  0.69961836118E+03  0.69961836118E+03  0.00000000000E+00 0. -1.
         -2   -1    0    0    0  501 -0.00000000000E+00 -0.00000000000E+00 -0.62224821622E+02  0.62224821622E+02  0.00000000000E+00 0.  1.
         25    2    1    2    0    0  0.71062172060E+01  0.14139747558E+03  0.13528543670E+03  0.23236451306E+03  0.12508946049E+03 0.  0.
          5    1    3    3  502    0 -0.42504704927E+02  0.71263152756E+02  0.11851552221E+03  0.14473592604E+03  0.41800000000E+01 0.  1.
         -5    1    3    3    0  502  0.49610922133E+02  0.70134322820E+02  0.16769914492E+02  0.87628587027E+02  0.41800000000E+01 0.  1.
        -11    1    1    2    0    0 -0.19863619052E+02 -0.42218516848E+02  0.58957254968E+02  0.75185932461E+02  0.00000000000E+00 0.  1.
         11    1    1    2    0    0  0.12757401846E+02 -0.99178958728E+02  0.44315084789E+03  0.45429273728E+03  0.00000000000E+00 0. -1.
</event>
<event>
 7    1  0.2686828E-009  0.1041160E+03  0.7561462E-02  0.1271871E+00
          2   -1    0    0  501    0  0.00000000000E+00  0.00000000000E+00  0.14541065470E+03  0.14541065470E+03  0.00000000000E+00 0. -1.
         -2   -1    0    0    0  501 -0.00000000000E+00 -0.00000000000E+00 -0.10248998458E+03  0.10248998458E+03  0.00000000000E+00 0.  1.
         25    2    1    2    0    0  0.46510006253E+02  0.21741264934E+02  0.14409324270E+01  0.13522192127E+03  0.12508808265E+03 0.  0.
          5    1    3    3  502    0  0.54942901199E+02 -0.23225159403E+02  0.42697016023E+02  0.73475424454E+02  0.41800000000E+01 0.  1.
         -5    1    3    3    0  502 -0.84328949455E+01  0.44966424337E+02 -0.41256083596E+02  0.61746496812E+02  0.41800000000E+01 0.  1.
        -11    1    1    2    0    0  0.17062223723E+02  0.20117847778E+02  0.83807447003E+00  0.26392227008E+02  0.00000000000E+00 0.  1.
         11    1    1    2    0    0 -0.63572229977E+02 -0.41859112712E+02  0.40641663223E+02  0.86286491010E+02  0.00000000000E+00 0. -1.
</event>
<event>
 7    1  0.2686828E-009  0.1687151E+03  0.7561462E-02  0.1179194E+00
         -2   -1    0    0    0  501 -0.00000000000E+00  0.00000000000E+00  0.23884324181E+02  0.23884324181E+02  0.00000000000E+00 0.  1.
          2   -1    0    0  501    0  0.00000000000E+00 -0.00000000000E+00 -0.14424125639E+04  0.14424125639E+04  0.00000000000E+00 0. -1.
         25    2    1    2    0    0 -0.14301485606E+03 -0.42970273782E+02 -0.67882200117E+03  0.70621932837E+03  0.12508691783E+03 0.  0.
          5    1    3    3  502    0 -0.14194963586E+03 -0.67611908786E+02 -0.64644230155E+03  0.66530157896E+03  0.41800000000E+01 0.  1.
         -5    1    3    3    0  502 -0.10652201987E+01  0.24641635004E+02 -0.32379699619E+02  0.40917749415E+02  0.41800000000E+01 0.  1.
        -11    1    1    2    0    0  0.45370153321E+02 -0.62189030254E+01 -0.87387315009E+02  0.98659355318E+02  0.00000000000E+00 0.  1.
         11    1    1    2    0    0  0.97644702741E+02  0.49189176807E+02 -0.65231892355E+03  0.66141820440E+03  0.00000000000E+00 0. -1.
</event>
<event>
 7    1  0.2686828E-009  0.2047995E+03  0.7561462E-02  0.1145752E+00
         -2   -1    0    0    0  501 -0.00000000000E+00  0.00000000000E+00  0.75334436470E+02  0.75334436470E+02  0.00000000000E+00 0.  1.
          2   -1    0    0  501    0  0.00000000000E+00 -0.00000000000E+00 -0.69995991031E+03  0.69995991031E+03  0.00000000000E+00 0. -1.
         25    2    1    2    0    0 -0.14592834678E+03 -0.13413848497E+03 -0.27568559882E+03  0.36185470228E+03  0.12509220848E+03 0.  0.
          5    1    3    3  502    0 -0.83127903300E+02 -0.93496152503E+02 -0.25509981903E+03  0.28415694415E+03  0.41800000000E+01 0. -1.
         -5    1    3    3    0  502 -0.62800443477E+02 -0.40642332469E+02 -0.20585779794E+02  0.77697758135E+02  0.41800000000E+01 0. -1.
        -11    1    1    2    0    0  0.51961764866E+02  0.93823066513E+02 -0.24592531319E+03  0.26829471200E+03  0.00000000000E+00 0. -1.
         11    1    1    2    0    0  0.93966581912E+02  0.40315418459E+02 -0.10301456183E+03  0.14514493250E+03  0.00000000000E+00 0.  1.
</event>
<event>
 7    1  0.2686828E-009  0.1313633E+03  0.7561462E-02  0.1225447E+00
         -3   -1    0    0    0  501 -0.00000000000E+00  0.00000000000E+00  0.34374178911E+03  0.34374178911E+03  0.00000000000E+00 0.  1.
          3   -1    0    0  501    0  0.00000000000E+00 -0.00000000000E+00 -0.82721482619E+02  0.82721482619E+02  0.00000000000E+00 0. -1.
         25    2    1    2    0    0 -0.88728249301E+02  0.72938244889E+01  0.26071424377E+03  0.30256193066E+03  0.12508358358E+03 0.  0.
          5    1    3    3  502    0  0.80549897900E+01 -0.42091121199E+02  0.95739108244E+02  0.10497616202E+03  0.41800000000E+01 0.  1.
         -5    1    3    3    0  502 -0.96783239091E+02  0.49384945688E+02  0.16497513553E+03  0.19758576865E+03  0.41800000000E+01 0.  1.
        -11    1    1    2    0    0  0.46199774832E+02  0.29401369233E+02 -0.27438939470E+02  0.61251572277E+02  0.00000000000E+00 0. -1.
         11    1    1    2    0    0  0.42528474470E+02 -0.36695193722E+02  0.27745002194E+02  0.62649768792E+02  0.00000000000E+00 0.  1.
</event>
<event>
 7    1  0.2686828E-009  0.1538745E+03  0.7561462E-02  0.1195791E+00
         -2   -1    0    0    0  501 -0.00000000000E+00  0.00000000000E+00  0.25277025251E+02  0.25277025251E+02  0.00000000000E+00 0. -1.
          2   -1    0    0  501    0  0.00000000000E+00 -0.00000000000E+00 -0.97775238228E+03  0.97775238228E+03  0.00000000000E+00 0.  1.
         25    2    1    2    0    0 -0.10881578895E+03 -0.32385702322E+02 -0.49833599314E+03  0.52619139081E+03  0.12509559572E+03 0.  0.
          5    1    3    3  502    0 -0.60107359774E+02 -0.76617576343E+02 -0.35978921989E+03  0.37275850474E+03  0.41800000000E+01 0. -1.
         -5    1    3    3    0  502 -0.48708429180E+02  0.44231874021E+02 -0.13854677324E+03  0.15343288607E+03  0.41800000000E+01 0. -1.
        -11    1    1    2    0    0  0.85807224141E+02 -0.19144312895E+02 -0.24840709191E+03  0.26350610570E+03  0.00000000000E+00 0.  1.
         11    1    1    2    0    0  0.23008564813E+02  0.51530015217E+02 -0.20573227198E+03  0.21333191102E+03  0.00000000000E+00 0. -1.
</event>
<event>
 7    1  0.2686828E-009  0.8424163E+02  0.7561462E-02  0.1317428E+00
          1   -1    0    0  501    0  0.00000000000E+00  0.00000000000E+00  0.77900972318E+02  0.77900972318E+02  0.00000000000E+00 0. -1.
         -1   -1    0    0    0  501 -0.00000000000E+00 -0.00000000000E+00 -0.16796556824E+03  0.16796556824E+03  0.00000000000E+00 0.  1.
         25    2    1    2    0    0  0.22151826036E+02 -0.24686839893E+02 -0.35139332259E+02  0.13409372350E+03  0.12508481343E+03 0.  0.
          5    1    3    3  502    0  0.50060992084E+02 -0.26937520717E+02  0.29021713352E+02  0.63964562038E+02  0.41800000000E+01 0.  1.
         -5    1    3    3    0  502 -0.27909166049E+02  0.22506808235E+01 -0.64161045611E+02  0.70129161464E+02  0.41800000000E+01 0.  1.
        -11    1    1    2    0    0 -0.50569857539E+02  0.19942615108E+02 -0.55977276320E+01  0.54647533736E+02  0.00000000000E+00 0. -1.
         11    1    1    2    0    0  0.28418031503E+02  0.47442247851E+01 -0.49327536027E+02  0.57125283315E+02  0.00000000000E+00 0.  1.
</event>
<event>
 7    1  0.2686828E-009  0.1885024E+03  0.7561462E-02  0.1159819E+00
          2   -1    0    0  501    0  0.00000000000E+00  0.00000000000E+00  0.13111184777E+03  0.13111184777E+03  0.00000000000E+00 0.  1.
         -2   -1    0    0    0  501 -0.00000000000E+00 -0.00000000000E+00 -0.34132990931E+03  0.34132990931E+03  0.00000000000E+00 0. -1.
         25    2    1    2    0    0 -0.77157804793E+02 -0.13634383146E+03 -0.21175713624E+03  0.29160427868E+03  0.12509597666E+03 0.  0.
          5    1    3    3  502    0 -0.84572672035E+02 -0.24822231100E+02 -0.10251101965E+03  0.13525775971E+03  0.41800000000E+01 0.  1.
         -5    1    3    3    0  502  0.74148672420E+01 -0.11152160036E+03 -0.10924611659E+03  0.15634651896E+03  0.41800000000E+01 0.  1.
        -11    1    1    2    0    0  0.77069358741E+02  0.52904423349E+02 -0.17863618900E+02  0.95171807521E+02  0.00000000000E+00 0. -1.
         11    1    1    2    0    0  0.88446051773E-01  0.83439408113E+02  0.19402693592E+02  0.85665670881E+02  0.00000000000E+00 0.  1.
</event>
<event>
 7    1  0.2686828E-009  0.1132819E+03  0.7561462E-02  0.1254610E+00
         -1   -1    0    0    0  501 -0.00000000000E+00  0.00000000000E+00  0.44728431001E+02  0.44728431001E+02  0.00000000000E+00 0.  1.
          1   -1    0    0  501    0  0.00000000000E+00 -0.00000000000E+00 -0.57811324187E+03  0.57811324187E+03  0.00000000000E+00 0. -1.
         25    2    1    2    0    0  0.51584005502E+02  0.50520314005E+02 -0.46655717933E+03  0.48840677434E+03  0.12510940764E+03 0.  0.
          5    1    3    3  502    0  0.72819154025E+02 -0.14544266606E+02 -0.27768196191E+03  0.28746984060E+03  0.41800000000E+01 0.  1.
         -5    1    3    3    0  502 -0.21235148524E+02  0.65064580611E+02 -0.18887521742E+03  0.20093693374E+03  0.41800000000E+01 0.  1.
        -11    1    1    2    0    0  0.60753916017E+01 -0.14274299916E+02  0.19217791194E+02  0.24697965900E+02  0.00000000000E+00 0.  1.
         11    1    1    2    0    0 -0.57659397103E+02 -0.36246014089E+02 -0.86045422732E+02  0.10973693264E+03  0.00000000000E+00 0. -1.
</event>
<event>
 7    1  0.2686828E-009  0.1854848E+03  0.7561462E-02  0.1162598E+00
          1   -1    0    0  501    0  0.00000000000E+00  0.00000000000E+00  0.28587283521E+03  0.28587283521E+03  0.00000000000E+00 0. -1.
         -1   -1    0    0    0  501 -0.00000000000E+00 -0.00000000000E+00 -0.15527360579E+03  0.15527360579E+03  0.00000000000E+00 0.  1.
         25    2    1    2    0    0  0.13055154495E+03  0.11869506916E+03  0.10784540115E+03  0.24167346767E+03  0.12507281518E+03 0.  0.
          5    1    3    3  502    0  0.42332025828E+02  0.91873624400E+02  0.20376187711E+01  0.10126394996E+03  0.41800000000E+01 0.  1.
         -5    1    3    3    0  502  0.88219519117E+02  0.26821444762E+02  0.10580778238E+03  0.14040951771E+03  0.41800000000E+01 0.  1.
        -11    1    1    2    0    0 -0.89203373433E+02 -0.68984790310E+02  0.56947252779E+02  0.12632946103E+03  0.00000000000E+00 0.  1.
         11    1    1    2    0    0 -0.41348171512E+02 -0.49710278852E+02 -0.34193424503E+02  0.73143512290E+02  0.00000000000E+00 0. -1.
</event>
<event>
 7    1  0.3181558E-009  0.1879939E+03  0.7561462E-02  0.1160283E+00
          1   -1    0    0  501    0  0.00000000000E+00  0.00000000000E+00  0.15206105499E+04  0.15206105499E+04  0.00000000000E+00 0. -1.
         -1   -1    0    0    0  501 -0.00000000000E+00 -0.00000000000E+00 -0.31109245103E+02  0.31109245103E+02  0.00000000000E+00 0.  1.
         25    2    1    2    0    0 -0.22010470437E+02 -0.16813321060E+03  0.10628689061E+04  0.10835532231E+04  0.12507612995E+03 0.  0.
          5    1    3    3  502    0  0.15293306800E+02  0.45003594839E+01  0.30174756306E+03  0.30219729099E+03  0.41800000000E+01 0.  1.
         -5    1    3    3    0  502 -0.37303777237E+02 -0.17263357008E+03  0.76112134306E+03  0.78135593206E+03  0.41800000000E+01 0.  1.
        -11    1    1    2    0    0 -0.23545418829E+02  0.35479301173E+02  0.46836303236E+02  0.63299343285E+02  0.00000000000E+00 0.  1.
         11    1    1    2    0    0  0.45555889266E+02  0.13265390943E+03  0.37979609548E+03  0.40486722870E+03  0.00000000000E+00 0. -1.
</event>
<event>
 7    1  0.2686828E-009  0.9243944E+02  0.7561462E-02  0.1297050E+00
         -1   -1    0    0    0  501 -0.00000000000E+00  0.00000000000E+00  0.18912468992E+03  0.18912468992E+03  0.00000000000E+00 0.  1.
          1   -1    0    0  501    0  0.00000000000E+00 -0.00000000000E+00 -0.98287468180E+02  0.98287468180E+02  0.00000000000E+00 0. -1.
         25    2    1    2    0    0  0.62753532985E+02  0.10432538855E+02 -0.12998788834E+01  0.14035631788E+03  0.12510540562E+03 0.  0.
          5    1    3    3  502    0  0.57432256905E+01  0.29470835712E+02 -0.52939162801E+02  0.61004443748E+02  0.41800000000E+01 0.  1.
         -5    1    3    3    0  502  0.57010307295E+02 -0.19038296857E+02  0.51639283917E+02  0.79351874134E+02  0.41800000000E+01 0.  1.
        -11    1    1    2    0    0 -0.76829476241E+02 -0.61136957455E-01  0.29955261408E+02  0.82462657265E+02  0.00000000000E+00 0. -1.
         11    1    1    2    0    0  0.14075943256E+02 -0.10371401897E+02  0.62181839211E+02  0.64593182949E+02  0.00000000000E+00 0.  1.
</event>
<event>
 7    1  0.2686828E-009  0.1440699E+03  0.7561462E-02  0.1207955E+00
          1   -1    0    0  501    0  0.00000000000E+00  0.00000000000E+00  0.18662556444E+04  0.18662556444E+04  0.00000000000E+00 0. -1.
         -1   -1    0    0    0  501 -0.00000000000E+00 -0.00000000000E+00 -0.16639914605E+02  0.16639914605E+02  0.00000000000E+00 0.  1.
         25    2    1    2    0    0  0.12932646786E+03  0.33812122459E+01  0.12297306563E+04  0.12428281873E+04  0.12509056022E+03 0.  0.
          5    1    3    3  502    0  0.33380776875E+02 -0.53265109177E+01  0.58945834196E+02  0.68078864213E+02  0.41800000000E+01 0. -1.
         -5    1    3    3    0  502  0.95945690988E+02  0.87077231636E+01  0.11707848221E+04  0.11747493231E+04  0.41800000000E+01 0. -1.
        -11    1    1    2    0    0 -0.97883319243E+02  0.38581519452E+02  0.45679210353E+03  0.46875228391E+03  0.00000000000E+00 0. -1.
         11    1    1    2    0    0 -0.31443148620E+02 -0.41962731698E+02  0.16309296997E+03  0.17131508778E+03  0.00000000000E+00 0.  1.
</event>
<event>
 7    1  0.2686828E-009  0.1100643E+03  0.7561462E-02  0.1260451E+00
         -2   -1    0    0    0  501 -0.00000000000E+00  0.00000000000E+00  0.52779975953E+02  0.52779975953E+02  0.00000000000E+00 0.  1.
          2   -1    0    0  501    0  0.00000000000E+00 -0.00000000000E+00 -0.43108193768E+03  0.43108193768E+03  0.00000000000E+00 0. -1.
         25    2    1    2    0    0 -0.99837476579E+02  0.31870466273E+02 -0.20045372825E+03  0.25848094616E+03  0.12508978377E+03 0.  0.
          5    1    3    3  502    0 -0.25884618519E+02 -0.65422878919E+00  0.13675965250E+02  0.29579484726E+02  0.41800000000E+01 0.  1.
         -5    1    3    3    0  502 -0.73952858061E+02  0.32524695063E+02 -0.21412969350E+03  0.22890146143E+03  0.41800000000E+01 0.  1.
        -11    1    1    2    0    0  0.63835394501E+02  0.15868293093E+01 -0.31900576287E+02  0.71380125987E+02  0.00000000000E+00 0.  1.
         11    1    1    2    0    0  0.36002082078E+02 -0.33457295583E+02 -0.14594765719E+03  0.15400084149E+03  0.00000000000E+00 0. -1.
</event>
<event>
 7    1  0.2686828E-009  0.1068108E+03  0.7561462E-02  0.1266592E+00
          1   -1    0    0  501    0  0.00000000000E+00  0.00000000000E+00  0.88668370730E+02  0.88668370730E+02  0.00000000000E+00 0. -1.
         -1   -1    0    0    0  501 -0.00000000000E+00 -0.00000000000E+00 -0.25674386210E+03  0.25674386210E+03  0.00000000000E+00 0.  1.
         25    2    1    2    0    0 -0.16985165412E+02  0.69591307669E+02 -0.17607711688E+03  0.22755661140E+03  0.12508962528E+03 0.  0.
          5    1    3    3  502    0 -0.56568183160E+02  0.82347360357E+01 -0.12740732746E+03  0.13970636962E+03  0.41800000000E+01 0. -1.
         -5    1    3    3    0  502  0.39583017748E+02  0.61356571633E+02 -0.48669789425E+02  0.87850241772E+02  0.41800000000E+01 0. -1.
        -11    1    1    2    0    0  0.31246882108E+02 -0.49222819309E+02  0.44741907164E+02  0.73492120930E+02  0.00000000000E+00 0. -1.
         11    1    1    2    0    0 -0.14261716696E+02 -0.20368488360E+02 -0.36740281650E+02  0.44363500504E+02  0.00000000000E+00 0.  1.
</event>
<event>
 7    1  0.2686828E-009  0.1205920E+03  0.7561462E-02  0.1242124E+00
         -2   -1    0    0    0  501 -0.00000000000E+00  0.00000000000E+00  0.11246706797E+03  0.11246706797E+03  0.00000000000E+00 0. -1.
          2   -1    0    0  501    0  0.00000000000E+00 -0.00000000000E+00 -0.23510773687E+03  0.23510773687E+03  0.00000000000E+00 0.  1.
         25    2    1    2    0    0 -0.64699609611E+02 -0.67251044159E+02 -0.13936274462E+03  0.20923094521E+03  0.12508745508E+03 0.  0.
          5    1    3    3  502    0 -0.24838516203E+02 -0.86256453228E+02 -0.36090637810E+02  0.96835603722E+02  0.41800000000E+01 0. -1.
         -5    1    3    3    0  502 -0.39861093408E+02  0.19005409069E+02 -0.10327210681E+03  0.11239534148E+03  0.41800000000E+01 0. -1.
        -11    1    1    2    0    0 -0.50236233661E+01  0.24874463317E+02 -0.33883862613E+02  0.42333105988E+02  0.00000000000E+00 0.  1.
         11    1    1    2    0    0  0.69723232977E+02  0.42376580842E+02  0.50605938331E+02  0.96010753642E+02  0.00000000000E+00 0. -1.
</event>
<event>
 7    1  0.2686828E-009  0.1115724E+03  0.7561462E-02  0.1257685E+00
          1   -1    0    0  501    0  0.00000000000E+00  0.00000000000E+00  0.29512045256E+03  0.29512045256E+03  0.00000000000E+00 0. -1.
         -1   -1    0    0    0  501 -0.00000000000E+00 -0.00000000000E+00 -0.73960784005E+02  0.73960784005E+02  0.00000000000E+00 0.  1.
         25    2    1    2    0    0  0.41285754466E+01  0.76630938497E+02  0.19921887283E+03  0.24743187860E+03  0.12508009188E+03 0.  0.
          5    1    3    3  502    0 -0.20331435107E+02  0.98058121518E+02  0.18751129135E+03  0.21261871798E+03  0.41800000000E+01 0. -1.
         -5    1    3    3    0  502  0.24460010553E+02 -0.21427183020E+02  0.11707581476E+02  0.34813160622E+02  0.41800000000E+01 0. -1.
        -11    1    1    2    0    0  0.21170954861E+02 -0.44092380435E+02 -0.28422579357E+02  0.56570225026E+02  0.00000000000E+00 0.  1.
         11    1    1    2    0    0 -0.25299530307E+02 -0.32538558062E+02  0.50363375079E+02  0.65079132938E+02  0.00000000000E+00 0. -1.
</event>
<event>
 7    1  0.2686828E-009  0.2229524E+03  0.7561462E-02  0.1131701E+00
         -2   -1    0    0    0  501 -0.00000000000E+00  0.00000000000E+00  0.31052387723E+02  0.31052387723E+02  0.00000000000E+00 0. -1.
          2   -1    0    0  501    0  0.00000000000E+00 -0.00000000000E+00 -0.18899316807E+04  0.18899316807E+04  0.00000000000E+00 0.  1.
         25    2    1    2    0    0 -0.20805800062E+03  0.56073807681E+02 -0.10328581896E+04  0.10624858860E+04  0.12509122520E+03 0.  0.
          5    1    3    3  502    0 -0.89752520900E+02  0.24153463404E+02 -0.19916286978E+03  0.21982316962E+03  0.41800000000E+01 0. -1.
         -5    1    3    3    0  502 -0.11830547972E+03  0.31920344277E+02 -0.83369531979E+03  0.84266271636E+03  0.41800000000E+01 0. -1.
        -11    1    1    2    0    0  0.21168449813E+02  0.19390782282E+02 -0.16338296449E+03  0.16588580044E+03  0.00000000000E+00 0.  1.
         11    1    1    2    0    0  0.18688955080E+03 -0.75464589963E+02 -0.66263813889E+03  0.69261238197E+03  0.00000000000E+00 0. -1.
</event>
<event>
 7    1  0.2686828E-009  0.1190217E+03  0.7561462E-02  0.1244720E+00
         -2   -1    0    0    0  501 -0.00000000000E+00  0.00000000000E+00  0.27501206256E+03  0.27501206256E+03  0.00000000000E+00 0.  1.
          2   -1    0    0  501    0  0.00000000000E+00 -0.00000000000E+00 -0.63433888795E+02  0.63433888795E+02  0.00000000000E+00 0. -1.
         25    2    1    2    0    0  0.29641186245E+02 -0.52289200843E+02  0.11885912013E+03  0.18272684617E+03  0.12509536133E+03 0.  0.
          5    1    3    3  502    0  0.74770087746E+02 -0.11552587348E+02  0.81334153566E+02  0.11116089795E+03  0.41800000000E+01 0.  1.
         -5    1    3    3    0  502 -0.45128901501E+02 -0.40736613495E+02  0.37524966560E+02  0.71565948223E+02  0.41800000000E+01 0.  1.
        -11    1    1    2    0    0 -0.57940411884E+02  0.29621107396E+02  0.10572498862E+02  0.65926315419E+02  0.00000000000E+00 0. -1.
         11    1    1    2    0    0  0.28299225638E+02  0.22668093447E+02  0.82146554772E+02  0.89792789762E+02  0.00000000000E+00 0.  1.
</event>
<event>
 7    1  0.2686828E-009  0.2085898E+03  0.7561462E-02  0.1142688E+00
         -2   -1    0    0    0  501 -0.00000000000E+00  0.00000000000E+00  0.25470835777E+03  0.25470835777E+03  0.00000000000E+00 0.  1.
          2   -1    0    0  501    0  0.00000000000E+00 -0.00000000000E+00 -0.18819425123E+03  0.18819425123E+03  0.00000000000E+00 0. -1.
         25    2    1    2    0    0  0.18713414919E+03  0.22127185104E+02  0.10454495798E+02  0.22641718095E+03  0.12508653497E+03 0.  0.
          5    1    3    3  502    0  0.34919555698E+02 -0.39800038199E+02  0.29798128509E+02  0.60900076137E+02  0.41800000000E+01 0. -1.
         -5    1    3    3    0  502  0.15221459350E+03  0.61927223303E+02 -0.19343632711E+02  0.16551710481E+03  0.41800000000E+01 0. -1.
        -11    1    1    2    0    0 -0.16040351146E+03 -0.42658656684E+02  0.20088153094E+02  0.16719025502E+03  0.00000000000E+00 0. -1.
         11    1    1    2    0    0 -0.26730637729E+02  0.20531471580E+02  0.35971457643E+02  0.49295173025E+02  0.00000000000E+00 0.  1.
</event>
<event>
 7    1  0.2686828E-009  0.1195794E+03  0.7561462E-02  0.1243792E+00
         -1   -1    0    0    0  501 -0.00000000000E+00  0.00000000000E+00  0.36092345021E+02  0.36092345021E+02  0.00000000000E+00 0.  1.
          1   -1    0    0  501    0  0.00000000000E+00 -0.00000000000E+00 -0.43821714229E+03  0.43821714229E+03  0.00000000000E+00 0. -1.
         25    2    1    2    0    0 -0.47123268595E+02  0.21037049467E+02 -0.15339350390E+03  0.20454946571E+03  0.12509099484E+03 0.  0.
          5    1    3    3  502    0 -0.53102204284E+02 -0.44392614187E+02 -0.83377585593E+02  0.10844280739E+03  0.41800000000E+01 0. -1.
         -5    1    3    3    0  502  0.59789356893E+01  0.65429663654E+02 -0.70015918304E+02  0.96106658322E+02  0.41800000000E+01 0. -1.
        -11    1    1    2    0    0  0.59805069216E+02 -0.46355471916E+02 -0.16956936838E+03  0.18568588200E+03  0.00000000000E+00 0.  1.
         11    1    1    2    0    0 -0.12681800622E+02  0.25318422449E+02 -0.79161924990E+02  0.84074139605E+02  0.00000000000E+00 0. -1.
</event>
<event>
 7    1  0.2686828E-009  0.1019609E+03  0.7561462E-02  0.1276226E+00
         -3   -1    0    0    0  501 -0.00000000000E+00  0.00000000000E+00  0.10755476405E+03  0.10755476405E+03  0.00000000000E+00 0.  1.
          3   -1    0    0  501    0  0.00000000000E+00 -0.00000000000E+00 -0.13281190231E+03  0.13281190231E+03  0.00000000000E+00 0. -1.
         25    2    1    2    0    0  0.29509730692E+02  0.16092279361E+02 -0.52986474960E+02  0.13994409261E+03  0.12508795653E+03 0.  0.
          5    1    3    3  502    0  0.24452541586E+02  0.69214924668E+02 -0.17062001921E+02  0.75479910549E+02  0.41800000000E+01 0.  1.
         -5    1    3    3    0  502  0.50571891059E+01 -0.53122645308E+02 -0.35924473038E+02  0.64464182064E+02  0.41800000000E+01 0.  1.
        -11    1    1    2    0    0  0.17683159111E+02  0.12532438952E+02 -0.18444961284E+02  0.28460020011E+02  0.00000000000E+00 0. -1.
         11    1    1    2    0    0 -0.47192889803E+02 -0.28624718313E+02  0.46174297978E+02  0.71962553737E+02  0.00000000000E+00 0.  1.
</event>
<event>
 7    1  0.2686828E-009  0.1676897E+03  0.7561462E-02  0.1180279E+00
         -1   -1    0    0    0  501 -0.00000000000E+00  0.00000000000E+00  0.23891089928E+02  0.23891089928E+02  0.00000000000E+00 0.  1.
          1   -1    0    0  501    0  0.00000000000E+00 -0.00000000000E+00 -0.13559654489E+04  0.13559654489E+04  0.00000000000E+00 0. -1.
         25    2    1    2    0    0  0.11687956925E+03  0.69394268635E+02 -0.88463576493E+03  0.90371704585E+03  0.12509062366E+03 0.  0.
          5    1    3    3  502    0 -0.33010266777E+01  0.57910440801E+02 -0.40243219916E+03  0.40661242388E+03  0.41800000000E+01 0. -1.
         -5    1    3    3    0  502  0.12018059592E+03  0.11483827834E+02 -0.48220356577E+03  0.49710462197E+03  0.41800000000E+01 0. -1.
        -11    1    1    2    0    0 -0.68078994125E+02  0.41011966779E+01 -0.26281678298E+03  0.27152206295E+03  0.00000000000E+00 0. -1.
         11    1    1    2    0    0 -0.48800575122E+02 -0.73495465313E+02 -0.18462181110E+03  0.20461743007E+03  0.00000000000E+00 0.  1.
</event>
<event>
 7    1  0.2686828E-009  0.4654385E+03  0.7561462E-02  0.1023216E+00
         -2   -1    0    0    0  501 -0.00000000000E+00  0.00000000000E+00  0.14803217480E+03  0.14803217480E+03  0.00000000000E+00 0.  1.
          2   -1    0    0  501    0  0.00000000000E+00 -0.00000000000E+00 -0.15506803985E+04  0.15506803985E+04  0.00000000000E+00 0. -1.
         25    2    1    2    0    0  0.41150355198E+03 -0.20073951645E+03 -0.86232025458E+03  0.98431376985E+03  0.12508336941E+03 0.  0.
          5    1    3    3  502    0  0.56526614795E+02 -0.59170934093E+02 -0.84690728997E+02  0.11784078072E+03  0.41800000000E+01 0. -1.
         -5    1    3    3    0  502  0.35497693719E+03 -0.14156858236E+03 -0.77762952558E+03  0.86647298914E+03  0.41800000000E+01 0. -1.
        -11    1    1    2    0    0 -0.40184080155E+02  0.54405220009E+02 -0.91485103389E+02  0.11377263469E+03  0.00000000000E+00 0. -1.
         11    1    1    2    0    0 -0.37131947183E+03  0.14633429644E+03 -0.44884286575E+03  0.60062616877E+03  0.00000000000E+00 0.  1.
</event>
<event>
 7    1  0.2686828E-009  0.9217372E+02  0.7561462E-02  0.1297671E+00
          2   -1    0    0  501    0  0.00000000000E+00  0.00000000000E+00  0.37792681786E+03  0.37792681786E+03  0.00000000000E+00 0. -1.
         -2   -1    0    0    0  501 -0.00000000000E+00 -0.00000000000E+00 -0.52484986654E+02  0.52484986654E+02  0.00000000000E+00 0.  1.
         25    2    1    2    0    0 -0.35418454169E+02 -0.78031545277E+02  0.13481037338E+03  0.20289113395E+03  0.12509031343E+03 0.  0.
          5    1    3    3  502    0 -0.45691564696E+02 -0.65848225908E+02  0.14621139805E+02  0.81577926357E+02  0.41800000000E+01 0.  1.
         -5    1    3    3    0  502  0.10273110527E+02 -0.12183319369E+02  0.12018923357E+03  0.12131320760E+03  0.41800000000E+01 0.  1.
        -11    1    1    2    0    0  0.11029381192E+02  0.46288524421E+02  0.18924930654E+02  0.51209645018E+02  0.00000000000E+00 0.  1.
         11    1    1    2    0    0  0.24389072977E+02  0.31743020855E+02  0.17170652718E+03  0.17631102555E+03  0.00000000000E+00 0. -1.
</event>
<event>
 7    1  0.2686828E-009  0.7496080E+02  0.7561462E-02  0.1343992E+00
          1   -1    0    0  501    0  0.00000000000E+00  0.00000000000E+00  0.32432869732E+03  0.32432869732E+03  0.00000000000E+00 0. -1.
         -1   -1    0    0    0  501 -0.00000000000E+00 -0.00000000000E+00 -0.67334045154E+02  0.67334045154E+02  0.00000000000E+00 0.  1.
         25    2    1    2    0    0  0.10280721112E+02  0.71249501722E+02  0.23244048465E+03  0.27360193999E+03  0.12508900007E+03 0.  0.
          5    1    3    3  502    0  0.14091380303E+02  0.17982523891E+02 -0.10020207152E+02  0.25294566921E+02  0.41800000000E+01 0. -1.
         -5    1    3    3    0  502 -0.38106591915E+01  0.53266977831E+02  0.24246069180E+03  0.24830737307E+03  0.41800000000E+01 0. -1.
        -11    1    1    2    0    0 -0.80286204692E+01 -0.16656202106E+02  0.53232422725E+02  0.56352272753E+02  0.00000000000E+00 0. -1.
         11    1    1    2    0    0 -0.22521006427E+01 -0.54593299616E+02 -0.28678255206E+02  0.61708529734E+02  0.00000000000E+00 0.  1.
</event>
<event>
 7    1  0.2686828E-009  0.1740215E+03  0.7561462E-02  0.1173718E+00
          2   -1    0    0  501    0  0.00000000000E+00  0.00000000000E+00  0.12913699030E+03  0.12913699030E+03  0.00000000000E+00 0. -1.
         -2   -1    0    0    0  501 -0.00000000000E+00 -0.00000000000E+00 -0.32510258652E+03  0.32510258652E+03  0.00000000000E+00 0.  1.
         25    2    1    2    0    0 -0.74729231994E+02 -0.13382352306E+03 -0.11374465502E+02  0.19816538540E+03  0.12508776146E+03 0.  0.
          5    1    3    3  502    0 -0.79758943562E+01 -0.12360912743E+03  0.16419301148E+02  0.12501958696E+03  0.41800000000E+01 0. -1.
         -5    1    3    3    0  502 -0.66753337638E+02 -0.10214395629E+02 -0.27793766651E+02  0.73145798434E+02  0.41800000000E+01 0. -1.
        -11    1    1    2    0    0  0.41325066057E+02  0.10305345318E+03 -0.17855170708E+03  0.21025814466E+03  0.00000000000E+00 0.  1.
         11    1    1    2    0    0  0.33404165937E+02  0.30770069881E+02 -0.60394236302E+01  0.45816046755E+02  0.00000000000E+00 0. -1.
</event>
<event>
 7    1  0.2686828E-009  0.1961603E+03  0.7561462E-02  0.1153020E+00
         -2   -1    0    0    0  501 -0.00000000000E+00  0.00000000000E+00  0.18032992498E+02  0.18032992498E+02  0.00000000000E+00 0. -1.
          2   -1    0    0  501    0  0.00000000000E+00 -0.00000000000E+00 -0.21535482406E+04  0.21535482406E+04  0.00000000000E+00 0.  1.
         25    2    1    2    0    0  0.15417896193E+03 -0.55150430256E+02 -0.12232775575E+04  0.12405112645E+04  0.12508993774E+03 0.  0.
          5    1    3    3  502    0  0.53402669175E+02  0.40403337143E+02 -0.40753983704E+03  0.41302598695E+03  0.41800000000E+01 0. -1.
         -5    1    3    3    0  502  0.10077629276E+03 -0.95553767399E+02 -0.81573772045E+03  0.82748527758E+03  0.41800000000E+01 0. -1.
        -11    1    1    2    0    0 -0.81615611392E+02 -0.17646913165E+02 -0.41705667785E+03  0.42533374437E+03  0.00000000000E+00 0.  1.
         11    1    1    2    0    0 -0.72563350540E+02  0.72797343421E+02 -0.49518101278E+03  0.50573622420E+03  0.00000000000E+00 0. -1.
</event>
<event>
 7    1  0.2686828E-009  0.1243141E+03  0.7561462E-02  0.1236145E+00
         -2   -1    0    0    0  501 -0.00000000000E+00  0.00000000000E+00  0.12494467379E+03  0.12494467379E+03  0.00000000000E+00 0. -1.
          2   -1    0    0  501    0  0.00000000000E+00 -0.00000000000E+00 -0.12754146439E+03  0.12754146439E+03  0.00000000000E+00 0.  1.
         25    2    1    2    0    0  0.64044707525E+02  0.94323796090E+01 -0.44200946292E+01  0.14092216960E+03  0.12509526890E+03 0.  0.
          5    1    3    3  502    0  0.43462574321E+02 -0.55689411113E+02  0.85458440703E+01  0.71279798874E+02  0.41800000000E+01 0. -1.
         -5    1    3    3    0  502  0.20582133204E+02  0.65121790722E+02 -0.12965938699E+02  0.69642370727E+02  0.41800000000E+01 0. -1.
        -11    1    1    2    0    0  0.18415073163E+02 -0.18958090810E+02  0.97670454000E+01  0.28176573649E+02  0.00000000000E+00 0. -1.
         11    1    1    2    0    0 -0.82459780688E+02  0.95257112009E+01 -0.79437413705E+01  0.83387394922E+02  0.00000000000E+00 0.  1.
</event>
<event>
 7    1  0.2686828E-009  0.1755397E+03  0.7561462E-02  0.1172191E+00
         -1   -1    0    0    0  501 -0.00000000000E+00  0.00000000000E+00  0.96896840105E+02  0.96896840105E+02  0.00000000000E+00 0.  1.
          1   -1    0    0  501    0  0.00000000000E+00 -0.00000000000E+00 -0.36798906596E+03  0.36798906596E+03  0.00000000000E+00 0. -1.
         25    2    1    2    0    0 -0.11894097837E+03 -0.76257859060E+02 -0.21837020747E+03  0.28860157523E+03  0.12507239629E+03 0.  0.
          5    1    3    3  502    0  0.23702307551E+02 -0.14321444252E+02 -0.61983464190E+02  0.68017096245E+02  0.41800000000E+01 0. -1.
         -5    1    3    3    0  502 -0.14264328592E+03 -0.61936414808E+02 -0.15638674328E+03  0.22058447898E+03  0.41800000000E+01 0. -1.
        -11    1    1    2    0    0  0.63905775472E+02 -0.10502955875E+02 -0.28308180524E+02  0.70679652697E+02  0.00000000000E+00 0. -1.
         11    1    1    2    0    0  0.55035202894E+02  0.86760814934E+02 -0.24413837866E+02  0.10560467814E+03  0.00000000000E+00 0.  1.
</event>
<event>
 7    1  0.2686828E-009  0.3558557E+03  0.7561462E-02  0.1060237E+00
         -2   -1    0    0    0  501 -0.00000000000E+00  0.00000000000E+00  0.30669177320E+03  0.30669177320E+03  0.00000000000E+00 0.  1.
          2   -1    0    0  501    0  0.00000000000E+00 -0.00000000000E+00 -0.46012077127E+03  0.46012077127E+03  0.00000000000E+00 0. -1.
         25    2    1    2    0    0  0.97544482548E+02  0.34141760429E+03 -0.13457940263E+03  0.39979940548E+03  0.12508813856E+03 0.  0.
          5    1    3    3  502    0  0.80667393492E+02  0.28037866163E+03 -0.53192135711E+02  0.29659112929E+03  0.41800000000E+01 0. -1.
         -5    1    3    3    0  502  0.16877089056E+02  0.61038942663E+02 -0.81387266924E+02  0.10320827619E+03  0.41800000000E+01 0. -1.
        -11    1    1    2    0    0 -0.16523041968E+02 -0.11082175948E+03  0.33714876107E+02  0.11700925673E+03  0.00000000000E+00 0.  1.
         11    1    1    2    0    0 -0.81021440580E+02 -0.23059584482E+03 -0.52564471543E+02  0.25000388227E+03  0.00000000000E+00 0. -1.
</event>
<event>
 7    1  0.2686828E-009  0.1272045E+03  0.7561462E-02  0.1231664E+00
         -2   -1    0    0    0  501 -0.00000000000E+00  0.00000000000E+00  0.13876867725E+03  0.13876867725E+03  0.00000000000E+00 0. -1.
          2   -1    0    0  501    0  0.00000000000E+00 -0.00000000000E+00 -0.13164816828E+03  0.13164816828E+03  0.00000000000E+00 0.  1.
         25    2    1    2    0    0 -0.22855271292E+02 -0.68375258020E+02 -0.30293918679E+02  0.14752019864E+03  0.12508776185E+03 0.  0.
          5    1    3    3  502    0 -0.72798319025E+02 -0.55648983595E+02 -0.27395505627E+02  0.95730824485E+02  0.41800000000E+01 0.  1.
         -5    1    3    3    0  502  0.49943047733E+02 -0.12726274425E+02 -0.28984130525E+01  0.51789374159E+02  0.41800000000E+01 0.  1.
        -11    1    1    2    0    0 -0.29130919207E+02  0.45840180359E+02  0.37908194746E+02  0.66234158997E+02  0.00000000000E+00 0. -1.
         11    1    1    2    0    0  0.51986190500E+02  0.22535077661E+02 -0.49376710228E+00  0.56662487889E+02  0.00000000000E+00 0.  1.
</event>
<event>
 7    1  0.2686828E-009  0.1152562E+03  0.7561462E-02  0.1251135E+00
          1   -1    0    0  501    0  0.00000000000E+00  0.00000000000E+00  0.22152127134E+03  0.22152127134E+03  0.00000000000E+00 0. -1.
         -1   -1    0    0    0  501 -0.00000000000E+00 -0.00000000000E+00 -0.10014645133E+03  0.10014645133E+03  0.00000000000E+00 0.  1.
         25    2    1    2    0    0 -0.69224904595E+02 -0.34919541777E+02 -0.56947782706E+01  0.14728056187E+03  0.12509065349E+03 0.  0.
          5    1    3    3  502    0 -0.61000486226E+02  0.12850727288E+02  0.45014073593E+02  0.77006101921E+02  0.41800000000E+01 0.  1.
         -5    1    3    3    0  502 -0.82244183684E+01 -0.47770269065E+02 -0.50708851863E+02  0.70274459950E+02  0.41800000000E+01 0.  1.
        -11    1    1    2    0    0  0.26967849810E+02  0.63077677912E+02  0.70448021692E+02  0.98330982576E+02  0.00000000000E+00 0.  1.
         11    1    1    2    0    0  0.42257054785E+02 -0.28158136134E+02  0.56621576590E+02  0.76056178219E+02  0.00000000000E+00 0. -1.
</event>
<event>
 7    1  0.2686828E-009  0.1248515E+03  0.7561462E-02  0.1235301E+00
          2   -1    0    0  501    0  0.00000000000E+00  0.00000000000E+00  0.12033866785E+03  0.12033866785E+03  0.00000000000E+00 0. -1.
         -2   -1    0    0    0  501 -0.00000000000E+00 -0.00000000000E+00 -0.16870756575E+03  0.16870756575E+03  0.00000000000E+00 0.  1.
         25    2    1    2    0    0 -0.58834480025E+02 -0.23983955379E+02 -0.92458315366E+02  0.16802732605E+03  0.12509163068E+03 0.  0.
          5    1    3    3  502    0 -0.95886717811E+02 -0.26967241229E+01 -0.52786238044E+02  0.10956913023E+03  0.41800000000E+01 0.  1.
         -5    1    3    3    0  502  0.37052237785E+02 -0.21287231256E+02 -0.39672077322E+02  0.58458195820E+02  0.41800000000E+01 0.  1.
        -11    1    1    2    0    0  0.39797828685E+02  0.58840329495E+02  0.38831456218E+02  0.80956368095E+02  0.00000000000E+00 0.  1.
         11    1    1    2    0    0  0.19036651340E+02 -0.34856374115E+02  0.52579612542E+01  0.40062539451E+02  0.00000000000E+00 0. -1.
</event>
<event>
 7    1  0.2686828E-009  0.1707732E+03  0.7561462E-02  0.1177044E+00
          2   -1    0    0  501    0  0.00000000000E+00  0.00000000000E+00  0.84777384379E+03  0.84777384379E+03  0.00000000000E+00 0.  1.
         -2   -1    0    0    0  501 -0.00000000000E+00 -0.00000000000E+00 -0.42255814917E+02  0.42255814917E+02  0.00000000000E+00 0. -1.
         25    2    1    2    0    0  0.65621585359E+01 -0.13793762868E+03  0.26029624590E+03  0.32011209704E+03  0.12509103769E+03 0.  0.
          5    1    3    3  502    0  0.52240317086E+02 -0.11168469991E+03  0.22486312825E+03  0.25648279040E+03  0.41800000000E+01 0. -1.
         -5    1    3    3    0  502 -0.45678158550E+02 -0.26252928763E+02  0.35433117650E+02  0.63629306641E+02  0.41800000000E+01 0. -1.
        -11    1    1    2    0    0 -0.47914538639E+02  0.57214378039E+02  0.27086385180E+03  0.28095642772E+03  0.00000000000E+00 0.  1.
         11    1    1    2    0    0  0.41352380103E+02  0.80723250636E+02  0.27435793117E+03  0.28896113394E+03  0.00000000000E+00 0. -1.
</event>
<event>
 7    1  0.2686828E-009  0.1185183E+03  0.7561462E-02  0.1245562E+00
         -3   -1    0    0    0  501 -0.00000000000E+00  0.00000000000E+00  0.14326794571E+03  0.14326794571E+03  0.00000000000E+00 0.  1.
          3   -1    0    0  501    0  0.00000000000E+00 -0.00000000000E+00 -0.13939958332E+03  0.13939958332E+03  0.00000000000E+00 0. -1.
         25    2    1    2    0    0  0.75683384195E+02  0.38296847942E+02 -0.29511642056E+02  0.15399721544E+03  0.12509828992E+03 0.  0.
          5    1    3    3  502    0 -0.77676350438E+01 -0.12636065631E+02  0.34005774217E+02  0.37334587032E+02  0.41800000000E+01 0.  1.
         -5    1    3    3    0  502  0.83451019239E+02  0.50932913573E+02 -0.63517416272E+02  0.11666262841E+03  0.41800000000E+01 0.  1.
        -11    1    1    2    0    0 -0.41701337134E+02  0.27336004686E+02  0.19097758722E+02  0.53394597659E+02  0.00000000000E+00 0.  1.
         11    1    1    2    0    0 -0.33982047061E+02 -0.65632852628E+02  0.14282245721E+02  0.75275715934E+02  0.00000000000E+00 0. -1.
</event>
<event>
 7    1  0.2686828E-009  0.1206677E+03  0.7561462E-02  0.1242000E+00
         -1   -1    0    0    0  501 -0.00000000000E+00  0.00000000000E+00  0.30814087333E+02  0.30814087333E+02  0.00000000000E+00 0.  1.
          1   -1    0    0  501    0  0.00000000000E+00 -0.00000000000E+00 -0.59485601501E+03  0.59485601501E+03  0.00000000000E+00 0. -1.
         25    2    1    2    0    0 -0.23812719103E+02  0.60555969822E+02 -0.20114360647E+03  0.24564306220E+03  0.12509073711E+03 0.  0.
          5    1    3    3  502    0  0.40056033342E+02  0.50591130287E+02 -0.14920697941E+03  0.16261655320E+03  0.41800000000E+01 0.  1.
         -5    1    3    3    0  502 -0.63868752445E+02  0.99648395343E+01 -0.51936627063E+02  0.83026508999E+02  0.41800000000E+01 0.  1.
        -11    1    1    2    0    0  0.58938577817E+02 -0.36604607393E+02 -0.24772770277E+03  0.25725992295E+03  0.00000000000E+00 0.  1.
         11    1    1    2    0    0 -0.35125858714E+02 -0.23951362429E+02 -0.11517061843E+03  0.12276711719E+03  0.00000000000E+00 0. -1.
</event>
<event>
 7    1  0.2686828E-009  0.1182834E+03  0.7561462E-02  0.1245956E+00
          1   -1    0    0  501    0  0.00000000000E+00  0.00000000000E+00  0.97115147692E+02  0.97115147692E+02  0.00000000000E+00 0. -1.
         -1   -1    0    0    0  501 -0.00000000000E+00 -0.00000000000E+00 -0.30324447273E+03  0.30324447273E+03  0.00000000000E+00 0.  1.
         25    2    1    2    0    0 -0.18484728519E+02 -0.56216577603E+02 -0.24813743411E+03  0.28411338826E+03  0.12508494073E+03 0.  0.
          5    1    3    3  502    0  0.51768368064E+02 -0.32821503452E+02 -0.14107268251E+03  0.15387068977E+03  0.41800000000E+01 0.  1.
         -5    1    3    3    0  502 -0.70253096583E+02 -0.23395074152E+02 -0.10706475160E+03  0.13024269849E+03  0.41800000000E+01 0.  1.
        -11    1    1    2    0    0  0.45925436597E+02  0.96718297221E+01 -0.13756288947E+01  0.46952980434E+02  0.00000000000E+00 0.  1.
         11    1    1    2    0    0 -0.27440708078E+02  0.46544747881E+02  0.43383737966E+02  0.69293251728E+02  0.00000000000E+00 0. -1.
</event>
<event>
 7    1  0.2686828E-009  0.1095088E+03  0.7561462E-02  0.1261482E+00
         -1   -1    0    0    0  501 -0.00000000000E+00  0.00000000000E+00  0.26996247269E+03  0.26996247269E+03  0.00000000000E+00 0.  1.
          1   -1    0    0  501    0  0.00000000000E+00 -0.00000000000E+00 -0.92761624035E+02  0.92761624035E+02  0.00000000000E+00 0. -1.
         25    2    1    2    0    0 -0.73325894501E+02  0.30941159074E+02  0.18941913290E+03  0.24054452593E+03  0.12509204177E+03 0.  0.
          5    1    3    3  502    0  0.30937267812E+02  0.11590009505E+02  0.15333928370E+02  0.36661214099E+02  0.41800000000E+01 0.  1.
         -5    1    3    3    0  502 -0.10426316231E+03  0.19351149569E+02  0.17408520453E+03  0.20388331183E+03  0.41800000000E+01 0.  1.
        -11    1    1    2    0    0  0.41629923367E+02 -0.17111598847E+02  0.39554133218E+02  0.59919836359E+02  0.00000000000E+00 0.  1.
         11    1    1    2    0    0  0.31695971134E+02 -0.13829560227E+02 -0.51772417465E+02  0.62259734439E+02  0.00000000000E+00 0. -1.
</event>
<event>
 7    1  0.2686828E-009  0.1047216E+03  0.7561462E-02  0.1270669E+00
         -1   -1    0    0    0  501 -0.00000000000E+00  0.00000000000E+00  0.55993793079E+02  0.55993793079E+02  0.00000000000E+00 0.  1.
          1   -1    0    0  501    0  0.00000000000E+00 -0.00000000000E+00 -0.24981195369E+03  0.24981195369E+03  0.00000000000E+00 0. -1.
         25    2    1    2    0    0  0.25991683703E+02 -0.29789273964E+02 -0.14281000492E+03  0.19391894283E+03  0.12508753102E+03 0.  0.
          5    1    3    3  502    0  0.61093855639E+02 -0.39914055927E+02 -0.13887514773E+03  0.15693747199E+03  0.41800000000E+01 0. -1.
         -5    1    3    3    0  502 -0.35102171935E+02  0.10124781963E+02 -0.39348571926E+01  0.36981470840E+02  0.41800000000E+01 0. -1.
        -11    1    1    2    0    0 -0.17686683878E+02  0.62951543022E+02 -0.32824967761E+02  0.73165525106E+02  0.00000000000E+00 0.  1.
         11    1    1    2    0    0 -0.83049998255E+01 -0.33162269058E+02 -0.18183187923E+02  0.38721278830E+02  0.00000000000E+00 0. -1.
</event>
<event>
 7    1  0.2686828E-009  0.1742820E+03  0.7561462E-02  0.1173455E+00
          1   -1    0    0  501    0  0.00000000000E+00  0.00000000000E+00  0.24708360160E+03  0.24708360160E+03  0.00000000000E+00 0. -1.
         -1   -1    0    0    0  501 -0.00000000000E+00 -0.00000000000E+00 -0.14890734354E+03  0.14890734354E+03  0.00000000000E+00 0.  1.
         25    2    1    2    0    0  0.10869338342E+03 -0.10050788655E+03 -0.19179411447E+01  0.19381999817E+03  0.12508567598E+03 0.  0.
          5    1    3    3  502    0  0.55755845333E+02  0.19513191306E+02  0.16040115281E+02  0.61353374985E+02  0.41800000000E+01 0. -1.
         -5    1    3    3    0  502  0.52937538083E+02 -0.12002107786E+03 -0.17958056426E+02  0.13246662319E+03  0.41800000000E+01 0. -1.
        -11    1    1    2    0    0 -0.11794208042E+02  0.44806476311E+02  0.74143349695E+02  0.87429743033E+02  0.00000000000E+00 0. -1.
         11    1    1    2    0    0 -0.96899175375E+02  0.55701410239E+02  0.25950849510E+02  0.11474120394E+03  0.00000000000E+00 0.  1.
</event>
<event>
 7    1  0.2686828E-009  0.1111703E+03  0.7561462E-02  0.1258418E+00
         -4   -1    0    0    0  501 -0.00000000000E+00  0.00000000000E+00  0.10437332364E+04  0.10437332364E+04  0.00000000000E+00 0.  1.
          4   -1    0    0  501    0  0.00000000000E+00 -0.00000000000E+00 -0.16113138677E+02  0.16113138677E+02  0.00000000000E+00 0. -1.
         25    2    1    2    0    0 -0.24652821278E+02  0.62400466634E+02  0.58530888435E+03  0.60227472895E+03  0.12508708646E+03 0.  0.
          5    1    3    3  502    0  0.29990151345E+02  0.55377914234E+01  0.39544943388E+03  0.39664569010E+03  0.41800000000E+01 0.  1.
         -5    1    3    3    0  502 -0.54642972623E+02  0.56862675210E+02  0.18985945046E+03  0.20562903885E+03  0.41800000000E+01 0.  1.
        -11    1    1    2    0    0  0.24739429752E+02  0.18994680348E+02  0.18748372753E+03  0.19006047815E+03  0.00000000000E+00 0.  1.
         11    1    1    2    0    0 -0.86608474292E-01 -0.81395146981E+02  0.25482748589E+03  0.26751116803E+03  0.00000000000E+00 0. -1.
</event>
<event>
 7    1  0.2686828E-009  0.9566375E+02  0.7561462E-02  0.1289688E+00
         -1   -1    0    0    0  501 -0.00000000000E+00  0.00000000000E+00  0.25169333787E+03  0.25169333787E+03  0.00000000000E+00 0.  1.
          1   -1    0    0  501    0  0.00000000000E+00 -0.00000000000E+00 -0.10226995309E+03  0.10226995309E+03  0.00000000000E+00 0. -1.
         25    2    1    2    0    0 -0.27856542793E+02 -0.65297680146E+02  0.18428269324E+03  0.23376788795E+03  0.12509012911E+03 0.  0.
          5    1    3    3  502    0 -0.36059536112E+02 -0.12790810797E+02  0.17558647159E+03  0.17975532368E+03  0.41800000000E+01 0.  1.
         -5    1    3    3    0  502  0.82029933183E+01 -0.52506869349E+02  0.86962216508E+01  0.54012564272E+02  0.41800000000E+01 0.  1.
        -11    1    1    2    0    0  0.49002468113E+02  0.60485806819E+02 -0.51085765194E+02  0.93110311530E+02  0.00000000000E+00 0. -1.
         11    1    1    2    0    0 -0.21145925320E+02  0.48118733275E+01  0.16226456734E+02  0.27085091484E+02  0.00000000000E+00 0.  1.
</event>
<event>
 7    1  0.2686828E-009  0.1120662E+03  0.7561462E-02  0.1256791E+00
         -2   -1    0    0    0  501 -0.00000000000E+00  0.00000000000E+00  0.18967225539E+03  0.18967225539E+03  0.00000000000E+00 0.  1.
          2   -1    0    0  501    0  0.00000000000E+00 -0.00000000000E+00 -0.83150564189E+02  0.83150564189E+02  0.00000000000E+00 0. -1.
         25    2    1    2    0    0 -0.45013148333E+01 -0.48094656345E+02  0.10218701458E+03  0.16859234970E+03  0.12509131314E+03 0.  0.
          5    1    3    3  502    0  0.35918582384E+02 -0.68482763667E+02  0.29527595438E+02  0.82881751745E+02  0.41800000000E+01 0. -1.
         -5    1    3    3    0  502 -0.40419897217E+02  0.20388107322E+02  0.72659419142E+02  0.85710597952E+02  0.41800000000E+01 0. -1.
        -11    1    1    2    0    0 -0.39025188109E+02  0.41902692270E+02  0.14579767886E+02  0.59087820725E+02  0.00000000000E+00 0.  1.
         11    1    1    2    0    0  0.43526502942E+02  0.61919640753E+01 -0.10245091270E+02  0.45142649153E+02  0.00000000000E+00 0. -1.
</event>
<event>
 7    1  0.2686828E-009  0.2418587E+03  0.7561462E-02  0.1118561E+00
         -1   -1    0    0    0  501 -0.00000000000E+00  0.00000000000E+00  0.17174866105E+03  0.17174866105E+03  0.00000000000E+00 0.  1.
          1   -1    0    0  501    0  0.00000000000E+00 -0.00000000000E+00 -0.38019952194E+03  0.38019952194E+03  0.00000000000E+00 0. -1.
         25    2    1    2    0    0  0.21808987027E+03 -0.65272784839E+02 -0.63201900821E+02  0.26733009917E+03  0.12508866336E+03 0.  0.
          5    1    3    3  502    0  0.10870035428E+03  0.11733980552E+02 -0.75487380773E+02  0.13292580779E+03  0.41800000000E+01 0.  1.
         -5    1    3    3    0  502  0.10938951600E+03 -0.77006765391E+02  0.12285479952E+02  0.13440429139E+03  0.41800000000E+01 0.  1.
        -11    1    1    2    0    0 -0.16448602683E+03  0.82690220436E+02 -0.87201390503E+02  0.20370912617E+03  0.00000000000E+00 0.  1.
         11    1    1    2    0    0 -0.53603843444E+02 -0.17417435597E+02 -0.58047569565E+02  0.80908957645E+02  0.00000000000E+00 0. -1.
</event>
<event>
 7    1  0.2686828E-009  0.1438609E+03  0.7561462E-02  0.1208226E+00
         -1   -1    0    0    0  501 -0.00000000000E+00  0.00000000000E+00  0.63934369921E+02  0.63934369921E+02  0.00000000000E+00 0.  1.
          1   -1    0    0  501    0  0.00000000000E+00 -0.00000000000E+00 -0.35438001479E+03  0.35438001479E+03  0.00000000000E+00 0. -1.
         25    2    1    2    0    0 -0.56091006632E+02 -0.84465843901E+02 -0.18996896998E+03  0.24903223766E+03  0.12509262979E+03 0.  0.
          5    1    3    3  502    0 -0.15570329095E+02 -0.10811444577E+03 -0.10333791353E+03  0.15042395190E+03  0.41800000000E+01 0. -1.
         -5    1    3    3    0  502 -0.40520677537E+02  0.23648601871E+02 -0.86631056448E+02  0.98608285756E+02  0.41800000000E+01 0. -1.
        -11    1    1    2    0    0 -0.22152080173E+02  0.21596701609E+02 -0.61494938395E+01  0.31542803472E+02  0.00000000000E+00 0.  1.
         11    1    1    2    0    0  0.78243086805E+02  0.62869142291E+02 -0.94327181053E+02  0.13773934358E+03  0.00000000000E+00 0. -1.
</event>
<event>
 7    1  0.2686828E-009  0.1675103E+03  0.7561462E-02  0.1180469E+00
          2   -1    0    0  501    0  0.00000000000E+00  0.00000000000E+00  0.10046528528E+04  0.10046528528E+04  0.00000000000E+00 0. -1.
         -2   -1    0    0    0  501 -0.00000000000E+00 -0.00000000000E+00 -0.38145219773E+02  0.38145219773E+02  0.00000000000E+00 0.  1.
         25    2    1    2    0    0 -0.14549858594E+03 -0.58386417986E+02  0.62365555194E+03  0.65511298874E+03  0.12509183924E+03 0.  0.
          5    1    3    3  502    0 -0.10277830912E+03 -0.63203948859E+02  0.23628443582E+03  0.26534115208E+03  0.41800000000E+01 0.  1.
         -5    1    3    3    0  502 -0.42720276820E+02  0.48175308732E+01  0.38737111611E+03  0.38977183666E+03  0.41800000000E+01 0.  1.
        -11    1    1    2    0    0  0.10979396078E+03  0.73711656511E+02  0.30916448079E+03  0.33626001593E+03  0.00000000000E+00 0.  1.
         11    1    1    2    0    0  0.35704625152E+02 -0.15325238526E+02  0.33687600262E+02  0.51425067862E+02  0.00000000000E+00 0. -1.
</event>
<event>
 7    1  0.2686828E-009  0.1421266E+03  0.7561462E-02  0.1210496E+00
         -2   -1    0    0    0  501 -0.00000000000E+00  0.00000000000E+00  0.92514637973E+02  0.92514637973E+02  0.00000000000E+00 0.  1.
          2   -1    0    0  501    0  0.00000000000E+00 -0.00000000000E+00 -0.34632754224E+03  0.34632754224E+03  0.00000000000E+00 0. -1.
         25    2    1    2    0    0 -0.11034754981E+03  0.45283702890E+02 -0.37522751751E+02  0.17687533372E+03  0.12509888602E+03 0.  0.
          5    1    3    3  502    0 -0.10905960512E+03  0.67822202392E+02  0.49529341319E+01  0.12859180597E+03  0.41800000000E+01 0. -1.
         -5    1    3    3    0  502 -0.12879446959E+01 -0.22538499503E+02 -0.42475685883E+02  0.48283527756E+02  0.41800000000E+01 0. -1.
        -11    1    1    2    0    0  0.44613436204E+02 -0.49858642359E+02 -0.16630981833E+03  0.17926293142E+03  0.00000000000E+00 0. -1.
         11    1    1    2    0    0  0.65734113608E+02  0.45749394692E+01 -0.49980334190E+02  0.82703915074E+02  0.00000000000E+00 0.  1.
</event>
<event>
 7    1  0.2686828E-009  0.1396685E+03  0.7561462E-02  0.1213776E+00
          2   -1    0    0  501    0  0.00000000000E+00  0.00000000000E+00  0.29066536917E+03  0.29066536917E+03  0.00000000000E+00 0. -1.
         -2   -1    0    0    0  501 -0.00000000000E+00 -0.00000000000E+00 -0.85592961094E+02  0.85592961094E+02  0.00000000000E+00 0.  1.
         25    2    1    2    0    0  0.77022705017E+02 -0.80752857908E+02  0.12561769150E+03  0.20947700376E+03  0.12508912638E+03 0.  0.
          5    1    3    3  502    0  0.97973536639E+02 -0.99070371378E+02  0.10711541387E+03  0.17579799958E+03  0.41800000000E+01 0. -1.
         -5    1    3    3    0  502 -0.20950831622E+02  0.18317513470E+02  0.18502277631E+02  0.33679004185E+02  0.41800000000E+01 0. -1.
        -11    1    1    2    0    0 -0.15538625885E+02  0.12547547221E+02  0.71924254039E+02  0.74645751083E+02  0.00000000000E+00 0. -1.
         11    1    1    2    0    0 -0.61484079132E+02  0.68205310688E+02  0.75304625396E+01  0.92135575424E+02  0.00000000000E+00 0.  1.
</event>
<event>
 7    1  0.2686828E-009  0.2191336E+03  0.7561462E-02  0.1134531E+00
         -2   -1    0    0    0  501 -0.00000000000E+00  0.00000000000E+00  0.73117033738E+02  0.73117033738E+02  0.00000000000E+00 0.  1.
          2   -1    0    0  501    0  0.00000000000E+00 -0.00000000000E+00 -0.81046043497E+03  0.81046043497E+03  0.00000000000E+00 0. -1.
         25    2    1    2    0    0 -0.19260649431E+03  0.91038011075E+02 -0.45893034769E+03  0.52120015506E+03  0.12508939400E+03 0.  0.
          5    1    3    3  502    0 -0.15804268482E+02  0.29772323589E+02 -0.19326087783E+03  0.19622284641E+03  0.41800000000E+01 0.  1.
         -5    1    3    3    0  502 -0.17680222583E+03  0.61265687486E+02 -0.26566946986E+03  0.32497730865E+03  0.41800000000E+01 0.  1.
        -11    1    1    2    0    0  0.15246994663E+03 -0.51852563045E+02 -0.14134599848E+03  0.21427660677E+03  0.00000000000E+00 0.  1.
         11    1    1    2    0    0  0.40136547676E+02 -0.39185448030E+02 -0.13706705506E+03  0.14810070688E+03  0.00000000000E+00 0. -1.
</event>
<event>
 7    1  0.2686828E-009  0.1429979E+03  0.7561462E-02  0.1209351E+00
         -2   -1    0    0    0  501 -0.00000000000E+00  0.00000000000E+00  0.59785144432E+02  0.59785144432E+02  0.00000000000E+00 0. -1.
          2   -1    0    0  501    0  0.00000000000E+00 -0.00000000000E+00 -0.55494486061E+03  0.55494486061E+03  0.00000000000E+00 0.  1.
         25    2    1    2    0    0  0.11686955533E+03  0.39581641030E+02 -0.39698985962E+03  0.43413212391E+03  0.12507818792E+03 0.  0.
          5    1    3    3  502    0 -0.19945940425E+02  0.22860571822E+01 -0.11829090309E+02  0.23674171040E+02  0.41800000000E+01 0.  1.
         -5    1    3    3    0  502  0.13681549575E+03  0.37295583848E+02 -0.38516076931E+03  0.41045795287E+03  0.41800000000E+01 0.  1.
        -11    1    1    2    0    0 -0.80361279614E+02 -0.23506087585E+02 -0.10633946034E+02  0.84401138754E+02  0.00000000000E+00 0. -1.
         11    1    1    2    0    0 -0.36508275714E+02 -0.16075553446E+02 -0.87535910518E+02  0.96196742379E+02  0.00000000000E+00 0.  1.
</event>
<event>
 7    1  0.2686828E-009  0.1168522E+03  0.7561462E-02  0.1248382E+00
         -3   -1    0    0    0  501 -0.00000000000E+00  0.00000000000E+00  0.20153172714E+03  0.20153172714E+03  0.00000000000E+00 0.  1.
          3   -1    0    0  501    0  0.00000000000E+00 -0.00000000000E+00 -0.82959199357E+02  0.82959199357E+02  0.00000000000E+00 0. -1.
         25    2    1    2    0    0  0.10623824250E+01 -0.63212708656E+02  0.33690815511E+02  0.14414921683E+03  0.12508777106E+03 0.  0.
          5    1    3    3  502    0  0.44673161341E+02  0.47886079090E+01  0.43485160139E+02  0.62666208296E+02  0.41800000000E+01 0. -1.
         -5    1    3    3    0  502 -0.43610778916E+02 -0.68001316565E+02 -0.97943446283E+01  0.81483008529E+02  0.41800000000E+01 0. -1.
        -11    1    1    2    0    0  0.42503910121E+02  0.39805661506E+02  0.26937956628E+02  0.64161722006E+02  0.00000000000E+00 0. -1.
         11    1    1    2    0    0 -0.43566292546E+02  0.23407047151E+02  0.57943755644E+02  0.76179987666E+02  0.00000000000E+00 0.  1.
</event>
<event>
 7    1  0.2686828E-009  0.1142688E+03  0.7561462E-02  0.1252863E+00
          2   -1    0    0  501    0  0.00000000000E+00  0.00000000000E+00  0.23133613512E+03  0.23133613512E+03  0.00000000000E+00 0. -1.
         -2   -1    0    0    0  501 -0.00000000000E+00 -0.00000000000E+00 -0.83058318370E+02  0.83058318370E+02  0.00000000000E+00 0.  1.
         25    2    1    2    0    0 -0.14706141207E+02 -0.75848084124E+02  0.40132232002E+02  0.15240886085E+03  0.12509461365E+03 0.  0.
          5    1    3    3  502    0  0.34734692806E+02 -0.90655544131E+01  0.57025934290E+02  0.67513796684E+02  0.41800000000E+01 0.  1.
         -5    1    3    3    0  502 -0.49440834013E+02 -0.66782529711E+02 -0.16893702288E+02  0.84895064164E+02  0.41800000000E+01 0.  1.
        -11    1    1    2    0    0 -0.19341967656E+02 -0.62455203054E+01  0.54521478363E+02  0.58186852807E+02  0.00000000000E+00 0. -1.
         11    1    1    2    0    0  0.34048108863E+02  0.82093604429E+02  0.53624106381E+02  0.10379873983E+03  0.00000000000E+00 0.  1.
</event>
<event>
 7    1  0.2686828E-009  0.1074133E+03  0.7561462E-02  0.1265436E+00
          1   -1    0    0  501    0  0.00000000000E+00  0.00000000000E+00  0.62923906750E+03  0.62923906750E+03  0.00000000000E+00 0. -1.
         -1   -1    0    0    0  501 -0.00000000000E+00 -0.00000000000E+00 -0.20029089204E+02  0.20029089204E+02  0.00000000000E+00 0.  1.
         25    2    1    2    0    0  0.13428712553E+02 -0.16474660665E+02  0.33473850875E+03  0.35798542305E+03  0.12510775001E+03 0.  0.
          5    1    3    3  502    0 -0.55950640739E+02 -0.47768858486E+01  0.15603335608E+03  0.16588301133E+03  0.41800000000E+01 0.  1.
         -5    1    3    3    0  502  0.69379353292E+02 -0.11697774817E+02  0.17870515267E+03  0.19210241172E+03  0.41800000000E+01 0.  1.
        -11    1    1    2    0    0 -0.33676619089E+02  0.43029197078E+02  0.10306214336E+03  0.11665089742E+03  0.00000000000E+00 0.  1.
         11    1    1    2    0    0  0.20247906536E+02 -0.26554536412E+02  0.17140932619E+03  0.17463183623E+03  0.00000000000E+00 0. -1.
</event>
<event>
 7    1  0.2686828E-009  0.1513291E+03  0.7561462E-02  0.1198849E+00
         -1   -1    0    0    0  501 -0.00000000000E+00  0.00000000000E+00  0.20768542095E+02  0.20768542095E+02  0.00000000000E+00 0.  1.
          1   -1    0    0  501    0  0.00000000000E+00 -0.00000000000E+00 -0.12021185675E+04  0.12021185675E+04  0.00000000000E+00 0. -1.
         25    2    1    2    0    0  0.71094476974E+02  0.74847104899E+02 -0.45554294197E+03  0.48355160590E+03  0.12508505035E+03 0.  0.
          5    1    3    3  502    0 -0.19497917451E+02  0.68171580409E+02 -0.21231800645E+03  0.22388376767E+03  0.41800000000E+01 0.  1.
         -5    1    3    3    0  502  0.90592394425E+02  0.66755244899E+01 -0.24322493552E+03  0.25966783824E+03  0.41800000000E+01 0.  1.
        -11    1    1    2    0    0 -0.92722129449E+02 -0.43020740977E+02 -0.51520994065E+03  0.52525180665E+03  0.00000000000E+00 0.  1.
         11    1    1    2    0    0  0.21627652475E+02 -0.31826363922E+02 -0.21059714275E+03  0.21408369701E+03  0.00000000000E+00 0. -1.
</event>
<event>
 7    1  0.2686828E-009  0.1166420E+03  0.7561462E-02  0.1248742E+00
          2   -1    0    0  501    0  0.00000000000E+00  0.00000000000E+00  0.13992282408E+04  0.13992282408E+04  0.00000000000E+00 0.  1.
         -2   -1    0    0    0  501 -0.00000000000E+00 -0.00000000000E+00 -0.14158434572E+02  0.14158434572E+02  0.00000000000E+00 0. -1.
         25    2    1    2    0    0  0.62052449030E+01  0.69563704426E+02  0.10370589420E+04  0.10469079114E+04  0.12508921471E+03 0.  0.
          5    1    3    3  502    0  0.25033118822E+01  0.10583999746E+03  0.72586908611E+03  0.73356102282E+03  0.41800000000E+01 0. -1.
         -5    1    3    3    0  502  0.37019330207E+01 -0.36276293036E+02  0.31118985594E+03  0.31334688858E+03  0.41800000000E+01 0. -1.
        -11    1    1    2    0    0 -0.26009370382E+02 -0.65412724219E+02  0.33524047731E+03  0.34255144061E+03  0.00000000000E+00 0.  1.
         11    1    1    2    0    0  0.19804125479E+02 -0.41509802069E+01  0.12770386887E+02  0.23927323375E+02  0.00000000000E+00 0. -1.
</event>
<event>
 7    1  0.2686828E-009  0.8472831E+02  0.7561462E-02  0.1316145E+00
         -2   -1    0    0    0  501 -0.00000000000E+00  0.00000000000E+00  0.42147502993E+03  0.42147502993E+03  0.00000000000E+00 0.  1.
          2   -1    0    0  501    0  0.00000000000E+00 -0.00000000000E+00 -0.43736011252E+02  0.43736011252E+02  0.00000000000E+00 0. -1.
         25    2    1    2    0    0 -0.71128289574E+01 -0.59617185998E+02  0.30736463338E+03  0.33723165851E+03  0.12508945777E+03 0.  0.
          5    1    3    3  502    0  0.50160269428E+01 -0.53547509885E+02  0.31603142508E+03  0.32060229316E+03  0.41800000000E+01 0.  1.
         -5    1    3    3    0  502 -0.12128855900E+02 -0.60696761138E+01 -0.86667916996E+01  0.16629365350E+02  0.41800000000E+01 0.  1.
        -11    1    1    2    0    0  0.21994062650E+02  0.76040644957E+02  0.35719076641E+02  0.86843370003E+02  0.00000000000E+00 0. -1.
         11    1    1    2    0    0 -0.14881233693E+02 -0.16423458959E+02  0.34655308659E+02  0.41136012673E+02  0.00000000000E+00 0.  1.
</event>
<event>
 7    1  0.2686828E-009  0.8752450E+02  0.7561462E-02  0.1308960E+00
         -3   -1    0    0    0  501 -0.00000000000E+00  0.00000000000E+00  0.53110146966E+03  0.53110146966E+03  0.00000000000E+00 0.  1.
          3   -1    0    0  501    0  0.00000000000E+00 -0.00000000000E+00 -0.22118117695E+02  0.22118117695E+02  0.00000000000E+00 0. -1.
         25    2    1    2    0    0 -0.35299459021E+02 -0.18387921486E+01  0.28728923785E+03  0.31532265748E+03  0.12507533399E+03 0.  0.
          5    1    3    3  502    0  0.20475620994E+02 -0.30220542282E+02  0.22230247011E+02  0.42944016033E+02  0.41800000000E+01 0.  1.
         -5    1    3    3    0  502 -0.55775080016E+02  0.28381750133E+02  0.26505899084E+03  0.27237864144E+03  0.41800000000E+01 0.  1.
        -11    1    1    2    0    0  0.22441527337E+02  0.34119862643E+02  0.60454435372E+02  0.72955643594E+02  0.00000000000E+00 0. -1.
         11    1    1    2    0    0  0.12857931685E+02 -0.32281070494E+02  0.16123967874E+03  0.16494128628E+03  0.00000000000E+00 0.  1.
</event>
<event>
 7    1  0.2686828E-009  0.1498524E+03  0.7561462E-02  0.1200655E+00
         -2   -1    0    0    0  501 -0.00000000000E+00  0.00000000000E+00  0.59723288991E+03  0.59723288991E+03  0.00000000000E+00 0.  1.
          2   -1    0    0  501    0  0.00000000000E+00 -0.00000000000E+00 -0.51439094898E+02  0.51439094898E+02  0.00000000000E+00 0. -1.
         25    2    1    2    0    0 -0.13234339785E+03 -0.49945842740E+01  0.37888633389E+03  0.42040754799E+03  0.12509169264E+03 0.  0.
          5    1    3    3  502    0 -0.59806310135E+00 -0.19431176784E+02  0.18169217672E+03  0.18277704394E+03  0.41800000000E+01 0.  1.
         -5    1    3    3    0  502 -0.13174533474E+03  0.14436592510E+02  0.19719415717E+03  0.23763050405E+03  0.41800000000E+01 0.  1.
        -11    1    1    2    0    0  0.20914302467E+01 -0.15260153646E+02 -0.22584034360E+00  0.15404459538E+02  0.00000000000E+00 0. -1.
         11    1    1    2    0    0  0.13025196760E+03  0.20254737920E+02  0.16713330147E+03  0.21285997729E+03  0.00000000000E+00 0.  1.
</event>
<event>
 7    1  0.2686828E-009  0.1556280E+03  0.7561462E-02  0.1193723E+00
         -1   -1    0    0    0  501 -0.00000000000E+00  0.00000000000E+00  0.10637954427E+03  0.10637954427E+03  0.00000000000E+00 0.  1.
          1   -1    0    0  501    0  0.00000000000E+00 -0.00000000000E+00 -0.31216778940E+03  0.31216778940E+03  0.00000000000E+00 0. -1.
         25    2    1    2    0    0 -0.21266832922E+02  0.11498812423E+03 -0.20363954909E+03  0.26606446962E+03  0.12508672649E+03 0.  0.
          5    1    3    3  502    0 -0.65224784016E+02  0.74763177658E+02 -0.17165282922E+03  0.19830776929E+03  0.41800000000E+01 0. -1.
         -5    1    3    3    0  502  0.43957951094E+02  0.40224946574E+02 -0.31986719870E+02  0.67756700328E+02  0.41800000000E+01 0. -1.
        -11    1    1    2    0    0 -0.46575103260E+01 -0.12451443916E+03 -0.51037048397E+01  0.12470599731E+03  0.00000000000E+00 0.  1.
         11    1    1    2    0    0  0.25924343248E+02  0.95263149300E+01  0.29550087989E+01  0.27776866742E+02  0.00000000000E+00 0. -1.
</event>
<event>
 7    1  0.2686828E-009  0.9426034E+02  0.7561462E-02  0.1292851E+00
          2   -1    0    0  501    0  0.00000000000E+00  0.00000000000E+00  0.24711545714E+03  0.24711545714E+03  0.00000000000E+00 0. -1.
         -2   -1    0    0    0  501 -0.00000000000E+00 -0.00000000000E+00 -0.80155280994E+02  0.80155280994E+02  0.00000000000E+00 0.  1.
         25    2    1    2    0    0 -0.10954067002E+02 -0.18110025142E-01 -0.12803234980E+02  0.12621459705E+03  0.12508481032E+03 0.  0.
          5    1    3    3  502    0 -0.40648045591E+02  0.42846958752E+02  0.22242087404E+02  0.63247990772E+02  0.41800000000E+01 0. -1.
         -5    1    3    3    0  502  0.29693978589E+02 -0.42865068777E+02 -0.35045322384E+02  0.62966606282E+02  0.41800000000E+01 0. -1.
        -11    1    1    2    0    0  0.28305557640E+00  0.37768864348E+02  0.36521610329E+02  0.52539463793E+02  0.00000000000E+00 0. -1.
         11    1    1    2    0    0  0.10671011426E+02 -0.37750754323E+02  0.14324180080E+03  0.14851667729E+03  0.00000000000E+00 0.  1.
</event>
<event>
 7    1  0.2686828E-009  0.1266915E+03  0.7561462E-02  0.1232449E+00
         -1   -1    0    0    0  501 -0.00000000000E+00  0.00000000000E+00  0.19101763268E+03  0.19101763268E+03  0.00000000000E+00 0.  1.
          1   -1    0    0  501    0  0.00000000000E+00 -0.00000000000E+00 -0.14238066083E+03  0.14238066083E+03  0.00000000000E+00 0. -1.
         25    2    1    2    0    0 -0.50032398510E+02  0.55115872312E+02 -0.74013502185E+02  0.16330027811E+03  0.12509189439E+03 0.  0.
          5    1    3    3  502    0 -0.29503436566E+02  0.95339267976E+02 -0.55893126553E+02  0.11446197090E+03  0.41800000000E+01 0.  1.
         -5    1    3    3    0  502 -0.20528961945E+02 -0.40223395664E+02 -0.18120375633E+02  0.48838307202E+02  0.41800000000E+01 0.  1.
        -11    1    1    2    0    0  0.62087015232E+01  0.20130120169E+02  0.17981435568E+01  0.21142446236E+02  0.00000000000E+00 0. -1.
         11    1    1    2    0    0  0.43823696987E+02 -0.75245992480E+02  0.12085233049E+03  0.14895556917E+03  0.00000000000E+00 0.  1.
</event>
<event>
 7    1  0.2686828E-009  0.8822943E+02  0.7561462E-02  0.1307197E+00
          1   -1    0    0  501    0  0.00000000000E+00  0.00000000000E+00  0.11994404217E+03  0.11994404217E+03  0.00000000000E+00 0. -1.
         -1   -1    0    0    0  501 -0.00000000000E+00 -0.00000000000E+00 -0.11287503669E+03  0.11287503669E+03  0.00000000000E+00 0.  1.
         25    2    1    2    0    0 -0.13488460874E+01 -0.23899756834E+02  0.40522141778E+02  0.13365172465E+03  0.12509085404E+03 0.  0.
          5    1    3    3  502    0  0.29913512441E+02 -0.59679660360E+02  0.51846617124E+02  0.84628743311E+02  0.41800000000E+01 0. -1.
         -5    1    3    3    0  502 -0.31262358528E+02  0.35779903526E+02 -0.11324475346E+02  0.49022981335E+02  0.41800000000E+01 0. -1.
        -11    1    1    2    0    0 -0.12854981410E+02 -0.15415357822E+02 -0.50254761675E+02  0.54114922848E+02  0.00000000000E+00 0.  1.
         11    1    1    2    0    0  0.14203827498E+02  0.39315114656E+02  0.16801625377E+02  0.45052431358E+02  0.00000000000E+00 0. -1.
</event>
<event>
 7    1  0.2686828E-009  0.9587201E+02  0.7561462E-02  0.1289224E+00
          2   -1    0    0  501    0  0.00000000000E+00  0.00000000000E+00  0.65973290887E+03  0.65973290887E+03  0.00000000000E+00 0. -1.
         -2   -1    0    0    0  501 -0.00000000000E+00 -0.00000000000E+00 -0.34360240166E+02  0.34360240166E+02  0.00000000000E+00 0.  1.
         25    2    1    2    0    0  0.16548762249E+02 -0.39822625573E+02  0.54914744929E+03  0.56486331994E+03  0.12509175077E+03 0.  0.
          5    1    3    3  502    0  0.46983405968E+02 -0.25415838563E+02  0.51103151350E+03  0.51383274076E+03  0.41800000000E+01 0. -1.
         -5    1    3    3    0  502 -0.30434643719E+02 -0.14406787010E+02  0.38115935795E+02  0.51030579184E+02  0.41800000000E+01 0. -1.
        -11    1    1    2    0    0  0.28664510461E+02  0.50233335205E+02  0.45400202969E+02  0.73527005620E+02  0.00000000000E+00 0. -1.
         11    1    1    2    0    0 -0.45213272710E+02 -0.10410709632E+02  0.30825016439E+02  0.55702823471E+02  0.00000000000E+00 0.  1.
</event>
<event>
 7    1  0.2686828E-009  0.1341592E+03  0.7561462E-02  0.1221412E+00
         -1   -1    0    0    0  501 -0.00000000000E+00  0.00000000000E+00  0.18056582637E+02  0.18056582637E+02  0.00000000000E+00 0.  1.
          1   -1    0    0  501    0  0.00000000000E+00 -0.00000000000E+00 -0.11736758595E+04  0.11736758595E+04  0.00000000000E+00 0. -1.
         25    2    1    2    0    0  0.92462846966E+02 -0.48987803128E+01 -0.74724256541E+03  0.76327760223E+03  0.12509144810E+03 0.  0.
          5    1    3    3  502    0  0.11210535284E+03 -0.36228249835E+02 -0.59355666339E+03  0.60515046168E+03  0.41800000000E+01 0. -1.
         -5    1    3    3    0  502 -0.19642505877E+02  0.31329469522E+02 -0.15368590202E+03  0.15812714055E+03  0.41800000000E+01 0. -1.
        -11    1    1    2    0    0 -0.84389712242E+02 -0.20265956014E+02 -0.37955321455E+03  0.38934942555E+03  0.00000000000E+00 0. -1.
         11    1    1    2    0    0 -0.80731347243E+01  0.25164736327E+02 -0.28823496945E+02  0.39105414393E+02  0.00000000000E+00 0.  1.
</event>
<event>
 7    1  0.2686828E-009  0.8898506E+02  0.7561462E-02  0.1305328E+00
         -1   -1    0    0    0  501 -0.00000000000E+00  0.00000000000E+00  0.70163011727E+02  0.70163011727E+02  0.00000000000E+00 0.  1.
          1   -1    0    0  501    0  0.00000000000E+00 -0.00000000000E+00 -0.26399045034E+03  0.26399045034E+03  0.00000000000E+00 0. -1.
         25    2    1    2    0    0  0.32073014294E+01 -0.42480210206E+02 -0.22008382532E+02  0.13396532371E+03  0.12508990373E+03 0.  0.
          5    1    3    3  502    0 -0.84727113100E+01  0.30539834491E+02  0.29699789294E+02  0.43635057142E+02  0.41800000000E+01 0. -1.
         -5    1    3    3    0  502  0.11680012739E+02 -0.73020044697E+02 -0.51708171826E+02  0.90330266571E+02  0.41800000000E+01 0. -1.
        -11    1    1    2    0    0  0.20205632615E+02  0.44057574178E+02 -0.16986034740E+03  0.17664052494E+03  0.00000000000E+00 0. -1.
         11    1    1    2    0    0 -0.23412934044E+02 -0.15773639720E+01 -0.19587086774E+01  0.23547613411E+02  0.00000000000E+00 0.  1.
</event>
<event>
 7    1  0.4935774E-009  0.1810455E+03  0.7561462E-02  0.1166795E+00
          1   -1    0    0  501    0  0.00000000000E+00  0.00000000000E+00  0.42438340276E+03  0.42438340276E+03  0.00000000000E+00 0. -1.
         -1   -1    0    0    0  501 -0.00000000000E+00 -0.00000000000E+00 -0.90202300885E+02  0.90202300885E+02  0.00000000000E+00 0.  1.
         25    2    1    2    0    0  0.72018215561E+02 -0.13989816117E+03  0.12210983567E+03  0.23519320517E+03  0.12508762097E+03 0.  0.
          5    1    3    3  502    0  0.87569441458E+02 -0.15520879596E+03  0.11371804625E+03  0.21144134852E+03  0.41800000000E+01 0.  1.
         -5    1    3    3    0  502 -0.15551225897E+02  0.15310634794E+02  0.83917894142E+01  0.23751856649E+02  0.41800000000E+01 0.  1.
        -11    1    1    2    0    0 -0.62472359736E+02  0.82803423601E+02  0.67743273734E+02  0.12388847334E+03  0.00000000000E+00 0.  1.
         11    1    1    2    0    0 -0.95458558253E+01  0.57094737565E+02  0.14432799248E+03  0.15550402513E+03  0.00000000000E+00 0. -1.
</event>
<event>
 7    1  0.2686828E-009  0.1499543E+03  0.7561462E-02  0.1200529E+00
         -2   -1    0    0    0  501 -0.00000000000E+00  0.00000000000E+00  0.26322978762E+02  0.26322978762E+02  0.00000000000E+00 0.  1.
          2   -1    0    0  501    0  0.00000000000E+00 -0.00000000000E+00 -0.11773892978E+04  0.11773892978E+04  0.00000000000E+00 0. -1.
         25    2    1    2    0    0 -0.44677975733E+02 -0.12983526866E+03 -0.72291425227E+03  0.74639423808E+03  0.12508406775E+03 0.  0.
          5    1    3    3  502    0 -0.16316512225E+02 -0.12881642175E+03 -0.36680441779E+03  0.38913089365E+03  0.41800000000E+01 0.  1.
         -5    1    3    3    0  502 -0.28361463508E+02 -0.10188469108E+01 -0.35610983448E+03  0.35726334443E+03  0.41800000000E+01 0.  1.
        -11    1    1    2    0    0  0.42055672988E+01  0.63246645037E+02 -0.30549603411E+03  0.31200264704E+03  0.00000000000E+00 0. -1.
         11    1    1    2    0    0  0.40472408434E+02  0.66588623621E+02 -0.12265603264E+03  0.14531539142E+03  0.00000000000E+00 0.  1.
</event>
<event>
 7    1  0.2686828E-009  0.1714685E+03  0.7561462E-02  0.1176325E+00
         -1   -1    0    0    0  501 -0.00000000000E+00  0.00000000000E+00  0.40126690316E+02  0.40126690316E+02  0.00000000000E+00 0.  1.
          1   -1    0    0  501    0  0.00000000000E+00 -0.00000000000E+00 -0.83943104218E+03  0.83943104218E+03  0.00000000000E+00 0. -1.
         25    2    1    2    0    0 -0.35263601636E+02  0.13799711744E+03 -0.51215910860E+03  0.54611508419E+03  0.12509199271E+03 0.  0.
          5    1    3    3  502    0  0.42283202195E+02  0.35454727858E+02 -0.22072184273E+03  0.22755331502E+03  0.41800000000E+01 0. -1.
         -5    1    3    3    0  502 -0.77546803831E+02  0.10254238959E+03 -0.29143726586E+03  0.31856176917E+03  0.41800000000E+01 0. -1.
        -11    1    1    2    0    0 -0.13089928700E+02 -0.89610726812E+02 -0.21854109546E+03  0.23656212502E+03  0.00000000000E+00 0. -1.
         11    1    1    2    0    0  0.48353530336E+02 -0.48386390632E+02 -0.68604147816E+02  0.96880523285E+02  0.00000000000E+00 0.  1.
</event>
<event>
 7    1  0.2686828E-009  0.1435359E+03  0.7561462E-02  0.1208649E+00
         -2   -1    0    0    0  501 -0.00000000000E+00  0.00000000000E+00  0.90780039008E+02  0.90780039008E+02  0.00000000000E+00 0.  1.
          2   -1    0    0  501    0  0.00000000000E+00 -0.00000000000E+00 -0.24665295494E+03  0.24665295494E+03  0.00000000000E+00 0. -1.
         25    2    1    2    0    0 -0.90379300249E+02 -0.55863526852E+02 -0.55899492504E+02  0.17339304408E+03  0.12510492767E+03 0.  0.
          5    1    3    3  502    0 -0.10593257025E+03 -0.29535166722E+01 -0.21356078101E+02  0.10818496741E+03  0.41800000000E+01 0.  1.
         -5    1    3    3    0  502  0.15553270003E+02 -0.52910010180E+02 -0.34543414402E+02  0.65208076674E+02  0.41800000000E+01 0.  1.
        -11    1    1    2    0    0  0.92593939306E+02  0.26568474233E+02 -0.56832542938E+02  0.11184569440E+03  0.00000000000E+00 0.  1.
         11    1    1    2    0    0 -0.22146390573E+01  0.29295052619E+02 -0.43140880492E+02  0.52194255466E+02  0.00000000000E+00 0. -1.
</event>
<event>
 7    1  0.2686828E-009  0.1133320E+03  0.7561462E-02  0.1254521E+00
          1   -1    0    0  501    0  0.00000000000E+00  0.00000000000E+00  0.26299575776E+03  0.26299575776E+03  0.00000000000E+00 0. -1.
         -1   -1    0    0    0  501 -0.00000000000E+00 -0.00000000000E+00 -0.77822329998E+02  0.77822329998E+02  0.00000000000E+00 0.  1.
         25    2    1    2    0    0 -0.19627018814E+02 -0.74626706026E+02  0.15826222213E+03  0.21598200086E+03  0.12508768374E+03 0.  0.
          5    1    3    3  502    0 -0.27743729021E+02 -0.10837960005E+03  0.11803518632E+03  0.16268260453E+03  0.41800000000E+01 0.  1.
         -5    1    3    3    0  502  0.81167102070E+01  0.33752894022E+02  0.40227035817E+02  0.53299396339E+02  0.41800000000E+01 0.  1.
        -11    1    1    2    0    0  0.21503288421E+02  0.43130098663E+02  0.61424210444E+02  0.78073878169E+02  0.00000000000E+00 0. -1.
         11    1    1    2    0    0 -0.18762696072E+01  0.31496607362E+02 -0.34513004818E+02  0.46762208722E+02  0.00000000000E+00 0.  1.
</event>
<event>
 7    1  0.2686828E-009  0.1538922E+03  0.7561462E-02  0.1195770E+00
          1   -1    0    0  501    0  0.00000000000E+00  0.00000000000E+00  0.23906279890E+03  0.23906279890E+03  0.00000000000E+00 0. -1.
         -1   -1    0    0    0  501 -0.00000000000E+00 -0.00000000000E+00 -0.12120606759E+03  0.12120606759E+03  0.00000000000E+00 0.  1.
         25    2    1    2    0    0  0.89077516755E+02 -0.74366045491E+02  0.11919680849E+03  0.20812450720E+03  0.12507125422E+03 0.  0.
          5    1    3    3  502    0 -0.23561098374E+02  0.96050113717E+01  0.37626370379E+02  0.45613569778E+02  0.41800000000E+01 0.  1.
         -5    1    3    3    0  502  0.11263861513E+03 -0.83971056862E+02  0.81570438107E+02  0.16251093742E+03  0.41800000000E+01 0.  1.
        -11    1    1    2    0    0 -0.49208161359E+02 -0.80763616505E+01  0.26445622624E+02  0.56445032711E+02  0.00000000000E+00 0. -1.
         11    1    1    2    0    0 -0.39869355396E+02  0.82442407141E+02 -0.27785699803E+02  0.95699326583E+02  0.00000000000E+00 0.  1.
</event>
<event>
 7    1  0.2686828E-009  0.1013577E+03  0.7561462E-02  0.1277467E+00
         -1   -1    0    0    0  501 -0.00000000000E+00  0.00000000000E+00  0.18622621206E+04  0.18622621206E+04  0.00000000000E+00 0.  1.
          1   -1    0    0  501    0  0.00000000000E+00 -0.00000000000E+00 -0.20337196271E+02  0.20337196271E+02  0.00000000000E+00 0. -1.
         25    2    1    2    0    0  0.17667886994E+01  0.46316503570E+02  0.17083746475E+04  0.17135758900E+04  0.12510017700E+03 0.  0.
          5    1    3    3  502    0  0.39269491810E+02  0.47823138401E+02  0.15295562499E+04  0.15308131629E+04  0.41800000000E+01 0.  1.
         -5    1    3    3    0  502 -0.37502703111E+02 -0.15066348315E+01  0.17881839765E+03  0.18276272712E+03  0.41800000000E+01 0.  1.
        -11    1    1    2    0    0 -0.30730708425E+02  0.15680616358E+02  0.35967768968E+02  0.49839126941E+02  0.00000000000E+00 0. -1.
         11    1    1    2    0    0  0.28963919726E+02 -0.61997119928E+02  0.97582507837E+02  0.11918429998E+03  0.00000000000E+00 0.  1.
</event>
<event>
 7    1  0.2686828E-009  0.1061923E+03  0.7561462E-02  0.1267788E+00
          4   -1    0    0  501    0  0.00000000000E+00  0.00000000000E+00  0.58350723882E+02  0.58350723882E+02  0.00000000000E+00 0. -1.
         -4   -1    0    0    0  501 -0.00000000000E+00 -0.00000000000E+00 -0.30279895979E+03  0.30279895979E+03  0.00000000000E+00 0.  1.
         25    2    1    2    0    0  0.57449749182E+02  0.48017573259E+02 -0.15925481636E+03  0.21590650800E+03  0.12508941858E+03 0.  0.
          5    1    3    3  502    0  0.64542801693E+02  0.22461132588E+02 -0.16205037499E+02  0.70358733416E+02  0.41800000000E+01 0.  1.
         -5    1    3    3    0  502 -0.70930525111E+01  0.25556440671E+02 -0.14304977887E+03  0.14554777459E+03  0.41800000000E+01 0.  1.
        -11    1    1    2    0    0 -0.71979243869E+02 -0.55609529356E+01 -0.45521683332E+02  0.85347287004E+02  0.00000000000E+00 0. -1.
         11    1    1    2    0    0  0.14529494687E+02 -0.42456620324E+02 -0.39671736215E+02  0.59895888669E+02  0.00000000000E+00 0.  1.
</event>
<event>
 7    1  0.2686828E-009  0.1000703E+03  0.7561462E-02  0.1280148E+00
         -2   -1    0    0    0  501 -0.00000000000E+00  0.00000000000E+00  0.13511770367E+03  0.13511770367E+03  0.00000000000E+00 0.  1.
          2   -1    0    0  501    0  0.00000000000E+00 -0.00000000000E+00 -0.94319569327E+02  0.94319569327E+02  0.00000000000E+00 0. -1.
         25    2    1    2    0    0 -0.22314206127E+02  0.16383333911E+02  0.41598064672E+02  0.13470070979E+03  0.12509014673E+03 0.  0.
          5    1    3    3  502    0  0.24288573569E+02  0.53706647263E+02  0.45709414863E+02  0.74707173507E+02  0.41800000000E+01 0. -1.
         -5    1    3    3    0  502 -0.46602779696E+02 -0.37323313352E+02 -0.41113501918E+01  0.59993536280E+02  0.41800000000E+01 0. -1.
        -11    1    1    2    0    0  0.36613430747E+01  0.30510320050E+02 -0.24194236736E+02  0.39110691043E+02  0.00000000000E+00 0. -1.
         11    1    1    2    0    0  0.18652863053E+02 -0.46893653961E+02  0.23394306405E+02  0.55625872164E+02  0.00000000000E+00 0.  1.
</event>
<event>
 7    1  0.2686828E-009  0.1095575E+03  0.7561462E-02  0.1261392E+00
         -1   -1    0    0    0  501 -0.00000000000E+00  0.00000000000E+00  0.13067713701E+03  0.13067713701E+03  0.00000000000E+00 0.  1.
          1   -1    0    0  501    0  0.00000000000E+00 -0.00000000000E+00 -0.10306304154E+03  0.10306304154E+03  0.00000000000E+00 0. -1.
         25    2    1    2    0    0  0.26310757007E+02  0.20539995203E+02  0.39179145856E+02  0.13526878604E+03  0.12509393139E+03 0.  0.
          5    1    3    3  502    0 -0.19256431811E+02  0.62718412996E+02  0.30366826209E+02  0.72415647680E+02  0.41800000000E+01 0. -1.
         -5    1    3    3    0  502  0.45567188818E+02 -0.42178417793E+02  0.88123196470E+01  0.62853138361E+02  0.41800000000E+01 0. -1.
        -11    1    1    2    0    0 -0.51691949858E+02  0.87036623414E+01  0.11130701907E+02  0.53588281771E+02  0.00000000000E+00 0.  1.
         11    1    1    2    0    0  0.25381192851E+02 -0.29243657545E+02 -0.22695752299E+02  0.44883110738E+02  0.00000000000E+00 0. -1.
</event>
<event>
 7    1  0.2686828E-009  0.8105713E+02  0.7561462E-02  0.1326078E+00
         -1   -1    0    0    0  501 -0.00000000000E+00  0.00000000000E+00  0.27352294087E+03  0.27352294087E+03  0.00000000000E+00 0.  1.
          1   -1    0    0  501    0  0.00000000000E+00 -0.00000000000E+00 -0.53772415146E+02  0.53772415146E+02  0.00000000000E+00 0. -1.
         25    2    1    2    0    0 -0.33758890434E+02  0.14571857345E+02  0.59360304056E+02  0.14326016724E+03  0.12509127911E+03 0.  0.
          5    1    3    3  502    0 -0.13850755258E+02  0.38395588277E+02  0.90328110981E+02  0.99210405976E+02  0.41800000000E+01 0.  1.
         -5    1    3    3    0  502 -0.19908135176E+02 -0.23823730933E+02 -0.30967806926E+02  0.44049761265E+02  0.41800000000E+01 0.  1.
        -11    1    1    2    0    0  0.61124630797E+02 -0.83506509206E+01  0.11877966056E+03  0.13384528988E+03  0.00000000000E+00 0. -1.
         11    1    1    2    0    0 -0.27365740364E+02 -0.62212064239E+01  0.41610561108E+02  0.50189898892E+02  0.00000000000E+00 0.  1.
</event>
<event>
 7    1  0.2686828E-009  0.8644716E+02  0.7561462E-02  0.1311691E+00
          1   -1    0    0  501    0  0.00000000000E+00  0.00000000000E+00  0.26944753452E+03  0.26944753452E+03  0.00000000000E+00 0. -1.
         -1   -1    0    0    0  501 -0.00000000000E+00 -0.00000000000E+00 -0.54378352934E+02  0.54378352934E+02  0.00000000000E+00 0.  1.
         25    2    1    2    0    0 -0.61563912868E+01 -0.53362052522E+02  0.11703405620E+03  0.17952260630E+03  0.12508391607E+03 0.  0.
          5    1    3    3  502    0 -0.17733200409E+02 -0.73195752721E+01  0.12891753295E+03  0.13040416129E+03  0.41800000000E+01 0.  1.
         -5    1    3    3    0  502  0.11576809122E+02 -0.46042477250E+02 -0.11883476750E+02  0.49118445012E+02  0.41800000000E+01 0.  1.
        -11    1    1    2    0    0 -0.29113022273E+02  0.62688480020E+02  0.59018500210E+02  0.90887826248E+02  0.00000000000E+00 0.  1.
         11    1    1    2    0    0  0.35269413560E+02 -0.93264274981E+01  0.39016625175E+02  0.53415454906E+02  0.00000000000E+00 0. -1.
</event>
<event>
 7    1  0.2686828E-009  0.1114407E+03  0.7561462E-02  0.1257925E+00
          2   -1    0    0  501    0  0.00000000000E+00  0.00000000000E+00  0.11769153965E+03  0.11769153965E+03  0.00000000000E+00 0. -1.
         -2   -1    0    0    0  501 -0.00000000000E+00 -0.00000000000E+00 -0.14169025571E+03  0.14169025571E+03  0.00000000000E+00 0.  1.
         25    2    1    2    0    0 -0.61963936938E+02 -0.33217859656E+02 -0.18705105201E+02  0.14470516127E+03  0.12508695798E+03 0.  0.
          5    1    3    3  502    0 -0.97005477536E+02 -0.43949089422E+02 -0.15114910006E+02  0.10764533449E+03  0.41800000000E+01 0.  1.
         -5    1    3    3    0  502  0.35041540597E+02  0.10731229766E+02 -0.35901951948E+01  0.37059826784E+02  0.41800000000E+01 0.  1.
        -11    1    1    2    0    0  0.36371897464E+02  0.38843461917E+02 -0.43236824550E+02  0.68564950638E+02  0.00000000000E+00 0.  1.
         11    1    1    2    0    0  0.25592039474E+02 -0.56256022613E+01  0.37943213692E+02  0.46111683449E+02  0.00000000000E+00 0. -1.
</event>
<event>
 7    1  0.2686828E-009  0.1030817E+03  0.7561462E-02  0.1273946E+00
          2   -1    0    0  501    0  0.00000000000E+00  0.00000000000E+00  0.32058553348E+03  0.32058553348E+03  0.00000000000E+00 0. -1.
         -2   -1    0    0    0  501 -0.00000000000E+00 -0.00000000000E+00 -0.45865170009E+02  0.45865170009E+02  0.00000000000E+00 0.  1.
         25    2    1    2    0    0 -0.15943212111E+02 -0.15221657398E+02  0.79618245568E+02  0.14990675338E+03  0.12508830807E+03 0.  0.
          5    1    3    3  502    0 -0.61506886124E+01  0.47768897452E+02  0.70341285691E+02  0.85352606328E+02  0.41800000000E+01 0. -1.
         -5    1    3    3    0  502 -0.97925234990E+01 -0.62990554850E+02  0.92769598766E+01  0.64554147050E+02  0.41800000000E+01 0. -1.
        -11    1    1    2    0    0  0.98775254764E+01  0.53893106632E+02  0.11194581436E+03  0.12463505849E+03  0.00000000000E+00 0. -1.
         11    1    1    2    0    0  0.60656866350E+01 -0.38671449234E+02  0.83156303543E+02  0.91908891621E+02  0.00000000000E+00 0.  1.
</event>
<event>
 7    1  0.2686828E-009  0.8853617E+02  0.7561462E-02  0.1306436E+00
         -2   -1    0    0    0  501 -0.00000000000E+00  0.00000000000E+00  0.28471939084E+02  0.28471939084E+02  0.00000000000E+00 0. -1.
          2   -1    0    0  501    0  0.00000000000E+00 -0.00000000000E+00 -0.45713038798E+03  0.45713038798E+03  0.00000000000E+00 0.  1.
         25    2    1    2    0    0  0.49583304356E+01  0.16766225184E+02 -0.17115960829E+03  0.21272363005E+03  0.12510011959E+03 0.  0.
          5    1    3    3  502    0 -0.22325242134E+02 -0.28613226258E+02 -0.33230325331E+01  0.36683076459E+02  0.41800000000E+01 0.  1.
         -5    1    3    3    0  502  0.27283572570E+02  0.45379451443E+02 -0.16783657576E+03  0.17604055359E+03  0.41800000000E+01 0.  1.
        -11    1    1    2    0    0 -0.33691837988E+02  0.21203882133E+02 -0.15209385055E+03  0.15721731438E+03  0.00000000000E+00 0.  1.
         11    1    1    2    0    0  0.28733507553E+02 -0.37970107318E+02 -0.10540499005E+03  0.11566138263E+03  0.00000000000E+00 0. -1.
</event>
<event>
 7    1  0.2686828E-009  0.1154046E+03  0.7561462E-02  0.1250876E+00
          2   -1    0    0  501    0  0.00000000000E+00  0.00000000000E+00  0.12876809321E+04  0.12876809321E+04  0.00000000000E+00 0. -1.
         -2   -1    0    0    0  501 -0.00000000000E+00 -0.00000000000E+00 -0.15263918897E+02  0.15263918897E+02  0.00000000000E+00 0.  1.
         25    2    1    2    0    0 -0.44156690040E+02  0.52391252805E+01  0.10528329385E+04  0.10611701408E+04  0.12509040558E+03 0.  0.
          5    1    3    3  502    0 -0.86552587798E+02  0.16500513868E+02  0.74349120769E+03  0.74870572706E+03  0.41800000000E+01 0.  1.
         -5    1    3    3    0  502  0.42395897758E+02 -0.11261388588E+02  0.30934173084E+03  0.31246441374E+03  0.41800000000E+01 0.  1.
        -11    1    1    2    0    0  0.70291787518E+02  0.49893172427E+01  0.17954656182E+03  0.19288026478E+03  0.00000000000E+00 0.  1.
         11    1    1    2    0    0 -0.26135097478E+02 -0.10228442523E+02  0.40037512823E+02  0.48894445387E+02  0.00000000000E+00 0. -1.
</event>
<event>
 7    1  0.2686828E-009  0.1353227E+03  0.7561462E-02  0.1219765E+00
         -1   -1    0    0    0  501 -0.00000000000E+00  0.00000000000E+00  0.35432185359E+03  0.35432185359E+03  0.00000000000E+00 0.  1.
          1   -1    0    0  501    0  0.00000000000E+00 -0.00000000000E+00 -0.72838317791E+02  0.72838317791E+02  0.00000000000E+00 0. -1.
         25    2    1    2    0    0  0.86889389092E+02  0.76621775225E+02  0.17987997801E+03  0.24784054426E+03  0.12508983378E+03 0.  0.
          5    1    3    3  502    0  0.44489635091E+02  0.67967247905E+02  0.18687104465E+03  0.20380660968E+03  0.41800000000E+01 0.  1.
         -5    1    3    3    0  502  0.42399754001E+02  0.86545273206E+01 -0.69910666376E+01  0.44033934587E+02  0.41800000000E+01 0.  1.
        -11    1    1    2    0    0  0.16784464323E+02 -0.24744699879E+02  0.33348163750E+02  0.44789713553E+02  0.00000000000E+00 0.  1.
         11    1    1    2    0    0 -0.10367385342E+03 -0.51877075347E+02  0.68255394031E+02  0.13452991356E+03  0.00000000000E+00 0. -1.
</event>
<event>
 7    1  0.2686828E-009  0.1134509E+03  0.7561462E-02  0.1254310E+00
          4   -1    0    0  501    0  0.00000000000E+00  0.00000000000E+00  0.72332102281E+02  0.72332102281E+02  0.00000000000E+00 0. -1.
         -4   -1    0    0    0  501 -0.00000000000E+00 -0.00000000000E+00 -0.18549781080E+03  0.18549781080E+03  0.00000000000E+00 0.  1.
         25    2    1    2    0    0 -0.24818202971E+02  0.31303155412E+02 -0.71739852648E+02  0.14962945985E+03  0.12508612257E+03 0.  0.
          5    1    3    3  502    0  0.34498255286E+02 -0.26816875475E+02 -0.43544889871E+02  0.61829639024E+02  0.41800000000E+01 0.  1.
         -5    1    3    3    0  502 -0.59316458258E+02  0.58120030887E+02 -0.28194962777E+02  0.87799820823E+02  0.41800000000E+01 0.  1.
        -11    1    1    2    0    0  0.19888522794E+02  0.31287087109E+02 -0.13067442926E+02  0.39308945843E+02  0.00000000000E+00 0.  1.
         11    1    1    2    0    0  0.49296801776E+01 -0.62590242521E+02 -0.28358412943E+02  0.68891507388E+02  0.00000000000E+00 0. -1.
</event>
<event>
 7    1  0.2686828E-009  0.1029290E+03  0.7561462E-02  0.1274254E+00
          2   -1    0    0  501    0  0.00000000000E+00  0.00000000000E+00  0.76205300382E+03  0.76205300382E+03  0.00000000000E+00 0. -1.
         -2   -1    0    0    0  501 -0.00000000000E+00 -0.00000000000E+00 -0.15488449132E+02  0.15488449132E+02  0.00000000000E+00 0.  1.
         25    2    1    2    0    0 -0.15328096545E+02 -0.15268214129E+02  0.42145880423E+03  0.44016405214E+03  0.12509516469E+03 0.  0.
          5    1    3    3  502    0 -0.48175510303E+02  0.36405504946E+02  0.14792379451E+03  0.15982853927E+03  0.41800000000E+01 0.  1.
         -5    1    3    3    0  502  0.32847413758E+02 -0.51673719075E+02  0.27353500972E+03  0.28033551287E+03  0.41800000000E+01 0.  1.
        -11    1    1    2    0    0  0.22831888304E+02 -0.30207952733E+02  0.21000080141E+03  0.21338732887E+03  0.00000000000E+00 0. -1.
         11    1    1    2    0    0 -0.75037917589E+01  0.45476166862E+02  0.11510494905E+03  0.12399007194E+03  0.00000000000E+00 0.  1.
</event>
<event>
 7    1  0.2686828E-009  0.6342391E+02  0.7561462E-02  0.1384000E+00
          1   -1    0    0  501    0  0.00000000000E+00  0.00000000000E+00  0.14024970507E+03  0.14024970507E+03  0.00000000000E+00 0. -1.
         -1   -1    0    0    0  501 -0.00000000000E+00 -0.00000000000E+00 -0.10621993449E+03  0.10621993449E+03  0.00000000000E+00 0.  1.
         25    2    1    2    0    0 -0.49986561742E+02  0.36153688144E+01  0.48503408245E+01  0.13484193244E+03  0.12508834355E+03 0.  0.
          5    1    3    3  502    0 -0.93501996992E+01 -0.16756520125E+02 -0.55672151005E+02  0.59034464499E+02  0.41800000000E+01 0. -1.
         -5    1    3    3    0  502 -0.40636362043E+02  0.20371888939E+02  0.60522491830E+02  0.75807467946E+02  0.41800000000E+01 0. -1.
        -11    1    1    2    0    0  0.30537941895E+02  0.15538251806E+02 -0.30582404249E+02  0.45926970443E+02  0.00000000000E+00 0.  1.
         11    1    1    2    0    0  0.19448619847E+02 -0.19153620621E+02  0.59761833999E+02  0.65700736675E+02  0.00000000000E+00 0. -1.
</event>
<event>
 7    1  0.2686828E-009  0.1042139E+03  0.7561462E-02  0.1271676E+00
          1   -1    0    0  501    0  0.00000000000E+00  0.00000000000E+00  0.74616161643E+03  0.74616161643E+03  0.00000000000E+00 0. -1.
         -1   -1    0    0    0  501 -0.00000000000E+00 -0.00000000000E+00 -0.26347631987E+02  0.26347631987E+02  0.00000000000E+00 0.  1.
         25    2    1    2    0    0 -0.67053491362E+02  0.19296365790E+02  0.53412956208E+03  0.55300108524E+03  0.12508913125E+03 0.  0.
          5    1    3    3  502    0 -0.50224205132E+02 -0.19669583813E+02  0.78251006696E+02  0.95131781006E+02  0.41800000000E+01 0.  1.
         -5    1    3    3    0  502 -0.16829286230E+02  0.38965949603E+02  0.45587855538E+03  0.45786930423E+03  0.41800000000E+01 0.  1.
        -11    1    1    2    0    0  0.55077656291E+02 -0.52677254528E+02  0.92804694876E+02  0.12008810415E+03  0.00000000000E+00 0.  1.
         11    1    1    2    0    0  0.11975835071E+02  0.33380888738E+02  0.92879727487E+02  0.99420059025E+02  0.00000000000E+00 0. -1.
</event>
<event>
 7    1  0.2686828E-009  0.2179138E+03  0.7561462E-02  0.1135448E+00
         -2   -1    0    0    0  501 -0.00000000000E+00  0.00000000000E+00  0.14926911953E+03  0.14926911953E+03  0.00000000000E+00 0.  1.
          2   -1    0    0  501    0  0.00000000000E+00 -0.00000000000E+00 -0.46440709837E+03  0.46440709837E+03  0.00000000000E+00 0. -1.
         25    2    1    2    0    0 -0.26292237173E+01 -0.20805891713E+03 -0.30035907208E+03  0.38620934189E+03  0.12508660107E+03 0.  0.
          5    1    3    3  502    0 -0.10335120277E+02  0.64216032399E+01 -0.70654756422E+02  0.71816562883E+02  0.41800000000E+01 0. -1.
         -5    1    3    3    0  502  0.77058965597E+01 -0.21448052037E+03 -0.22970431566E+03  0.31439277901E+03  0.41800000000E+01 0. -1.
        -11    1    1    2    0    0 -0.36337197768E+01  0.58791158744E+02  0.36754264409E+02  0.69429678223E+02  0.00000000000E+00 0.  1.
         11    1    1    2    0    0  0.62629434941E+01  0.14926775838E+03 -0.51533171165E+02  0.15803719779E+03  0.00000000000E+00 0. -1.
</event>
<event>
 7    1  0.2686828E-009  0.6102107E+02  0.7561462E-02  0.1393596E+00
         -2   -1    0    0    0  501 -0.00000000000E+00  0.00000000000E+00  0.30864802577E+02  0.30864802577E+02  0.00000000000E+00 0.  1.
          2   -1    0    0  501    0  0.00000000000E+00 -0.00000000000E+00 -0.36936435699E+03  0.36936435699E+03  0.00000000000E+00 0. -1.
         25    2    1    2    0    0 -0.20702240700E+02  0.61962327946E+01 -0.18151107395E+03  0.22149866857E+03  0.12509362150E+03 0.  0.
          5    1    3    3  502    0  0.40964579891E+01 -0.29337184234E+02  0.46863067346E+01  0.30280112576E+02  0.41800000000E+01 0.  1.
         -5    1    3    3    0  502 -0.24798698689E+02  0.35533417028E+02 -0.18619738068E+03  0.19121855599E+03  0.41800000000E+01 0.  1.
        -11    1    1    2    0    0  0.24106741758E+02  0.14158416036E+02 -0.15555068124E+03  0.15804306431E+03  0.00000000000E+00 0. -1.
         11    1    1    2    0    0 -0.34045010577E+01 -0.20354648831E+02 -0.14377992284E+01  0.20687426691E+02  0.00000000000E+00 0.  1.
</event>
<event>
 7    1  0.2686828E-009  0.9624413E+02  0.7561462E-02  0.1288398E+00
         -1   -1    0    0    0  501 -0.00000000000E+00  0.00000000000E+00  0.84745450758E+02  0.84745450758E+02  0.00000000000E+00 0.  1.
          1   -1    0    0  501    0  0.00000000000E+00 -0.00000000000E+00 -0.18783084102E+03  0.18783084102E+03  0.00000000000E+00 0. -1.
         25    2    1    2    0    0  0.29668808917E+02  0.45497655594E+02 -0.99993198782E+02  0.16910431750E+03  0.12508939007E+03 0.  0.
          5    1    3    3  502    0 -0.24331496935E+02  0.15598801315E+02  0.19104247546E+02  0.34896833952E+02  0.41800000000E+01 0. -1.
         -5    1    3    3    0  502  0.54000305852E+02  0.29898854279E+02 -0.11909744633E+03  0.13420748355E+03  0.41800000000E+01 0. -1.
        -11    1    1    2    0    0 -0.25632769453E+02  0.22012963608E+02 -0.10633965695E+02  0.35421612937E+02  0.00000000000E+00 0.  1.
         11    1    1    2    0    0 -0.40360394635E+01 -0.67510619202E+02  0.75417742161E+01  0.68050361335E+02  0.00000000000E+00 0. -1.
</event>
<event>
 7    1  0.2686828E-009  0.1524707E+03  0.7561462E-02  0.1197469E+00
         -1   -1    0    0    0  501 -0.00000000000E+00  0.00000000000E+00  0.62779235369E+02  0.62779235369E+02  0.00000000000E+00 0.  1.
          1   -1    0    0  501    0  0.00000000000E+00 -0.00000000000E+00 -0.40114504977E+03  0.40114504977E+03  0.00000000000E+00 0. -1.
         25    2    1    2    0    0 -0.89240685087E+02 -0.65377182056E+02 -0.21127961643E+03  0.26930206825E+03  0.12508577791E+03 0.  0.
          5    1    3    3  502    0 -0.78194288590E+01 -0.76226343026E+02 -0.14347625204E+03  0.16270988335E+03  0.41800000000E+01 0. -1.
         -5    1    3    3    0  502 -0.81421256228E+02  0.10849160970E+02 -0.67803364392E+02  0.10659218490E+03  0.41800000000E+01 0. -1.
        -11    1    1    2    0    0  0.20146148489E+02  0.73659449796E+02 -0.80020548451E+02  0.11061134669E+03  0.00000000000E+00 0. -1.
         11    1    1    2    0    0  0.69094536598E+02 -0.82822677395E+01 -0.47065649519E+02  0.84010870197E+02  0.00000000000E+00 0.  1.
</event>
<event>
 7    1  0.2686828E-009  0.1017371E+03  0.7561462E-02  0.1276685E+00
          3   -1    0    0  501    0  0.00000000000E+00  0.00000000000E+00  0.15502034389E+03  0.15502034389E+03  0.00000000000E+00 0. -1.
         -3   -1    0    0    0  501 -0.00000000000E+00 -0.00000000000E+00 -0.87847284922E+02  0.87847284922E+02  0.00000000000E+00 0.  1.
         25    2    1    2    0    0  0.24309458628E+02  0.39973578448E+02  0.66023638204E+02  0.14897941212E+03  0.12508760003E+03 0.  0.
          5    1    3    3  502    0  0.44098725519E+02  0.68662394434E+02  0.76925137476E+02  0.11222375496E+03  0.41800000000E+01 0.  1.
         -5    1    3    3    0  502 -0.19789266891E+02 -0.28688815985E+02 -0.10901499273E+02  0.36755657158E+02  0.41800000000E+01 0.  1.
        -11    1    1    2    0    0 -0.11299465122E+02 -0.60944246261E+02 -0.15781260247E+02  0.63960356779E+02  0.00000000000E+00 0.  1.
         11    1    1    2    0    0 -0.13009993505E+02  0.20970667812E+02  0.16930681009E+02  0.29927859913E+02  0.00000000000E+00 0. -1.
</event>
<event>
 7    1  0.2686828E-009  0.1026761E+03  0.7561462E-02  0.1274767E+00
         -2   -1    0    0    0  501 -0.00000000000E+00  0.00000000000E+00  0.58176971421E+02  0.58176971421E+02  0.00000000000E+00 0.  1.
          2   -1    0    0  501    0  0.00000000000E+00 -0.00000000000E+00 -0.25793632115E+03  0.25793632115E+03  0.00000000000E+00 0. -1.
         25    2    1    2    0    0  0.54970397400E+02  0.16789193878E+02 -0.11283753873E+03  0.17801193067E+03  0.12510921506E+03 0.  0.
          5    1    3    3  502    0 -0.20161776862E+02  0.87168068046E+01  0.16754249668E+02  0.27940244255E+02  0.41800000000E+01 0.  1.
         -5    1    3    3    0  502  0.75132174262E+02  0.80723870733E+01 -0.12959178840E+03  0.15007168641E+03  0.41800000000E+01 0.  1.
        -11    1    1    2    0    0 -0.26713689106E+02  0.37539900738E+02 -0.37813447292E+02  0.59604715662E+02  0.00000000000E+00 0. -1.
         11    1    1    2    0    0 -0.28256708294E+02 -0.54329094616E+02 -0.49108363708E+02  0.78496646244E+02  0.00000000000E+00 0.  1.
</event>
<event>
 7    1  0.2686828E-009  0.8086668E+02  0.7561462E-02  0.1326610E+00
          1   -1    0    0  501    0  0.00000000000E+00  0.00000000000E+00  0.29856567875E+02  0.29856567875E+02  0.00000000000E+00 0. -1.
         -1   -1    0    0    0  501 -0.00000000000E+00 -0.00000000000E+00 -0.44175311923E+03  0.44175311923E+03  0.00000000000E+00 0.  1.
         25    2    1    2    0    0  0.16796096332E+02 -0.23311728263E+02 -0.17891319030E+03  0.22018866154E+03  0.12509025335E+03 0.  0.
          5    1    3    3  502    0 -0.23255915663E+00  0.41459585915E+02 -0.13171493098E+03  0.13814936407E+03  0.41800000000E+01 0.  1.
         -5    1    3    3    0  502  0.17028655489E+02 -0.64771314178E+02 -0.47198259316E+02  0.82039297478E+02  0.41800000000E+01 0.  1.
        -11    1    1    2    0    0 -0.43933507500E+01 -0.13457019156E+02  0.10477106486E+01  0.14194738215E+02  0.00000000000E+00 0. -1.
         11    1    1    2    0    0 -0.12402745582E+02  0.36768747419E+02 -0.23403107171E+03  0.23722628735E+03  0.00000000000E+00 0.  1.
</event>
<event>
 7    1  0.2686828E-009  0.9515250E+02  0.7561462E-02  0.1290833E+00
          2   -1    0    0  501    0  0.00000000000E+00  0.00000000000E+00  0.59555506238E+02  0.59555506238E+02  0.00000000000E+00 0. -1.
         -2   -1    0    0    0  501 -0.00000000000E+00 -0.00000000000E+00 -0.23017955637E+03  0.23017955637E+03  0.00000000000E+00 0.  1.
         25    2    1    2    0    0  0.13175017764E+02  0.32917958265E+02 -0.66336269241E+02  0.14596367640E+03  0.12509085156E+03 0.  0.
          5    1    3    3  502    0 -0.14393489285E+02  0.64252072406E+02  0.17434748993E+01  0.66000101871E+02  0.41800000000E+01 0.  1.
         -5    1    3    3    0  502  0.27568507049E+02 -0.31334114140E+02 -0.68079744140E+02  0.79963574533E+02  0.41800000000E+01 0.  1.
        -11    1    1    2    0    0 -0.18287291007E+02  0.21215509308E+02 -0.78973122831E+02  0.83793060436E+02  0.00000000000E+00 0.  1.
         11    1    1    2    0    0  0.51122732433E+01 -0.54133467574E+02 -0.25314658060E+02  0.59978325768E+02  0.00000000000E+00 0. -1.
</event>
<event>
 7    1  0.2686828E-009  0.1530425E+03  0.7561462E-02  0.1196783E+00
         -1   -1    0    0    0  501 -0.00000000000E+00  0.00000000000E+00  0.24369347938E+02  0.24369347938E+02  0.00000000000E+00 0.  1.
          1   -1    0    0  501    0  0.00000000000E+00 -0.00000000000E+00 -0.14500454215E+04  0.14500454215E+04  0.00000000000E+00 0. -1.
         25    2    1    2    0    0 -0.11794878157E+03 -0.72619542402E+02 -0.99877296611E+03  0.10160609913E+04  0.12508791764E+03 0.  0.
          5    1    3    3  502    0 -0.60399766540E+02 -0.86157816330E+02 -0.37579009881E+03  0.39026525835E+03  0.41800000000E+01 0.  1.
         -5    1    3    3    0  502 -0.57549015031E+02  0.13538273927E+02 -0.62298286730E+03  0.62579573292E+03  0.41800000000E+01 0.  1.
        -11    1    1    2    0    0  0.55936972735E+02  0.51416600180E+02 -0.10359361372E+03  0.12846886197E+03  0.00000000000E+00 0.  1.
         11    1    1    2    0    0  0.62011808837E+02  0.21202942223E+02 -0.32330949372E+03  0.32988491618E+03  0.00000000000E+00 0. -1.
</event>
<event>
 7    1  0.2686828E-009  0.1276327E+03  0.7561462E-02  0.1231011E+00
          2   -1    0    0  501    0  0.00000000000E+00  0.00000000000E+00  0.11109091773E+04  0.11109091773E+04  0.00000000000E+00 0. -1.
         -2   -1    0    0    0  501 -0.00000000000E+00 -0.00000000000E+00 -0.17719250614E+02  0.17719250614E+02  0.00000000000E+00 0.  1.
         25    2    1    2    0    0  0.47546210534E+02 -0.71429529128E+02  0.52121731701E+03  0.54284271696E+03  0.12509158261E+03 0.  0.
          5    1    3    3  502    0 -0.30280193933E+02 -0.22995988979E+02  0.50974661004E+02  0.63730637203E+02  0.41800000000E+01 0. -1.
         -5    1    3    3    0  502  0.77826404468E+02 -0.48433540150E+02  0.47024265600E+03  0.47911207976E+03  0.41800000000E+01 0. -1.
        -11    1    1    2    0    0  0.27379860312E+01  0.74804704180E+02  0.30113896595E+03  0.31030294415E+03  0.00000000000E+00 0.  1.
         11    1    1    2    0    0 -0.50284196565E+02 -0.33751750512E+01  0.27083364373E+03  0.27548276680E+03  0.00000000000E+00 0. -1.
</event>
<event>
 7    1  0.2686828E-009  0.1482277E+03  0.7561462E-02  0.1202668E+00
          2   -1    0    0  501    0  0.00000000000E+00  0.00000000000E+00  0.32830207336E+03  0.32830207336E+03  0.00000000000E+00 0. -1.
         -2   -1    0    0    0  501 -0.00000000000E+00 -0.00000000000E+00 -0.10243425347E+03  0.10243425347E+03  0.00000000000E+00 0.  1.
         25    2    1    2    0    0 -0.86941816389E+02 -0.10063547538E+03  0.19306835712E+03  0.26572135113E+03  0.12508424194E+03 0.  0.
          5    1    3    3  502    0 -0.75599337833E+02 -0.94761142782E+02  0.66279611258E+02  0.13822226062E+03  0.41800000000E+01 0.  1.
         -5    1    3    3    0  502 -0.11342478557E+02 -0.58743325982E+01  0.12678874587E+03  0.12749909051E+03  0.41800000000E+01 0.  1.
        -11    1    1    2    0    0  0.14453931916E+02  0.86711310770E+02  0.18191528439E+02  0.89770258272E+02  0.00000000000E+00 0.  1.
         11    1    1    2    0    0  0.72487884473E+02  0.13924164611E+02  0.14607934323E+02  0.75244717427E+02  0.00000000000E+00 0. -1.
</event>
<event>
 7    1  0.2686828E-009  0.1260586E+03  0.7561462E-02  0.1233424E+00
         -2   -1    0    0    0  501 -0.00000000000E+00  0.00000000000E+00  0.57785025313E+02  0.57785025313E+02  0.00000000000E+00 0.  1.
          2   -1    0    0  501    0  0.00000000000E+00 -0.00000000000E+00 -0.29474943485E+03  0.29474943485E+03  0.00000000000E+00 0. -1.
         25    2    1    2    0    0 -0.65344421219E+02 -0.25043433561E+02 -0.10546651826E+03  0.17796657647E+03  0.12510734957E+03 0.  0.
          5    1    3    3  502    0 -0.16196938708E+02 -0.69181377304E+02 -0.79916678256E+02  0.10701659522E+03  0.41800000000E+01 0.  1.
         -5    1    3    3    0  502 -0.49147482511E+02  0.44137943744E+02 -0.25549840008E+02  0.70949981251E+02  0.41800000000E+01 0.  1.
        -11    1    1    2    0    0 -0.11576011815E+02  0.35301314529E+02 -0.45275194834E+02  0.58566459038E+02  0.00000000000E+00 0. -1.
         11    1    1    2    0    0  0.76920433034E+02 -0.10257880969E+02 -0.86222696441E+02  0.11600142465E+03  0.00000000000E+00 0.  1.
</event>
<event>
 7    1  0.2686828E-009  0.1324521E+03  0.7561462E-02  0.1223862E+00
         -2   -1    0    0    0  501 -0.00000000000E+00  0.00000000000E+00  0.61445551642E+02  0.61445551642E+02  0.00000000000E+00 0.  1.
          2   -1    0    0  501    0  0.00000000000E+00 -0.00000000000E+00 -0.39335198881E+03  0.39335198881E+03  0.00000000000E+00 0. -1.
         25    2    1    2    0    0  0.60565324297E+02 -0.72298686037E+02 -0.26268988135E+03  0.30585597869E+03  0.12508655974E+03 0.  0.
          5    1    3    3  502    0  0.86482974743E+02 -0.49803089592E+02 -0.24967676154E+03  0.26891561931E+03  0.41800000000E+01 0.  1.
         -5    1    3    3    0  502 -0.25917650446E+02 -0.22495596445E+02 -0.13013119801E+02  0.36940359378E+02  0.41800000000E+01 0.  1.
        -11    1    1    2    0    0  0.22581210027E+02  0.28836114513E+02 -0.98908670964E+01  0.37937604015E+02  0.00000000000E+00 0. -1.
         11    1    1    2    0    0 -0.83146534324E+02  0.43462571524E+02 -0.59325688731E+02  0.11100395775E+03  0.00000000000E+00 0.  1.
</event>
<event>
 7    1  0.2686828E-009  0.4821807E+02  0.7561462E-02  0.1455197E+00
          1   -1    0    0  501    0  0.00000000000E+00  0.00000000000E+00  0.31144773316E+03  0.31144773316E+03  0.00000000000E+00 0. -1.
         -1   -1    0    0    0  501 -0.00000000000E+00 -0.00000000000E+00 -0.29331912291E+02  0.29331912291E+02  0.00000000000E+00 0.  1.
         25    2    1    2    0    0  0.26745430408E+01 -0.98981238317E+00  0.16793468110E+03  0.20942040963E+03  0.12508684160E+03 0.  0.
          5    1    3    3  502    0  0.13648630771E+02  0.11246548680E+02 -0.16297016614E+02  0.24409734322E+02  0.41800000000E+01 0.  1.
         -5    1    3    3    0  502 -0.10974087730E+02 -0.12236361064E+02  0.18423169771E+03  0.18501067530E+03  0.41800000000E+01 0.  1.
        -11    1    1    2    0    0 -0.26074532682E+02  0.18590654085E+02  0.81031340764E+02  0.87129626763E+02  0.00000000000E+00 0. -1.
         11    1    1    2    0    0  0.23399989641E+02 -0.17600841701E+02  0.33149799008E+02  0.44229609066E+02  0.00000000000E+00 0.  1.
</event>
<event>
 7    1  0.2686828E-009  0.3190039E+03  0.7561462E-02  0.1076109E+00
          2   -1    0    0  501    0  0.00000000000E+00  0.00000000000E+00  0.25083944380E+04  0.25083944380E+04  0.00000000000E+00 0. -1.
         -2   -1    0    0    0  501 -0.00000000000E+00 -0.00000000000E+00 -0.44141806020E+02  0.44141806020E+02  0.00000000000E+00 0.  1.
         25    2    1    2    0    0  0.28959900118E+03 -0.11768751033E+03  0.13753292052E+04  0.14159438818E+04  0.12509485314E+03 0.  0.
          5    1    3    3  502    0  0.18736729086E+03 -0.82199083224E+02  0.11208508778E+04  0.11393802498E+04  0.41800000000E+01 0. -1.
         -5    1    3    3    0  502  0.10223171032E+03 -0.35488427105E+02  0.25447832738E+03  0.27656363203E+03  0.41800000000E+01 0. -1.
        -11    1    1    2    0    0 -0.14213517029E+03  0.10566770514E+03  0.62879755995E+03  0.65326445024E+03  0.00000000000E+00 0.  1.
         11    1    1    2    0    0 -0.14746383089E+03  0.12019805189E+02  0.46012586691E+03  0.48332791202E+03  0.00000000000E+00 0. -1.
</event>
<event>
 7    1  0.2686828E-009  0.7808572E+02  0.7561462E-02  0.1334573E+00
         -2   -1    0    0    0  501 -0.00000000000E+00  0.00000000000E+00  0.29441570661E+02  0.29441570661E+02  0.00000000000E+00 0. -1.
          2   -1    0    0  501    0  0.00000000000E+00 -0.00000000000E+00 -0.49273513679E+03  0.49273513679E+03  0.00000000000E+00 0.  1.
         25    2    1    2    0    0  0.52427446478E+02  0.23933274414E+02 -0.32929369434E+03  0.35693516076E+03  0.12508770157E+03 0.  0.
          5    1    3    3  502    0  0.18402371561E+02  0.48539974841E+02 -0.30249809578E+03  0.30694844321E+03  0.41800000000E+01 0. -1.
         -5    1    3    3    0  502  0.34025074917E+02 -0.24606700427E+02 -0.26795598558E+02  0.49986717546E+02  0.41800000000E+01 0. -1.
        -11    1    1    2    0    0 -0.31686244242E+02 -0.26084606514E+02 -0.13803064755E+03  0.14400307092E+03  0.00000000000E+00 0.  1.
         11    1    1    2    0    0 -0.20741202236E+02  0.21513320997E+01  0.40307757617E+01  0.21238475775E+02  0.00000000000E+00 0. -1.
</event>
<event>
 7    1  0.2686828E-009  0.1054012E+03  0.7561462E-02  0.1269331E+00
         -1   -1    0    0    0  501 -0.00000000000E+00  0.00000000000E+00  0.28797891299E+02  0.28797891299E+02  0.00000000000E+00 0.  1.
          1   -1    0    0  501    0  0.00000000000E+00 -0.00000000000E+00 -0.16167770111E+04  0.16167770111E+04  0.00000000000E+00 0. -1.
         25    2    1    2    0    0 -0.47886124853E+02 -0.32364015675E+02 -0.15002186906E+04  0.15065337589E+04  0.12508931423E+03 0.  0.
          5    1    3    3  502    0  0.24693740048E+02 -0.61823553997E+01 -0.10042986327E+04  0.10046298913E+04  0.41800000000E+01 0. -1.
         -5    1    3    3    0  502 -0.72579864902E+02 -0.26181660276E+02 -0.49592005788E+03  0.50190386762E+03  0.41800000000E+01 0. -1.
        -11    1    1    2    0    0  0.46927812991E+02 -0.23070402983E+02 -0.39458690076E+02  0.65509169957E+02  0.00000000000E+00 0.  1.
         11    1    1    2    0    0  0.95831186266E+00  0.55434418659E+02 -0.48301739110E+02  0.73531973554E+02  0.00000000000E+00 0. -1.
</event>
<event>
 7    1  0.2686828E-009  0.8738646E+02  0.7561462E-02  0.1309307E+00
         -2   -1    0    0    0  501 -0.00000000000E+00  0.00000000000E+00  0.38447351877E+03  0.38447351877E+03  0.00000000000E+00 0. -1.
          2   -1    0    0  501    0  0.00000000000E+00 -0.00000000000E+00 -0.51955678602E+02  0.51955678602E+02  0.00000000000E+00 0.  1.
         25    2    1    2    0    0 -0.37987161227E+02  0.76808436602E+02  0.22317315959E+03  0.26980773560E+03  0.12508954662E+03 0.  0.
          5    1    3    3  502    0 -0.27846055253E+02  0.31763832079E+02  0.21920531268E+03  0.22327737308E+03  0.41800000000E+01 0.  1.
         -5    1    3    3    0  502 -0.10141105974E+02  0.45044604523E+02  0.39678469106E+01  0.46530362519E+02  0.41800000000E+01 0.  1.
        -11    1    1    2    0    0  0.80891034116E+01 -0.10737830694E+02 -0.16556661500E+02  0.21327391825E+02  0.00000000000E+00 0. -1.
         11    1    1    2    0    0  0.29898057815E+02 -0.66070605908E+02  0.12590134208E+03  0.14529406996E+03  0.00000000000E+00 0.  1.
</event>
<event>
 7    1  0.2686828E-009  0.1202858E+03  0.7561462E-02  0.1242626E+00
          2   -1    0    0  501    0  0.00000000000E+00  0.00000000000E+00  0.63231768584E+03  0.63231768584E+03  0.00000000000E+00 0.  1.
         -2   -1    0    0    0  501 -0.00000000000E+00 -0.00000000000E+00 -0.26957739497E+02  0.26957739497E+02  0.00000000000E+00 0. -1.
         25    2    1    2    0    0  0.66885035654E+02 -0.26975914106E+02  0.29738158702E+03  0.33058172413E+03  0.12508860897E+03 0.  0.
          5    1    3    3  502    0  0.13089326320E+02 -0.70206781940E+02  0.18832600766E+03  0.20145590151E+03  0.41800000000E+01 0. -1.
         -5    1    3    3    0  502  0.53795709334E+02  0.43230867834E+02  0.10905557936E+03  0.12912582262E+03  0.41800000000E+01 0. -1.
        -11    1    1    2    0    0 -0.39297748586E+01  0.36070470864E+02  0.20087467475E+03  0.20412534618E+03  0.00000000000E+00 0.  1.
         11    1    1    2    0    0 -0.62955260795E+02 -0.90945567578E+01  0.10710368457E+03  0.12456835503E+03  0.00000000000E+00 0. -1.
</event>
<event>
 7    1  0.2717960E-009  0.1025606E+03  0.7561462E-02  0.1275002E+00
          2   -1    0    0  501    0  0.00000000000E+00  0.00000000000E+00  0.69725659686E+03  0.69725659686E+03  0.00000000000E+00 0. -1.
         -2   -1    0    0    0  501 -0.00000000000E+00 -0.00000000000E+00 -0.27299989109E+02  0.27299989109E+02  0.00000000000E+00 0.  1.
         25    2    1    2    0    0 -0.80371968932E+02  0.92599757853E+01  0.43312322636E+03  0.45802638492E+03  0.12508812707E+03 0.  0.
          5    1    3    3  502    0 -0.84640576329E+02  0.78462573326E+01  0.44037582209E+03  0.44852416656E+03  0.41800000000E+01 0. -1.
         -5    1    3    3    0  502  0.42686073967E+01  0.14137184528E+01 -0.72525957270E+01  0.95022183594E+01  0.41800000000E+01 0. -1.
        -11    1    1    2    0    0  0.56693246297E+02 -0.44047930607E+02  0.19227452337E+03  0.20524092356E+03  0.00000000000E+00 0.  1.
         11    1    1    2    0    0  0.23678722635E+02  0.34787954822E+02  0.44558858017E+02  0.61289277480E+02  0.00000000000E+00 0. -1.
</event>
<event>
 7    1  0.2686828E-009  0.1412815E+03  0.7561462E-02  0.1211615E+00
          1   -1    0    0  501    0  0.00000000000E+00  0.00000000000E+00  0.13000135765E+03  0.13000135765E+03  0.00000000000E+00 0. -1.
         -1   -1    0    0    0  501 -0.00000000000E+00 -0.00000000000E+00 -0.18430167655E+03  0.18430167655E+03  0.00000000000E+00 0.  1.
         25    2    1    2    0    0 -0.97983276303E+02  0.36696834561E+02 -0.64308761419E+02  0.17530347254E+03  0.12509320760E+03 0.  0.
          5    1    3    3  502    0  0.17202592204E+02  0.21410995796E+02 -0.51257580517E+02  0.58302417446E+02  0.41800000000E+01 0.  1.
         -5    1    3    3    0  502 -0.11518586851E+03  0.15285838765E+02 -0.13051180902E+02  0.11700105509E+03  0.41800000000E+01 0.  1.
        -11    1    1    2    0    0  0.67379764130E+02 -0.67298246666E+02  0.96524968079E+01  0.95719680908E+02  0.00000000000E+00 0.  1.
         11    1    1    2    0    0  0.30603512173E+02  0.30601412105E+02  0.35594570843E+00  0.43279880747E+02  0.00000000000E+00 0. -1.
</event>
<event>
 7    1  0.2686828E-009  0.9996099E+02  0.7561462E-02  0.1280378E+00
          1   -1    0    0  501    0  0.00000000000E+00  0.00000000000E+00  0.55521608297E+03  0.55521608297E+03  0.00000000000E+00 0. -1.
         -1   -1    0    0    0  501 -0.00000000000E+00 -0.00000000000E+00 -0.38145182132E+02  0.38145182132E+02  0.00000000000E+00 0.  1.
         25    2    1    2    0    0 -0.86178785575E+02 -0.31101158540E+02  0.28758745998E+03  0.32672640405E+03  0.12509808480E+03 0.  0.
          5    1    3    3  502    0 -0.41602013288E+02  0.11282182394E+02  0.25168337611E+03  0.25538208504E+03  0.41800000000E+01 0. -1.
         -5    1    3    3    0  502 -0.44576772287E+02 -0.42383340935E+02  0.35904083864E+02  0.71344319006E+02  0.41800000000E+01 0. -1.
        -11    1    1    2    0    0  0.58052266622E+02  0.32994290129E+02  0.22889798750E+03  0.23843862423E+03  0.00000000000E+00 0. -1.
         11    1    1    2    0    0  0.28126518953E+02 -0.18931315891E+01  0.58545336231E+00  0.28196236828E+02  0.00000000000E+00 0.  1.
</event>
<event>
 7    1  0.2686828E-009  0.1149415E+03  0.7561462E-02  0.1251683E+00
         -1   -1    0    0    0  501 -0.00000000000E+00  0.00000000000E+00  0.83365568966E+03  0.83365568966E+03  0.00000000000E+00 0.  1.
          1   -1    0    0  501    0  0.00000000000E+00 -0.00000000000E+00 -0.18364631826E+02  0.18364631826E+02  0.00000000000E+00 0. -1.
         25    2    1    2    0    0  0.44667278282E+01 -0.38899932439E+02  0.40076732779E+03  0.42165757868E+03  0.12508999253E+03 0.  0.
          5    1    3    3  502    0  0.36658876690E+02 -0.71593773003E+02  0.19867470381E+03  0.21437969099E+03  0.41800000000E+01 0.  1.
         -5    1    3    3    0  502 -0.32192148862E+02  0.32693840564E+02  0.20209262398E+03  0.20727788769E+03  0.41800000000E+01 0.  1.
        -11    1    1    2    0    0  0.23179125436E+02  0.62663410341E+02  0.34939050664E+03  0.35572138112E+03  0.00000000000E+00 0.  1.
         11    1    1    2    0    0 -0.27645853264E+02 -0.23763477902E+02  0.65133223402E+02  0.74641361694E+02  0.00000000000E+00 0. -1.
</event>
<event>
 7    1  0.2686828E-009  0.1132709E+03  0.7561462E-02  0.1254630E+00
          2   -1    0    0  501    0  0.00000000000E+00  0.00000000000E+00  0.92417927140E+03  0.92417927140E+03  0.00000000000E+00 0.  1.
         -2   -1    0    0    0  501 -0.00000000000E+00 -0.00000000000E+00 -0.41112116659E+02  0.41112116659E+02  0.00000000000E+00 0. -1.
         25    2    1    2    0    0 -0.28652743743E+02  0.89386501399E+02  0.78846900178E+03  0.80383007761E+03  0.12509396685E+03 0.  0.
          5    1    3    3  502    0  0.11757151591E+02  0.22537664547E+02  0.23493484971E+02  0.34865357776E+02  0.41800000000E+01 0.  1.
         -5    1    3    3    0  502 -0.40409895335E+02  0.66848836852E+02  0.76497551681E+03  0.76896471983E+03  0.41800000000E+01 0.  1.
        -11    1    1    2    0    0 -0.27268245732E+02 -0.36721609220E+02  0.93043858062E+01  0.46675533251E+02  0.00000000000E+00 0. -1.
         11    1    1    2    0    0  0.55920989475E+02 -0.52664892178E+02  0.85293767155E+02  0.11478577720E+03  0.00000000000E+00 0.  1.
</event>
<event>
 7    1  0.2686828E-009  0.4768706E+03  0.7561462E-02  0.1019999E+00
          2   -1    0    0  501    0  0.00000000000E+00  0.00000000000E+00  0.42134054831E+03  0.42134054831E+03  0.00000000000E+00 0. -1.
         -2   -1    0    0    0  501 -0.00000000000E+00 -0.00000000000E+00 -0.57063266951E+03  0.57063266951E+03  0.00000000000E+00 0.  1.
         25    2    1    2    0    0  0.39286824552E+03 -0.24676119442E+03  0.37092791312E+02  0.48193412154E+03  0.12509227362E+03 0.  0.
          5    1    3    3  502    0  0.32936663544E+03 -0.25437434297E+03  0.27042216276E+02  0.41705807840E+03  0.41800000000E+01 0. -1.
         -5    1    3    3    0  502  0.63501610082E+02  0.76131485435E+01  0.10050575036E+02  0.64876043131E+02  0.41800000000E+01 0. -1.
        -11    1    1    2    0    0 -0.29982786958E+03  0.23234717350E+03 -0.13396302651E+03  0.40227857621E+03  0.00000000000E+00 0. -1.
         11    1    1    2    0    0 -0.93040375947E+02  0.14414020924E+02 -0.52421885993E+02  0.10776052007E+03  0.00000000000E+00 0.  1.
</event>
<event>
 7    1  0.2686828E-009  0.3704960E+03  0.7561462E-02  0.1054503E+00
          2   -1    0    0  501    0  0.00000000000E+00  0.00000000000E+00  0.29218656703E+03  0.29218656703E+03  0.00000000000E+00 0. -1.
         -2   -1    0    0    0  501 -0.00000000000E+00 -0.00000000000E+00 -0.49818873814E+03  0.49818873814E+03  0.00000000000E+00 0.  1.
         25    2    1    2    0    0 -0.12841365862E+02 -0.36381867548E+03 -0.71574712696E+02  0.39153438756E+03  0.12508919955E+03 0.  0.
          5    1    3    3  502    0 -0.36056440977E+02 -0.34032597430E+03 -0.38178446453E+02  0.34437900908E+03  0.41800000000E+01 0. -1.
         -5    1    3    3    0  502  0.23215075115E+02 -0.23492701178E+02 -0.33396266243E+02  0.47155378486E+02  0.41800000000E+01 0. -1.
        -11    1    1    2    0    0  0.78294354882E+01  0.18489070077E+02  0.12357307628E+02  0.23576446386E+02  0.00000000000E+00 0. -1.
         11    1    1    2    0    0  0.50119303739E+01  0.34532960540E+03 -0.14678476604E+03  0.37526447121E+03  0.00000000000E+00 0.  1.
</event>
<event>
 7    1  0.2686828E-009  0.1483813E+03  0.7561462E-02  0.1202476E+00
          2   -1    0    0  501    0  0.00000000000E+00  0.00000000000E+00  0.58957874749E+03  0.58957874749E+03  0.00000000000E+00 0. -1.
         -2   -1    0    0    0  501 -0.00000000000E+00 -0.00000000000E+00 -0.53406598887E+02  0.53406598887E+02  0.00000000000E+00 0.  1.
         25    2    1    2    0    0  0.10770020025E+03 -0.62126032306E+02  0.16703712173E+03  0.24291684659E+03  0.12509283471E+03 0.  0.
          5    1    3    3  502    0  0.49849871737E+02 -0.93071020568E+02  0.12977630601E+03  0.16735168533E+03  0.41800000000E+01 0. -1.
         -5    1    3    3    0  502  0.57850328514E+02  0.30944988262E+02  0.37260815722E+02  0.75565161258E+02  0.41800000000E+01 0. -1.
        -11    1    1    2    0    0 -0.64669269945E+02  0.28141024785E+02  0.83872817176E+02  0.10958412847E+03  0.00000000000E+00 0.  1.
         11    1    1    2    0    0 -0.43030930306E+02  0.33985007520E+02  0.28526220970E+03  0.29048437132E+03  0.00000000000E+00 0. -1.
</event>
<event>
 7    1  0.2686828E-009  0.1527801E+03  0.7561462E-02  0.1197098E+00
         -1   -1    0    0    0  501 -0.00000000000E+00  0.00000000000E+00  0.96624053427E+02  0.96624053427E+02  0.00000000000E+00 0.  1.
          1   -1    0    0  501    0  0.00000000000E+00 -0.00000000000E+00 -0.30960798214E+03  0.30960798214E+03  0.00000000000E+00 0. -1.
         25    2    1    2    0    0  0.11535790123E+03 -0.12729611124E+02 -0.35230977444E+02  0.17423562208E+03  0.12508933549E+03 0.  0.
          5    1    3    3  502    0  0.63816076737E+01 -0.42736808635E+02 -0.42683278435E+02  0.60880985429E+02  0.41800000000E+01 0. -1.
         -5    1    3    3    0  502  0.10897629356E+03  0.30007197511E+02  0.74523009911E+01  0.11335463665E+03  0.41800000000E+01 0. -1.
        -11    1    1    2    0    0 -0.78457435807E+02  0.52797031287E+02 -0.11555162337E+03  0.14931601859E+03  0.00000000000E+00 0. -1.
         11    1    1    2    0    0 -0.36900465424E+02 -0.40067420163E+02 -0.62201327898E+02  0.82680394891E+02  0.00000000000E+00 0.  1.
</event>
<event>
 7    1  0.2686828E-009  0.1220716E+03  0.7561462E-02  0.1239718E+00
         -1   -1    0    0    0  501 -0.00000000000E+00  0.00000000000E+00  0.12007116263E+03  0.12007116263E+03  0.00000000000E+00 0.  1.
          1   -1    0    0  501    0  0.00000000000E+00 -0.00000000000E+00 -0.17880762446E+03  0.17880762446E+03  0.00000000000E+00 0. -1.
         25    2    1    2    0    0  0.79360737811E+02 -0.52973521825E+02 -0.50183085881E+02  0.16512808687E+03  0.12507846436E+03 0.  0.
          5    1    3    3  502    0  0.68695735127E+01 -0.70986656536E+02 -0.55001426840E+02  0.90160555681E+02  0.41800000000E+01 0. -1.
         -5    1    3    3    0  502  0.72491164298E+02  0.18013134711E+02  0.48183409584E+01  0.74967531192E+02  0.41800000000E+01 0. -1.
        -11    1    1    2    0    0 -0.49422812897E+02  0.19898892450E+02 -0.49847102257E+02  0.72961044118E+02  0.00000000000E+00 0. -1.
         11    1    1    2    0    0 -0.29937924914E+02  0.33074629375E+02  0.41293726302E+02  0.60789656097E+02  0.00000000000E+00 0.  1.
</event>
<event>
 7    1  0.2686828E-009  0.1244022E+03  0.7561462E-02  0.1236007E+00
         -1   -1    0    0    0  501 -0.00000000000E+00  0.00000000000E+00  0.14051384875E+03  0.14051384875E+03  0.00000000000E+00 0.  1.
          1   -1    0    0  501    0  0.00000000000E+00 -0.00000000000E+00 -0.15832709124E+03  0.15832709124E+03  0.00000000000E+00 0. -1.
         25    2    1    2    0    0 -0.87119619938E+02  0.49595737953E+02  0.84621406740E+01  0.16052772559E+03  0.12509187606E+03 0.  0.
          5    1    3    3  502    0 -0.85873237909E+02  0.41970447068E+01 -0.39179742760E+02  0.94574588638E+02  0.41800000000E+01 0.  1.
         -5    1    3    3    0  502 -0.12463820288E+01  0.45398693247E+02  0.47641883434E+02  0.65953136952E+02  0.41800000000E+01 0.  1.
        -11    1    1    2    0    0  0.41231069366E+01 -0.32017285577E+02 -0.41024927604E+02  0.52202981442E+02  0.00000000000E+00 0. -1.
         11    1    1    2    0    0  0.82996513001E+02 -0.17578452377E+02  0.14749544438E+02  0.86110232954E+02  0.00000000000E+00 0.  1.
</event>
<event>
 7    1  0.2686828E-009  0.7379649E+02  0.7561462E-02  0.1347639E+00
          1   -1    0    0  501    0  0.00000000000E+00  0.00000000000E+00  0.64284149037E+03  0.64284149037E+03  0.00000000000E+00 0. -1.
         -1   -1    0    0    0  501 -0.00000000000E+00 -0.00000000000E+00 -0.26437298870E+02  0.26437298870E+02  0.00000000000E+00 0.  1.
         25    2    1    2    0    0  0.25378833039E+02 -0.29346210378E+02  0.47867084966E+03  0.49626415504E+03  0.12508814504E+03 0.  0.
          5    1    3    3  502    0 -0.30337800791E+01 -0.46997443546E+01  0.44661061325E+03  0.44666520313E+03  0.41800000000E+01 0.  1.
         -5    1    3    3    0  502  0.28412613118E+02 -0.24646466024E+02  0.32060236415E+02  0.49598951911E+02  0.41800000000E+01 0.  1.
        -11    1    1    2    0    0 -0.22149584262E+02 -0.33323163990E+02  0.38001469197E+02  0.55182868741E+02  0.00000000000E+00 0.  1.
         11    1    1    2    0    0 -0.32292487776E+01  0.62669374369E+02  0.99731872642E+02  0.11783176546E+03  0.00000000000E+00 0. -1.
</event>
<event>
 7    1  0.2686828E-009  0.1525309E+03  0.7561462E-02  0.1197397E+00
         -2   -1    0    0    0  501 -0.00000000000E+00  0.00000000000E+00  0.88900963108E+02  0.88900963108E+02  0.00000000000E+00 0.  1.
          2   -1    0    0  501    0  0.00000000000E+00 -0.00000000000E+00 -0.27688359459E+03  0.27688359459E+03  0.00000000000E+00 0. -1.
         25    2    1    2    0    0  0.86423319487E+02  0.68124178423E+02 -0.13156565064E+03  0.21228804202E+03  0.12508716369E+03 0.  0.
          5    1    3    3  502    0  0.11565638809E+03  0.41610421233E+02 -0.11774975292E+03  0.17026539277E+03  0.41800000000E+01 0.  1.
         -5    1    3    3    0  502 -0.29233068606E+02  0.26513757191E+02 -0.13815897718E+02  0.42022649253E+02  0.41800000000E+01 0.  1.
        -11    1    1    2    0    0 -0.32909391613E+02 -0.80930146257E+02 -0.29260214463E+02  0.92135100694E+02  0.00000000000E+00 0.  1.
         11    1    1    2    0    0 -0.53513927874E+02  0.12805967833E+02 -0.27156766385E+02  0.61361414986E+02  0.00000000000E+00 0. -1.
</event>
<event>
 7    1  0.2686828E-009  0.1208967E+03  0.7561462E-02  0.1241625E+00
         -3   -1    0    0    0  501 -0.00000000000E+00  0.00000000000E+00  0.58890324178E+03  0.58890324178E+03  0.00000000000E+00 0.  1.
          3   -1    0    0  501    0  0.00000000000E+00 -0.00000000000E+00 -0.37025952621E+02  0.37025952621E+02  0.00000000000E+00 0. -1.
         25    2    1    2    0    0  0.71386689460E+02 -0.41141869172E+02  0.17803854541E+03  0.23266811576E+03  0.12509202856E+03 0.  0.
          5    1    3    3  502    0  0.43884271960E+02  0.40191882837E+02  0.46972049220E+02  0.75928009189E+02  0.41800000000E+01 0. -1.
         -5    1    3    3    0  502  0.27502417500E+02 -0.81333752009E+02  0.13106649619E+03  0.15674010657E+03  0.41800000000E+01 0. -1.
        -11    1    1    2    0    0 -0.45480731094E+01 -0.10677597963E+02  0.18170376825E+01  0.11747241941E+02  0.00000000000E+00 0. -1.
         11    1    1    2    0    0 -0.66838616351E+02  0.51819467135E+02  0.37202170607E+03  0.38151383671E+03  0.00000000000E+00 0.  1.
</event>
<event>
 7    1  0.2686828E-009  0.1734740E+03  0.7561462E-02  0.1174273E+00
         -2   -1    0    0    0  501 -0.00000000000E+00  0.00000000000E+00  0.40716570584E+02  0.40716570584E+02  0.00000000000E+00 0.  1.
          2   -1    0    0  501    0  0.00000000000E+00 -0.00000000000E+00 -0.10993786371E+04  0.10993786371E+04  0.00000000000E+00 0. -1.
         25    2    1    2    0    0  0.10301899543E+03 -0.92141498415E+02 -0.23458474297E+03  0.29963033671E+03  0.12508144504E+03 0.  0.
          5    1    3    3  502    0  0.62048452946E+02  0.21199236012E+02 -0.87806532873E+02  0.10966712240E+03  0.41800000000E+01 0.  1.
         -5    1    3    3    0  502  0.40970542482E+02 -0.11334073443E+03 -0.14677821010E+03  0.18996321431E+03  0.41800000000E+01 0.  1.
        -11    1    1    2    0    0 -0.12666225264E+02 -0.15565548500E+02 -0.52914289717E+02  0.56591886510E+02  0.00000000000E+00 0. -1.
         11    1    1    2    0    0 -0.90352770163E+02  0.10770704692E+03 -0.77116303387E+03  0.78387298451E+03  0.00000000000E+00 0.  1.
</event>
<event>
 7    1  0.2686828E-009  0.1451611E+03  0.7561462E-02  0.1206548E+00
         -2   -1    0    0    0  501 -0.00000000000E+00  0.00000000000E+00  0.98589293673E+02  0.98589293673E+02  0.00000000000E+00 0.  1.
          2   -1    0    0  501    0  0.00000000000E+00 -0.00000000000E+00 -0.24448795655E+03  0.24448795655E+03  0.00000000000E+00 0. -1.
         25    2    1    2    0    0 -0.75986074404E+02 -0.74333479056E+02 -0.11300343600E+03  0.19928912405E+03  0.12508808419E+03 0.  0.
          5    1    3    3  502    0 -0.89700138050E+02 -0.72891562907E+01 -0.38307257047E+02  0.97898748246E+02  0.41800000000E+01 0. -1.
         -5    1    3    3    0  502  0.13714063646E+02 -0.67044322766E+02 -0.74696178950E+02  0.10139037581E+03  0.41800000000E+01 0. -1.
        -11    1    1    2    0    0  0.53006372102E+02 -0.89021766086E+00  0.10370196785E+02  0.54018598207E+02  0.00000000000E+00 0.  1.
         11    1    1    2    0    0  0.22979702302E+02  0.75223696717E+02 -0.43265423666E+02  0.89769527963E+02  0.00000000000E+00 0. -1.
</event>
<event>
 7    1  0.2686828E-009  0.1153957E+03  0.7561462E-02  0.1250892E+00
         -2   -1    0    0    0  501 -0.00000000000E+00  0.00000000000E+00  0.22800332250E+02  0.22800332250E+02  0.00000000000E+00 0. -1.
          2   -1    0    0  501    0  0.00000000000E+00 -0.00000000000E+00 -0.75859065289E+03  0.75859065289E+03  0.00000000000E+00 0.  1.
         25    2    1    2    0    0  0.34714745311E+02 -0.54348956092E+02 -0.30039191266E+03  0.33172469541E+03  0.12508816804E+03 0.  0.
          5    1    3    3  502    0  0.75784611603E+02 -0.47763575737E+02 -0.14231225797E+03  0.16821093214E+03  0.41800000000E+01 0.  1.
         -5    1    3    3    0  502 -0.41069866293E+02 -0.65853803551E+01 -0.15807965469E+03  0.16351376327E+03  0.41800000000E+01 0.  1.
        -11    1    1    2    0    0 -0.58774385050E+02  0.42210348874E+02 -0.39169102380E+03  0.39831896769E+03  0.00000000000E+00 0.  1.
         11    1    1    2    0    0  0.24059639739E+02  0.12138607219E+02 -0.43707384174E+02  0.51347322042E+02  0.00000000000E+00 0. -1.
</event>
<event>
 7    1  0.2686828E-009  0.1069685E+03  0.7561462E-02  0.1266289E+00
         -1   -1    0    0    0  501 -0.00000000000E+00  0.00000000000E+00  0.37804967629E+03  0.37804967629E+03  0.00000000000E+00 0.  1.
          1   -1    0    0  501    0  0.00000000000E+00 -0.00000000000E+00 -0.41496630343E+02  0.41496630343E+02  0.00000000000E+00 0. -1.
         25    2    1    2    0    0  0.36127031427E+02 -0.45855709100E+02  0.22334785204E+03  0.26256514060E+03  0.12509309168E+03 0.  0.
          5    1    3    3  502    0  0.67811758464E+02 -0.23288717842E+02  0.20882892065E+03  0.22083430319E+03  0.41800000000E+01 0. -1.
         -5    1    3    3    0  502 -0.31684727037E+02 -0.22566991259E+02  0.14518931393E+02  0.41730837407E+02  0.41800000000E+01 0. -1.
        -11    1    1    2    0    0  0.23624317802E+02  0.35055187531E+02  0.72356372738E+02  0.83799876134E+02  0.00000000000E+00 0.  1.
         11    1    1    2    0    0 -0.59751349229E+02  0.10800521570E+02  0.40848821161E+02  0.73181289898E+02  0.00000000000E+00 0. -1.
</event>
<event>
 7    1  0.2686828E-009  0.2049506E+03  0.7561462E-02  0.1145628E+00
         -2   -1    0    0    0  501 -0.00000000000E+00  0.00000000000E+00  0.49027778690E+03  0.49027778690E+03  0.00000000000E+00 0.  1.
          2   -1    0    0  501    0  0.00000000000E+00 -0.00000000000E+00 -0.10183975381E+03  0.10183975381E+03  0.00000000000E+00 0. -1.
         25    2    1    2    0    0 -0.13060077240E+03 -0.14199971877E+03  0.16405920659E+03  0.28246246431E+03  0.12509651713E+03 0.  0.
          5    1    3    3  502    0 -0.12038201045E+03 -0.75984720453E+02  0.51379329400E+02  0.15140282056E+03  0.41800000000E+01 0.  1.
         -5    1    3    3    0  502 -0.10218761945E+02 -0.66014998319E+02  0.11267987719E+03  0.13105964376E+03  0.41800000000E+01 0.  1.
        -11    1    1    2    0    0  0.84657762936E+02  0.12620402843E+03  0.11697595908E+03  0.19177530764E+03  0.00000000000E+00 0. -1.
         11    1    1    2    0    0  0.45943009460E+02  0.15795690346E+02  0.10740286742E+03  0.11787976876E+03  0.00000000000E+00 0.  1.
</event>
<event>
 7    1  0.2686828E-009  0.1244891E+03  0.7561462E-02  0.1235870E+00
         -1   -1    0    0    0  501 -0.00000000000E+00  0.00000000000E+00  0.11812237305E+03  0.11812237305E+03  0.00000000000E+00 0.  1.
          1   -1    0    0  501    0  0.00000000000E+00 -0.00000000000E+00 -0.16605119087E+03  0.16605119087E+03  0.00000000000E+00 0. -1.
         25    2    1    2    0    0 -0.68492467315E+02 -0.41607165569E+02 -0.62079170990E+02  0.16099849904E+03  0.12507725180E+03 0.  0.
          5    1    3    3  502    0 -0.93534344938E+02 -0.49686303618E+02 -0.76486373422E+02  0.13070975545E+03  0.41800000000E+01 0.  1.
         -5    1    3    3    0  502  0.25041877623E+02  0.80791380499E+01  0.14407202432E+02  0.30288743593E+02  0.41800000000E+01 0.  1.
        -11    1    1    2    0    0  0.61083254781E+02  0.66542671985E+02  0.26841367174E+02  0.94231365274E+02  0.00000000000E+00 0.  1.
         11    1    1    2    0    0  0.74092125336E+01 -0.24935506416E+02 -0.12691013998E+02  0.28943699607E+02  0.00000000000E+00 0. -1.
</event>
<event>
 7    1  0.2686828E-009  0.1221330E+03  0.7561462E-02  0.1239619E+00
         -1   -1    0    0    0  501 -0.00000000000E+00  0.00000000000E+00  0.26779503764E+03  0.26779503764E+03  0.00000000000E+00 0.  1.
          1   -1    0    0  501    0  0.00000000000E+00 -0.00000000000E+00 -0.99556196015E+02  0.99556196015E+02  0.00000000000E+00 0. -1.
         25    2    1    2    0    0  0.11050857844E+03  0.32489161788E+02  0.47068250583E+02  0.17643573648E+03  0.12508579997E+03 0.  0.
          5    1    3    3  502    0  0.35149492347E+02 -0.15843727385E+02 -0.36966127451E+02  0.53576837239E+02  0.41800000000E+01 0. -1.
         -5    1    3    3    0  502  0.75359086091E+02  0.48332889173E+02  0.84034378034E+02  0.12285889925E+03  0.41800000000E+01 0. -1.
        -11    1    1    2    0    0 -0.59830257408E+02 -0.24055749670E+02  0.12367737188E+03  0.13947914220E+03  0.00000000000E+00 0.  1.
         11    1    1    2    0    0 -0.50678321030E+02 -0.84334121180E+01 -0.25067808401E+01  0.51436354970E+02  0.00000000000E+00 0. -1.
</event>
<event>
 7    1  0.2686828E-009  0.1107651E+03  0.7561462E-02  0.1259160E+00
         -1   -1    0    0    0  501 -0.00000000000E+00  0.00000000000E+00  0.21616483375E+03  0.21616483375E+03  0.00000000000E+00 0.  1.
          1   -1    0    0  501    0  0.00000000000E+00 -0.00000000000E+00 -0.68384390120E+02  0.68384390120E+02  0.00000000000E+00 0. -1.
         25    2    1    2    0    0 -0.24762731578E+02  0.37434308347E+02  0.53267409688E+02  0.14316912189E+03  0.12508181407E+03 0.  0.
          5    1    3    3  502    0  0.26621840424E+02  0.55554974988E+02  0.62376552966E+02  0.87768926126E+02  0.41800000000E+01 0.  1.
         -5    1    3    3    0  502 -0.51384572001E+02 -0.18120666641E+02 -0.91091432784E+01  0.55400195762E+02  0.41800000000E+01 0.  1.
        -11    1    1    2    0    0 -0.26840684444E+02 -0.45580050163E+02  0.46702791965E+02  0.70562837893E+02  0.00000000000E+00 0. -1.
         11    1    1    2    0    0  0.51603416022E+02  0.81457418155E+01  0.47810241974E+02  0.70817264084E+02  0.00000000000E+00 0.  1.
</event>
<event>
 7    1  0.2686828E-009  0.6976479E+02  0.7561462E-02  0.1360895E+00
          3   -1    0    0  501    0  0.00000000000E+00  0.00000000000E+00  0.22444000240E+03  0.22444000240E+03  0.00000000000E+00 0. -1.
         -3   -1    0    0    0  501 -0.00000000000E+00 -0.00000000000E+00 -0.69333325764E+02  0.69333325764E+02  0.00000000000E+00 0.  1.
         25    2    1    2    0    0 -0.24237487335E+02 -0.15604917032E+02  0.23077379750E+02  0.13042642241E+03  0.12509003548E+03 0.  0.
          5    1    3    3  502    0  0.30775836930E+00 -0.25533714715E+02  0.70971524369E+02  0.75541346120E+02  0.41800000000E+01 0. -1.
         -5    1    3    3    0  502 -0.24545245704E+02  0.99287976830E+01 -0.47894144619E+02  0.54885076286E+02  0.41800000000E+01 0. -1.
        -11    1    1    2    0    0  0.53508938188E+00  0.47282400546E+02  0.10577954117E+03  0.11586726480E+03  0.00000000000E+00 0. -1.
         11    1    1    2    0    0  0.23702397953E+02 -0.31677483513E+02  0.26249755714E+02  0.47479640958E+02  0.00000000000E+00 0.  1.
</event>
<event>
 7    1  0.2686828E-009  0.1886321E+03  0.7561462E-02  0.1159701E+00
          2   -1    0    0  501    0  0.00000000000E+00  0.00000000000E+00  0.45680437318E+03  0.45680437318E+03  0.00000000000E+00 0. -1.
         -2   -1    0    0    0  501 -0.00000000000E+00 -0.00000000000E+00 -0.10960088674E+03  0.10960088674E+03  0.00000000000E+00 0.  1.
         25    2    1    2    0    0 -0.73520561481E+02 -0.16321011744E+03  0.27858054681E+03  0.35397445213E+03  0.12509187146E+03 0.  0.
          5    1    3    3  502    0 -0.37449235678E+02 -0.14884503859E+02  0.52159406088E+01  0.40849383648E+02  0.41800000000E+01 0.  1.
         -5    1    3    3    0  502 -0.36071325803E+02 -0.14832561358E+03  0.27336460620E+03  0.31312506848E+03  0.41800000000E+01 0.  1.
        -11    1    1    2    0    0  0.36861735707E+02  0.12804406872E+03  0.86177812792E+02  0.15868423524E+03  0.00000000000E+00 0. -1.
         11    1    1    2    0    0  0.36658825774E+02  0.35166048714E+02 -0.17554873170E+02  0.53746572554E+02  0.00000000000E+00 0.  1.
</event>
<event>
 7    1  0.2686828E-009  0.9578286E+02  0.7561462E-02  0.1289423E+00
         -2   -1    0    0    0  501 -0.00000000000E+00  0.00000000000E+00  0.19133296350E+02  0.19133296350E+02  0.00000000000E+00 0.  1.
          2   -1    0    0  501    0  0.00000000000E+00 -0.00000000000E+00 -0.68815610882E+03  0.68815610882E+03  0.00000000000E+00 0. -1.
         25    2    1    2    0    0 -0.29867366445E+02 -0.22730926221E+02 -0.35718832827E+03  0.38031528086E+03  0.12508979343E+03 0.  0.
          5    1    3    3  502    0 -0.11028886337E+02  0.47886714730E+02 -0.83228892378E+02  0.96743447881E+02  0.41800000000E+01 0. -1.
         -5    1    3    3    0  502 -0.18838480108E+02 -0.70617640951E+02 -0.27395943589E+03  0.28357183298E+03  0.41800000000E+01 0. -1.
        -11    1    1    2    0    0 -0.35333453118E+01 -0.16869664871E+02 -0.84451309119E+01  0.19193497807E+02  0.00000000000E+00 0.  1.
         11    1    1    2    0    0  0.33400711756E+02  0.39600591093E+02 -0.30338935328E+03  0.30778062649E+03  0.00000000000E+00 0. -1.
</event>
<event>
 7    1  0.2686828E-009  0.1182895E+03  0.7561462E-02  0.1245946E+00
         -2   -1    0    0    0  501 -0.00000000000E+00  0.00000000000E+00  0.69800947433E+02  0.69800947433E+02  0.00000000000E+00 0.  1.
          2   -1    0    0  501    0  0.00000000000E+00 -0.00000000000E+00 -0.25777549508E+03  0.25777549508E+03  0.00000000000E+00 0. -1.
         25    2    1    2    0    0 -0.43528001284E+02  0.18839284846E+02 -0.17905789257E+03  0.22351526984E+03  0.12509093256E+03 0.  0.
          5    1    3    3  502    0 -0.38595677747E+02  0.71132443846E+02 -0.11156749301E+03  0.13789209116E+03  0.41800000000E+01 0. -1.
         -5    1    3    3    0  502 -0.49323235373E+01 -0.52293159001E+02 -0.67490399562E+02  0.85623178677E+02  0.41800000000E+01 0. -1.
        -11    1    1    2    0    0 -0.21873023166E+02 -0.29357257169E+02 -0.94803413949E+01  0.37817384413E+02  0.00000000000E+00 0.  1.
         11    1    1    2    0    0  0.65401024450E+02  0.10517972323E+02  0.56368632035E+00  0.66243788261E+02  0.00000000000E+00 0. -1.
</event>
<event>
 7    1  0.2686828E-009  0.1339002E+03  0.7561462E-02  0.1221781E+00
          2   -1    0    0  501    0  0.00000000000E+00  0.00000000000E+00  0.11242893673E+04  0.11242893673E+04  0.00000000000E+00 0. -1.
         -2   -1    0    0    0  501 -0.00000000000E+00 -0.00000000000E+00 -0.24522195009E+02  0.24522195009E+02  0.00000000000E+00 0.  1.
         25    2    1    2    0    0  0.95949318355E+02  0.16697593160E+02  0.86028684249E+03  0.87477207596E+03  0.12509057606E+03 0.  0.
          5    1    3    3  502    0  0.47877472936E+02  0.55255845902E+02  0.22792398394E+03  0.23939982409E+03  0.41800000000E+01 0.  1.
         -5    1    3    3    0  502  0.48071845419E+02 -0.38558252742E+02  0.63236285855E+03  0.63537225187E+03  0.41800000000E+01 0.  1.
        -11    1    1    2    0    0 -0.94704747539E+02  0.19409515853E+02  0.18362059271E+03  0.20751443463E+03  0.00000000000E+00 0.  1.
         11    1    1    2    0    0 -0.12445708155E+01 -0.36107109014E+02  0.55859737096E+02  0.66525051719E+02  0.00000000000E+00 0. -1.
</event>
<event>
 7    1  0.2686828E-009  0.1809695E+03  0.7561462E-02  0.1166868E+00
          1   -1    0    0  501    0  0.00000000000E+00  0.00000000000E+00  0.38423483006E+03  0.38423483006E+03  0.00000000000E+00 0. -1.
         -1   -1    0    0    0  501 -0.00000000000E+00 -0.00000000000E+00 -0.98183664936E+02  0.98183664936E+02  0.00000000000E+00 0.  1.
         25    2    1    2    0    0  0.70061994139E+02 -0.13283374000E+03  0.80668593249E+02  0.21143889170E+03  0.12508196305E+03 0.  0.
          5    1    3    3  502    0  0.98966858519E+02 -0.76911610934E+02  0.26258799515E+02  0.12812818555E+03  0.41800000000E+01 0. -1.
         -5    1    3    3    0  502 -0.28904864380E+02 -0.55922129061E+02  0.54409793734E+02  0.83310706141E+02  0.41800000000E+01 0. -1.
        -11    1    1    2    0    0 -0.41124254232E+02  0.13804295506E+03  0.14810846609E+03  0.20659907903E+03  0.00000000000E+00 0.  1.
         11    1    1    2    0    0 -0.28937739907E+02 -0.52092150599E+01  0.57274105786E+02  0.64380524276E+02  0.00000000000E+00 0. -1.
</event>
<event>
 7    1  0.2686828E-009  0.8850001E+02  0.7561462E-02  0.1306525E+00
         -2   -1    0    0    0  501 -0.00000000000E+00  0.00000000000E+00  0.17604054451E+03  0.17604054451E+03  0.00000000000E+00 0.  1.
          2   -1    0    0  501    0  0.00000000000E+00 -0.00000000000E+00 -0.86890590010E+02  0.86890590010E+02  0.00000000000E+00 0. -1.
         25    2    1    2    0    0 -0.39677844804E+02  0.44933863006E+02  0.56349742666E+02  0.14972782556E+03  0.12509894018E+03 0.  0.
          5    1    3    3  502    0 -0.36427234122E+02  0.13761736086E+02  0.93246185028E+02  0.10113679938E+03  0.41800000000E+01 0. -1.
         -5    1    3    3    0  502 -0.32506106826E+01  0.31172126920E+02 -0.36896442362E+02  0.48591026183E+02  0.41800000000E+01 0. -1.
        -11    1    1    2    0    0  0.57566365655E+02  0.30837782749E+00  0.28852778554E+02  0.64393046068E+02  0.00000000000E+00 0.  1.
         11    1    1    2    0    0 -0.17888520851E+02 -0.45242240834E+02  0.39474332770E+01  0.48810262890E+02  0.00000000000E+00 0. -1.
</event>
<event>
 7    1  0.2686828E-009  0.1089472E+03  0.7561462E-02  0.1262532E+00
         -1   -1    0    0    0  501 -0.00000000000E+00  0.00000000000E+00  0.96741240240E+02  0.96741240240E+02  0.00000000000E+00 0.  1.
          1   -1    0    0  501    0  0.00000000000E+00 -0.00000000000E+00 -0.19604070258E+03  0.19604070258E+03  0.00000000000E+00 0. -1.
         25    2    1    2    0    0 -0.37722519830E+02 -0.29313964919E+02  0.20955149530E+02  0.13553391249E+03  0.12509207049E+03 0.  0.
          5    1    3    3  502    0 -0.64312523928E+02  0.22342687022E+02 -0.11004982389E+02  0.69093258968E+02  0.41800000000E+01 0. -1.
         -5    1    3    3    0  502  0.26590004099E+02 -0.51656651941E+02  0.31960131919E+02  0.66440653518E+02  0.41800000000E+01 0. -1.
        -11    1    1    2    0    0  0.58110820009E+02  0.30567765463E+01 -0.10631864569E+03  0.12120175621E+03  0.00000000000E+00 0. -1.
         11    1    1    2    0    0 -0.20388300179E+02  0.26257188373E+02 -0.13935966177E+02  0.36046274131E+02  0.00000000000E+00 0.  1.
</event>
<event>
 7    1  0.2686828E-009  0.1155915E+03  0.7561462E-02  0.1250552E+00
          1   -1    0    0  501    0  0.00000000000E+00  0.00000000000E+00  0.12273836376E+04  0.12273836376E+04  0.00000000000E+00 0. -1.
         -1   -1    0    0    0  501 -0.00000000000E+00 -0.00000000000E+00 -0.12256239874E+02  0.12256239874E+02  0.00000000000E+00 0.  1.
         25    2    1    2    0    0  0.32569623929E+02 -0.38730096162E+02  0.77545684676E+03  0.78710952055E+03  0.12508906986E+03 0.  0.
          5    1    3    3  502    0  0.77809044642E+02 -0.34894983299E+02  0.58918560928E+03  0.59533945096E+03  0.41800000000E+01 0. -1.
         -5    1    3    3    0  502 -0.45239420713E+02 -0.38351128633E+01  0.18627123748E+03  0.19177006959E+03  0.41800000000E+01 0. -1.
        -11    1    1    2    0    0  0.21077491713E+02  0.41443821189E+02  0.12624068397E+03  0.13453089333E+03  0.00000000000E+00 0.  1.
         11    1    1    2    0    0 -0.53647115642E+02 -0.27137250263E+01  0.31342986695E+03  0.31799946355E+03  0.00000000000E+00 0. -1.
</event>
<event>
 7    1  0.2686828E-009  0.1140487E+03  0.7561462E-02  0.1253251E+00
         -2   -1    0    0    0  501 -0.00000000000E+00  0.00000000000E+00  0.40366388063E+02  0.40366388063E+02  0.00000000000E+00 0.  1.
          2   -1    0    0  501    0  0.00000000000E+00 -0.00000000000E+00 -0.39900057135E+03  0.39900057135E+03  0.00000000000E+00 0. -1.
         25    2    1    2    0    0  0.23914293938E+00 -0.56791027295E+02 -0.26008599563E+03  0.29414038240E+03  0.12509421036E+03 0.  0.
          5    1    3    3  502    0 -0.55813872180E+02 -0.57088772261E+02 -0.17160733557E+03  0.18931684095E+03  0.41800000000E+01 0.  1.
         -5    1    3    3    0  502  0.56053015119E+02  0.29774496626E+00 -0.88478660068E+02  0.10482354146E+03  0.41800000000E+01 0.  1.
        -11    1    1    2    0    0  0.15076587146E+02 -0.13354796700E+02  0.35088080747E+01  0.20444212114E+02  0.00000000000E+00 0.  1.
         11    1    1    2    0    0 -0.15315730085E+02  0.70145823995E+02 -0.10205699573E+03  0.12478236489E+03  0.00000000000E+00 0. -1.
</event>
<event>
 7    1  0.2686828E-009  0.1616976E+03  0.7561462E-02  0.1186793E+00
         -1   -1    0    0    0  501 -0.00000000000E+00  0.00000000000E+00  0.12196585672E+04  0.12196585672E+04  0.00000000000E+00 0.  1.
          1   -1    0    0  501    0  0.00000000000E+00 -0.00000000000E+00 -0.28170261640E+02  0.28170261640E+02  0.00000000000E+00 0. -1.
         25    2    1    2    0    0  0.10817809119E+03 -0.57078667786E+02  0.92805413008E+03  0.94439987085E+03  0.12508466721E+03 0.  0.
          5    1    3    3  502    0  0.19745249407E+02 -0.79194487876E+02  0.50959542217E+03  0.51610716763E+03  0.41800000000E+01 0. -1.
         -5    1    3    3    0  502  0.88432841778E+02  0.22115820089E+02  0.41845870791E+03  0.42829270322E+03  0.41800000000E+01 0. -1.
        -11    1    1    2    0    0  0.47438061083E+01  0.35046528694E+02  0.56269436479E+02  0.66460607517E+02  0.00000000000E+00 0. -1.
         11    1    1    2    0    0 -0.11292189729E+03  0.22032139093E+02  0.20716473901E+03  0.23696835048E+03  0.00000000000E+00 0.  1.
</event>
<event>
 7    1  0.2686828E-009  0.2586370E+03  0.7561462E-02  0.1107965E+00
          2   -1    0    0  501    0  0.00000000000E+00  0.00000000000E+00  0.54485783899E+03  0.54485783899E+03  0.00000000000E+00 0. -1.
         -2   -1    0    0    0  501 -0.00000000000E+00 -0.00000000000E+00 -0.14568224697E+03  0.14568224697E+03  0.00000000000E+00 0.  1.
         25    2    1    2    0    0 -0.19458008657E+03  0.15722195338E+03  0.28854266108E+03  0.40185137682E+03  0.12509000390E+03 0.  0.
          5    1    3    3  502    0 -0.24544769482E+02  0.51443090669E+02  0.88452641875E+01  0.57832070559E+02  0.41800000000E+01 0. -1.
         -5    1    3    3    0  502 -0.17003531708E+03  0.10577886271E+03  0.27969739690E+03  0.34401930627E+03  0.41800000000E+01 0. -1.
        -11    1    1    2    0    0  0.46114210416E+02 -0.37063116829E+01 -0.37652855729E+01  0.46415886548E+02  0.00000000000E+00 0.  1.
         11    1    1    2    0    0  0.14846587615E+03 -0.15351564170E+03  0.11439821651E+03  0.24227282259E+03  0.00000000000E+00 0. -1.
</event>
<event>
 7    1  0.2686828E-009  0.6283825E+02  0.7561462E-02  0.1386293E+00
          1   -1    0    0  501    0  0.00000000000E+00  0.00000000000E+00  0.24446454690E+03  0.24446454690E+03  0.00000000000E+00 0. -1.
         -1   -1    0    0    0  501 -0.00000000000E+00 -0.00000000000E+00 -0.63762763401E+02  0.63762763401E+02  0.00000000000E+00 0.  1.
         25    2    1    2    0    0 -0.45148198992E+02  0.25433750582E+02  0.13982459932E+03  0.19463885603E+03  0.12509248642E+03 0.  0.
          5    1    3    3  502    0  0.66179401021E+01  0.53461367366E+01 -0.21756608609E+02  0.23731850483E+02  0.41800000000E+01 0. -1.
         -5    1    3    3    0  502 -0.51766139094E+02  0.20087613846E+02  0.16158120793E+03  0.17090700554E+03  0.41800000000E+01 0. -1.
        -11    1    1    2    0    0  0.14585900762E+02  0.68009434750E+01 -0.27609668875E+02  0.31957708750E+02  0.00000000000E+00 0.  1.
         11    1    1    2    0    0  0.30562298230E+02 -0.32234694057E+02  0.68486853048E+02  0.81630745522E+02  0.00000000000E+00 0. -1.
</event>
<event>
 7    1  0.2686828E-009  0.8095540E+02  0.7561462E-02  0.1326362E+00
         -2   -1    0    0    0  501 -0.00000000000E+00  0.00000000000E+00  0.97308852382E+02  0.97308852382E+02  0.00000000000E+00 0.  1.
          2   -1    0    0  501    0  0.00000000000E+00 -0.00000000000E+00 -0.15342733646E+03  0.15342733646E+03  0.00000000000E+00 0. -1.
         25    2    1    2    0    0  0.84299057242E+01 -0.32744488416E+02  0.17340143488E+02  0.13073427580E+03  0.12508998945E+03 0.  0.
          5    1    3    3  502    0 -0.25913440946E+02 -0.18367220250E+02 -0.46645299089E+02  0.56587255883E+02  0.41800000000E+01 0.  1.
         -5    1    3    3    0  502  0.34343346670E+02 -0.14377268166E+02  0.63985442577E+02  0.74147019914E+02  0.41800000000E+01 0.  1.
        -11    1    1    2    0    0  0.33453791150E+02 -0.75438079642E+01 -0.14553648243E+02  0.37254179069E+02  0.00000000000E+00 0.  1.
         11    1    1    2    0    0 -0.41883696874E+02  0.40288296380E+02 -0.58904979323E+02  0.82747733976E+02  0.00000000000E+00 0. -1.
</event>
<event>
 7    1  0.2686828E-009  0.2039882E+03  0.7561462E-02  0.1146417E+00
         -2   -1    0    0    0  501 -0.00000000000E+00  0.00000000000E+00  0.16118605983E+03  0.16118605983E+03  0.00000000000E+00 0.  1.
          2   -1    0    0  501    0  0.00000000000E+00 -0.00000000000E+00 -0.31342815611E+03  0.31342815611E+03  0.00000000000E+00 0. -1.
         25    2    1    2    0    0 -0.19479060694E+03 -0.11427420942E+02 -0.49917925197E+02  0.23708621588E+03  0.12507640867E+03 0.  0.
          5    1    3    3  502    0 -0.81904563455E+02 -0.32407738029E+02  0.34313266975E+02  0.94622891995E+02  0.41800000000E+01 0. -1.
         -5    1    3    3    0  502 -0.11288604348E+03  0.20980317087E+02 -0.84231192172E+02  0.14246332389E+03  0.41800000000E+01 0. -1.
        -11    1    1    2    0    0  0.13218009824E+03 -0.21882401898E+02 -0.98895254572E+02  0.16652534120E+03  0.00000000000E+00 0. -1.
         11    1    1    2    0    0  0.62610508697E+02  0.33309822841E+02 -0.34289165078E+01  0.71002658861E+02  0.00000000000E+00 0.  1.
</event>
<event>
 7    1  0.2686828E-009  0.2446120E+03  0.7561462E-02  0.1116758E+00
          2   -1    0    0  501    0  0.00000000000E+00  0.00000000000E+00  0.13721086071E+04  0.13721086071E+04  0.00000000000E+00 0. -1.
         -2   -1    0    0    0  501 -0.00000000000E+00 -0.00000000000E+00 -0.11204392384E+03  0.11204392384E+03  0.00000000000E+00 0.  1.
         25    2    1    2    0    0  0.22222190382E+03  0.80379001515E+02  0.11902579357E+04  0.12199202834E+04  0.12509270869E+03 0.  0.
          5    1    3    3  502    0  0.84722301751E+02  0.26145976220E+02  0.20174001544E+03  0.22040414405E+03  0.41800000000E+01 0.  1.
         -5    1    3    3    0  502  0.13749960207E+03  0.54233025295E+02  0.98851792029E+03  0.99951613931E+03  0.41800000000E+01 0.  1.
        -11    1    1    2    0    0 -0.20555245973E+03 -0.40684064404E+02  0.70770701407E+02  0.22116848549E+03  0.00000000000E+00 0. -1.
         11    1    1    2    0    0 -0.16669444091E+02 -0.39694937111E+02 -0.96395387814E+00  0.43063762093E+02  0.00000000000E+00 0.  1.
</event>
<event>
 7    1  0.2686828E-009  0.9255197E+02  0.7561462E-02  0.1296787E+00
          2   -1    0    0  501    0  0.00000000000E+00  0.00000000000E+00  0.44469677367E+02  0.44469677367E+02  0.00000000000E+00 0. -1.
         -2   -1    0    0    0  501 -0.00000000000E+00 -0.00000000000E+00 -0.43547313175E+03  0.43547313175E+03  0.00000000000E+00 0.  1.
         25    2    1    2    0    0  0.44175241738E+02 -0.14243922683E+02 -0.33908730897E+03  0.36439322633E+03  0.12509148243E+03 0.  0.
          5    1    3    3  502    0 -0.81085168726E+01 -0.39600180931E+02 -0.31714326558E+02  0.51547970713E+02  0.41800000000E+01 0.  1.
         -5    1    3    3    0  502  0.52283758611E+02  0.25356258247E+02 -0.30737298241E+03  0.31284525562E+03  0.41800000000E+01 0.  1.
        -11    1    1    2    0    0 -0.50365325370E+02 -0.17916972057E+02  0.82864296951E+00  0.53463731038E+02  0.00000000000E+00 0. -1.
         11    1    1    2    0    0  0.61900836316E+01  0.32160894740E+02 -0.52744788389E+02  0.62085851754E+02  0.00000000000E+00 0.  1.
</event>
<event>
 7    1  0.2686828E-009  0.6432211E+02  0.7561462E-02  0.1380540E+00
         -2   -1    0    0    0  501 -0.00000000000E+00  0.00000000000E+00  0.81935143910E+02  0.81935143910E+02  0.00000000000E+00 0.  1.
          2   -1    0    0  501    0  0.00000000000E+00 -0.00000000000E+00 -0.15473566519E+03  0.15473566519E+03  0.00000000000E+00 0. -1.
         25    2    1    2    0    0 -0.15336441690E+02  0.18887719468E+02 -0.30122135445E+02  0.13094510951E+03  0.12508927320E+03 0.  0.
          5    1    3    3  502    0  0.79990416814E+01  0.20035967300E+02  0.46123402900E+02  0.51090755999E+02  0.41800000000E+01 0. -1.
         -5    1    3    3    0  502 -0.23335483372E+02 -0.11482478323E+01 -0.76245538344E+02  0.79854353511E+02  0.41800000000E+01 0. -1.
        -11    1    1    2    0    0 -0.16229472350E+02  0.24433825932E+02 -0.43085061078E+02  0.52122261180E+02  0.00000000000E+00 0. -1.
         11    1    1    2    0    0  0.31565914040E+02 -0.43321545400E+02  0.40667523930E+00  0.53603438414E+02  0.00000000000E+00 0.  1.
</event>
<event>
 7    1  0.2686828E-009  0.1072527E+03  0.7561462E-02  0.1265744E+00
         -3   -1    0    0    0  501 -0.00000000000E+00  0.00000000000E+00  0.47510639753E+02  0.47510639753E+02  0.00000000000E+00 0.  1.
          3   -1    0    0  501    0  0.00000000000E+00 -0.00000000000E+00 -0.32649812767E+03  0.32649812767E+03  0.00000000000E+00 0. -1.
         25    2    1    2    0    0  0.27839831191E+01 -0.43583306396E+02 -0.22394431915E+03  0.26020230878E+03  0.12508768228E+03 0.  0.
          5    1    3    3  502    0 -0.58935567141E+02 -0.36445992663E+02 -0.13223694568E+03  0.14935124257E+03  0.41800000000E+01 0.  1.
         -5    1    3    3    0  502  0.61719550260E+02 -0.71373137336E+01 -0.91707373472E+02  0.11085106621E+03  0.41800000000E+01 0.  1.
        -11    1    1    2    0    0  0.16777073007E+02  0.56787075170E+02 -0.65233373365E+02  0.88100142370E+02  0.00000000000E+00 0. -1.
         11    1    1    2    0    0 -0.19561056126E+02 -0.13203768774E+02  0.10190204593E+02  0.25706316272E+02  0.00000000000E+00 0.  1.
</event>
<event>
 7    1  0.2686828E-009  0.9976682E+02  0.7561462E-02  0.1280787E+00
          2   -1    0    0  501    0  0.00000000000E+00  0.00000000000E+00  0.31265102200E+03  0.31265102200E+03  0.00000000000E+00 0. -1.
         -2   -1    0    0    0  501 -0.00000000000E+00 -0.00000000000E+00 -0.40203283765E+02  0.40203283765E+02  0.00000000000E+00 0.  1.
         25    2    1    2    0    0 -0.20341083783E+02 -0.30573079912E+02  0.15211067994E+03  0.20033012696E+03  0.12508408337E+03 0.  0.
          5    1    3    3  502    0  0.41891925015E+02  0.21487185452E+02  0.40271203932E+02  0.62095690561E+02  0.41800000000E+01 0. -1.
         -5    1    3    3    0  502 -0.62233008798E+02 -0.52060265363E+02  0.11183947601E+03  0.13823443640E+03  0.41800000000E+01 0. -1.
        -11    1    1    2    0    0  0.40200579312E+02  0.80574053747E+01  0.11492260902E+03  0.12201727100E+03  0.00000000000E+00 0. -1.
         11    1    1    2    0    0 -0.19859495529E+02  0.22515674537E+02  0.54144492724E+01  0.30506907799E+02  0.00000000000E+00 0.  1.
</event>
<event>
 7    1  0.2686828E-009  0.9090191E+02  0.7561462E-02  0.1300682E+00
         -1   -1    0    0    0  501 -0.00000000000E+00  0.00000000000E+00  0.27132339040E+02  0.27132339040E+02  0.00000000000E+00 0.  1.
          1   -1    0    0  501    0  0.00000000000E+00 -0.00000000000E+00 -0.44472236738E+03  0.44472236738E+03  0.00000000000E+00 0. -1.
         25    2    1    2    0    0 -0.31645563600E+02 -0.87283437671E+01 -0.24506326248E+03  0.27709453030E+03  0.12509096860E+03 0.  0.
          5    1    3    3  502    0  0.11544814707E+02  0.36856109484E+02 -0.18854834984E+03  0.19250872235E+03  0.41800000000E+01 0. -1.
         -5    1    3    3    0  502 -0.43190378307E+02 -0.45584453251E+02 -0.56514912641E+02  0.84585807955E+02  0.41800000000E+01 0. -1.
        -11    1    1    2    0    0 -0.15068941162E+00 -0.29950433192E+02 -0.25149047036E+02  0.39109151391E+02  0.00000000000E+00 0.  1.
         11    1    1    2    0    0  0.31796253012E+02  0.38678776959E+02 -0.14737771882E+03  0.15565102472E+03  0.00000000000E+00 0. -1.
</event>
<event>
 7    1  0.2686828E-009  0.1500402E+03  0.7561462E-02  0.1200424E+00
          2   -1    0    0  501    0  0.00000000000E+00  0.00000000000E+00  0.78248888191E+03  0.78248888191E+03  0.00000000000E+00 0. -1.
         -2   -1    0    0    0  501 -0.00000000000E+00 -0.00000000000E+00 -0.39659562496E+02  0.39659562496E+02  0.00000000000E+00 0.  1.
         25    2    1    2    0    0  0.12131366254E+03  0.24877509236E+02  0.25401636350E+03  0.30904284744E+03  0.12508906205E+03 0.  0.
          5    1    3    3  502    0 -0.18368104382E+01  0.20253695005E+02 -0.57090152142E+01  0.21532563448E+02  0.41800000000E+01 0. -1.
         -5    1    3    3    0  502  0.12315047298E+03  0.46238142312E+01  0.25972537872E+03  0.28751028399E+03  0.41800000000E+01 0. -1.
        -11    1    1    2    0    0 -0.69746618226E+02 -0.61317215376E+02  0.29086730953E+03  0.30533290588E+03  0.00000000000E+00 0. -1.
         11    1    1    2    0    0 -0.51567044311E+02  0.36439706140E+02  0.19794564637E+03  0.20777269108E+03  0.00000000000E+00 0.  1.
</event>
<event>
 7    1  0.2686828E-009  0.5585793E+02  0.7561462E-02  0.1416085E+00
         -2   -1    0    0    0  501 -0.00000000000E+00  0.00000000000E+00  0.79407308984E+02  0.79407308984E+02  0.00000000000E+00 0.  1.
          2   -1    0    0  501    0  0.00000000000E+00 -0.00000000000E+00 -0.17152247115E+03  0.17152247115E+03  0.00000000000E+00 0. -1.
         25    2    1    2    0    0  0.28849724433E+02 -0.28523280219E+02 -0.63345857649E+02  0.14596471839E+03  0.12508843759E+03 0.  0.
          5    1    3    3  502    0  0.31181508347E+02  0.30067941234E+01  0.32271554887E+02  0.45169159042E+02  0.41800000000E+01 0.  1.
         -5    1    3    3    0  502 -0.23317839139E+01 -0.31530074343E+02 -0.95617412537E+02  0.10079555935E+03  0.41800000000E+01 0.  1.
        -11    1    1    2    0    0 -0.28322088523E+02  0.10524632075E+02  0.30553291981E+02  0.42969899110E+02  0.00000000000E+00 0.  1.
         11    1    1    2    0    0 -0.52763591043E+00  0.17998648144E+02 -0.59322596496E+02  0.61995162632E+02  0.00000000000E+00 0. -1.
</event>
<event>
 7    1  0.2686828E-009  0.1268167E+03  0.7561462E-02  0.1232257E+00
          2   -1    0    0  501    0  0.00000000000E+00  0.00000000000E+00  0.16479582364E+04  0.16479582364E+04  0.00000000000E+00 0. -1.
         -2   -1    0    0    0  501 -0.00000000000E+00 -0.00000000000E+00 -0.11600850130E+02  0.11600850130E+02  0.00000000000E+00 0.  1.
         25    2    1    2    0    0  0.18749717237E+02  0.77181778614E+02  0.10643932087E+04  0.10746578040E+04  0.12509162357E+03 0.  0.
          5    1    3    3  502    0 -0.34740905435E+01  0.10153794314E+03  0.55899829678E+03  0.56817126943E+03  0.41800000000E+01 0.  1.
         -5    1    3    3    0  502  0.22223807781E+02 -0.24356164528E+02  0.50539491189E+03  0.50648653462E+03  0.41800000000E+01 0.  1.
        -11    1    1    2    0    0 -0.19523697860E+02  0.16175701588E+02  0.72991509905E+02  0.77269584043E+02  0.00000000000E+00 0.  1.
         11    1    1    2    0    0  0.77398062276E+00 -0.93357480201E+02  0.49897266765E+03  0.50763169840E+03  0.00000000000E+00 0. -1.
</event>
<event>
 7    1  0.2686828E-009  0.1416092E+03  0.7561462E-02  0.1211180E+00
         -1   -1    0    0    0  501 -0.00000000000E+00  0.00000000000E+00  0.14964695329E+04  0.14964695329E+04  0.00000000000E+00 0.  1.
          1   -1    0    0  501    0  0.00000000000E+00 -0.00000000000E+00 -0.23951982614E+02  0.23951982614E+02  0.00000000000E+00 0. -1.
         25    2    1    2    0    0 -0.97852372214E+02 -0.42386737220E+02  0.12786542436E+04  0.12891763068E+04  0.12508858173E+03 0.  0.
          5    1    3    3  502    0 -0.10603857897E+03  0.11303762854E+02  0.95827517987E+03  0.96419953746E+03  0.41800000000E+01 0. -1.
         -5    1    3    3    0  502  0.81862067589E+01 -0.53690500074E+02  0.32037906370E+03  0.32497676938E+03  0.41800000000E+01 0. -1.
        -11    1    1    2    0    0  0.44028419096E+02 -0.11869923235E+02  0.45848714466E+02  0.64664529565E+02  0.00000000000E+00 0.  1.
         11    1    1    2    0    0  0.53823953119E+02  0.54256660455E+02  0.14801459225E+03  0.16658067911E+03  0.00000000000E+00 0. -1.
</event>
<event>
 7    1  0.2686828E-009  0.1055402E+03  0.7561462E-02  0.1269059E+00
          1   -1    0    0  501    0  0.00000000000E+00  0.00000000000E+00  0.95211509748E+02  0.95211509748E+02  0.00000000000E+00 0. -1.
         -1   -1    0    0    0  501 -0.00000000000E+00 -0.00000000000E+00 -0.21640287516E+03  0.21640287516E+03  0.00000000000E+00 0.  1.
         25    2    1    2    0    0  0.80016648157E+02  0.28099328830E+02 -0.10950588483E+03  0.18663285814E+03  0.12509216067E+03 0.  0.
          5    1    3    3  502    0  0.27629202439E+02  0.21186153219E+02  0.24331051014E+02  0.42681358450E+02  0.41800000000E+01 0.  1.
         -5    1    3    3    0  502  0.52387445718E+02  0.69131756110E+01 -0.13383693585E+03  0.14395149969E+03  0.41800000000E+01 0.  1.
        -11    1    1    2    0    0  0.15518333790E+02  0.11779236960E+02 -0.89022166561E+01  0.21420050615E+02  0.00000000000E+00 0.  1.
         11    1    1    2    0    0 -0.95534981947E+02 -0.39878565790E+02 -0.27832639221E+01  0.10356147615E+03  0.00000000000E+00 0. -1.
</event>
<event>
 7    1  0.2686828E-009  0.2236630E+03  0.7561462E-02  0.1131181E+00
          2   -1    0    0  501    0  0.00000000000E+00  0.00000000000E+00  0.61597376020E+03  0.61597376020E+03  0.00000000000E+00 0. -1.
         -2   -1    0    0    0  501 -0.00000000000E+00 -0.00000000000E+00 -0.93467735034E+02  0.93467735034E+02  0.00000000000E+00 0.  1.
         25    2    1    2    0    0 -0.20802068661E+03  0.99625771466E+01  0.34752281020E+03  0.42401836169E+03  0.12509040104E+03 0.  0.
          5    1    3    3  502    0 -0.50938624380E+02  0.52509508647E+02  0.15807124229E+03  0.17422968171E+03  0.41800000000E+01 0. -1.
         -5    1    3    3    0  502 -0.15708206223E+03 -0.42546931500E+02  0.18945156792E+03  0.24978867997E+03  0.41800000000E+01 0. -1.
        -11    1    1    2    0    0  0.75352923787E+02  0.13426729422E+02  0.11456642274E+03  0.13778173103E+03  0.00000000000E+00 0. -1.
         11    1    1    2    0    0  0.13266776283E+03 -0.23389306569E+02  0.60416792219E+02  0.14764140252E+03  0.00000000000E+00 0.  1.
</event>
<event>
 7    1  0.2686828E-009  0.1992502E+03  0.7561462E-02  0.1150373E+00
         -1   -1    0    0    0  501 -0.00000000000E+00  0.00000000000E+00  0.29096078139E+03  0.29096078139E+03  0.00000000000E+00 0.  1.
          1   -1    0    0  501    0  0.00000000000E+00 -0.00000000000E+00 -0.17340020257E+03  0.17340020257E+03  0.00000000000E+00 0. -1.
         25    2    1    2    0    0  0.17103409082E+03 -0.91214345560E+02  0.26407352899E+02  0.23219956853E+03  0.12508626736E+03 0.  0.
          5    1    3    3  502    0  0.11503532098E+03 -0.25238550729E+02 -0.38466621912E+02  0.12396476482E+03  0.41800000000E+01 0.  1.
         -5    1    3    3    0  502  0.55998769841E+02 -0.65975794831E+02  0.64873974811E+02  0.10823480371E+03  0.41800000000E+01 0.  1.
        -11    1    1    2    0    0 -0.70285665782E+02  0.32846413303E+02  0.85697979128E+02  0.11559889839E+03  0.00000000000E+00 0.  1.
         11    1    1    2    0    0 -0.10074842504E+03  0.58367932257E+02  0.54552467934E+01  0.11656251705E+03  0.00000000000E+00 0. -1.
</event>
<event>
 7    1  0.2686828E-009  0.2436034E+03  0.7561462E-02  0.1117415E+00
         -2   -1    0    0    0  501 -0.00000000000E+00  0.00000000000E+00  0.90722653633E+02  0.90722653633E+02  0.00000000000E+00 0.  1.
          2   -1    0    0  501    0  0.00000000000E+00 -0.00000000000E+00 -0.81939730194E+03  0.81939730194E+03  0.00000000000E+00 0. -1.
         25    2    1    2    0    0  0.56976320868E+02  0.22708957101E+03 -0.51234066815E+03  0.57702427252E+03  0.12509227169E+03 0.  0.
          5    1    3    3  502    0  0.64942637491E+02  0.11530240026E+03 -0.38606568116E+03  0.40813768785E+03  0.41800000000E+01 0. -1.
         -5    1    3    3    0  502 -0.79663166236E+01  0.11178717074E+03 -0.12627498699E+03  0.16888658467E+03  0.41800000000E+01 0. -1.
        -11    1    1    2    0    0 -0.64928177160E+02 -0.13067311996E+03 -0.17510822224E+03  0.22793424922E+03  0.00000000000E+00 0. -1.
         11    1    1    2    0    0  0.79518562919E+01 -0.96416451044E+02 -0.41225757914E+02  0.10516143383E+03  0.00000000000E+00 0.  1.
</event>
<event>
 7    1  0.2686828E-009  0.9160594E+02  0.7561462E-02  0.1299009E+00
          2   -1    0    0  501    0  0.00000000000E+00  0.00000000000E+00  0.67067733909E+03  0.67067733909E+03  0.00000000000E+00 0. -1.
         -2   -1    0    0    0  501 -0.00000000000E+00 -0.00000000000E+00 -0.19065086784E+02  0.19065086784E+02  0.00000000000E+00 0.  1.
         25    2    1    2    0    0  0.12598618710E+02  0.20671478337E+02  0.30614780403E+03  0.33160189463E+03  0.12508918179E+03 0.  0.
          5    1    3    3  502    0 -0.34406437342E+02 -0.90778018257E+01  0.24963740687E+03  0.25219539394E+03  0.41800000000E+01 0. -1.
         -5    1    3    3    0  502  0.47005056052E+02  0.29749280162E+02  0.56510397155E+02  0.79406500686E+02  0.41800000000E+01 0. -1.
        -11    1    1    2    0    0 -0.33163525160E+02  0.24986462368E+02  0.20097887560E+03  0.20522341762E+03  0.00000000000E+00 0. -1.
         11    1    1    2    0    0  0.20564906450E+02 -0.45657940704E+02  0.14448557268E+03  0.15291711363E+03  0.00000000000E+00 0.  1.
</event>
<event>
 7    1  0.2686828E-009  0.1266681E+03  0.7561462E-02  0.1232485E+00
          4   -1    0    0  501    0  0.00000000000E+00  0.00000000000E+00  0.31897452188E+02  0.31897452188E+02  0.00000000000E+00 0. -1.
         -4   -1    0    0    0  501 -0.00000000000E+00 -0.00000000000E+00 -0.63265244258E+03  0.63265244258E+03  0.00000000000E+00 0.  1.
         25    2    1    2    0    0  0.44818939876E+02 -0.67984399432E+02 -0.39903516935E+03  0.42603905070E+03  0.12509832297E+03 0.  0.
          5    1    3    3  502    0  0.55909417985E+02 -0.87402312495E+02 -0.19667377528E+03  0.22240295306E+03  0.41800000000E+01 0.  1.
         -5    1    3    3    0  502 -0.11090478109E+02  0.19417913063E+02 -0.20236139407E+03  0.20363609764E+03  0.41800000000E+01 0.  1.
        -11    1    1    2    0    0 -0.62808372118E+02  0.70370217933E+01 -0.11132982412E+03  0.12801851828E+03  0.00000000000E+00 0.  1.
         11    1    1    2    0    0  0.17989432242E+02  0.60947377639E+02 -0.90389996919E+02  0.11049232578E+03  0.00000000000E+00 0. -1.
</event>
<event>
 7    1  0.2686828E-009  0.9278552E+02  0.7561462E-02  0.1296243E+00
         -2   -1    0    0    0  501 -0.00000000000E+00  0.00000000000E+00  0.12259478628E+02  0.12259478628E+02  0.00000000000E+00 0.  1.
          2   -1    0    0  501    0  0.00000000000E+00 -0.00000000000E+00 -0.13236172712E+04  0.13236172712E+04  0.00000000000E+00 0. -1.
         25    2    1    2    0    0  0.15486356597E+02 -0.64634296341E+02 -0.67696787322E+03  0.69162769073E+03  0.12508373880E+03 0.  0.
          5    1    3    3  502    0 -0.10402288491E+01  0.18771839046E+01  0.46203413417E+01  0.65898292530E+01  0.41800000000E+01 0. -1.
         -5    1    3    3    0  502  0.16526585446E+02 -0.66511480246E+02 -0.68158821456E+03  0.68503786148E+03  0.41800000000E+01 0. -1.
        -11    1    1    2    0    0  0.32584649276E+02  0.53856310137E+02 -0.36684733845E+03  0.37220858566E+03  0.00000000000E+00 0. -1.
         11    1    1    2    0    0 -0.48071005872E+02  0.10777986204E+02 -0.26754258095E+03  0.27204047348E+03  0.00000000000E+00 0.  1.
</event>
<event>
 7    1  0.3358593E-009  0.1133993E+03  0.7561462E-02  0.1254401E+00
          1   -1    0    0  501    0  0.00000000000E+00  0.00000000000E+00  0.48980458667E+03  0.48980458667E+03  0.00000000000E+00 0. -1.
         -1   -1    0    0    0  501 -0.00000000000E+00 -0.00000000000E+00 -0.38311539923E+02  0.38311539923E+02  0.00000000000E+00 0.  1.
         25    2    1    2    0    0  0.71542718483E+02  0.27852851091E+02  0.31215859286E+03  0.34494264668E+03  0.12509316736E+03 0.  0.
          5    1    3    3  502    0  0.87712649021E+02  0.26236401817E+02  0.11491055438E+03  0.14698219446E+03  0.41800000000E+01 0. -1.
         -5    1    3    3    0  502 -0.16169930538E+02  0.16164492739E+01  0.19724803848E+03  0.19796045222E+03  0.41800000000E+01 0. -1.
        -11    1    1    2    0    0 -0.57987964529E+02 -0.60025049649E+02  0.10589829086E+03  0.13483344771E+03  0.00000000000E+00 0.  1.
         11    1    1    2    0    0 -0.13554753954E+02  0.32172198558E+02  0.33436163028E+02  0.48340032197E+02  0.00000000000E+00 0. -1.
</event>
<event>
 7    1  0.2686828E-009  0.1814155E+03  0.7561462E-02  0.1166440E+00
         -2   -1    0    0    0  501 -0.00000000000E+00  0.00000000000E+00  0.25308586505E+03  0.25308586505E+03  0.00000000000E+00 0.  1.
          2   -1    0    0  501    0  0.00000000000E+00 -0.00000000000E+00 -0.15565254647E+03  0.15565254647E+03  0.00000000000E+00 0. -1.
         25    2    1    2    0    0  0.16443228094E+03  0.15431469432E+02  0.46911767406E+02  0.21242524287E+03  0.12509062565E+03 0.  0.
          5    1    3    3  502    0  0.10358951963E+03  0.39543639992E+02  0.82072813299E+02  0.13801415552E+03  0.41800000000E+01 0.  1.
         -5    1    3    3    0  502  0.60842761302E+02 -0.24112170561E+02 -0.35161045893E+02  0.74411087347E+02  0.41800000000E+01 0.  1.
        -11    1    1    2    0    0 -0.66768371751E+02 -0.49218595668E+02  0.41011387260E+02  0.92533342698E+02  0.00000000000E+00 0.  1.
         11    1    1    2    0    0 -0.97663909185E+02  0.33787126236E+02  0.95101639165E+01  0.10377982595E+03  0.00000000000E+00 0. -1.
</event>
<event>
 7    1  0.2686828E-009  0.2284084E+03  0.7561462E-02  0.1127765E+00
          1   -1    0    0  501    0  0.00000000000E+00  0.00000000000E+00  0.56544492188E+02  0.56544492188E+02  0.00000000000E+00 0. -1.
         -1   -1    0    0    0  501 -0.00000000000E+00 -0.00000000000E+00 -0.15917440201E+04  0.15917440201E+04  0.00000000000E+00 0.  1.
         25    2    1    2    0    0 -0.78377148867E+02  0.21202379027E+03 -0.12349823189E+04  0.12617158777E+04  0.12509421664E+03 0.  0.
          5    1    3    3  502    0  0.28275139258E+01  0.32498335478E+02 -0.46214066498E+02  0.56721680036E+02  0.41800000000E+01 0.  1.
         -5    1    3    3    0  502 -0.81204662792E+02  0.17952545479E+03 -0.11887682524E+04  0.12049941977E+04  0.41800000000E+01 0.  1.
        -11    1    1    2    0    0  0.37400041941E+02 -0.74685558411E+02 -0.47617977518E+02  0.96146594091E+02  0.00000000000E+00 0.  1.
         11    1    1    2    0    0  0.40977106926E+02 -0.13733823186E+03 -0.25259923146E+03  0.29042604042E+03  0.00000000000E+00 0. -1.
</event>
<event>
 7    1  0.2686828E-009  0.8875020E+02  0.7561462E-02  0.1305907E+00
          2   -1    0    0  501    0  0.00000000000E+00  0.00000000000E+00  0.18837302292E+03  0.18837302292E+03  0.00000000000E+00 0. -1.
         -2   -1    0    0    0  501 -0.00000000000E+00 -0.00000000000E+00 -0.81467180288E+02  0.81467180288E+02  0.00000000000E+00 0.  1.
         25    2    1    2    0    0  0.15227238125E+02 -0.48190996757E+02  0.24763959643E+02  0.13716627596E+03  0.12508833924E+03 0.  0.
          5    1    3    3  502    0  0.41264773818E+01 -0.59028595137E+02 -0.39274316877E+02  0.71143146020E+02  0.41800000000E+01 0.  1.
         -5    1    3    3    0  502  0.11100760743E+02  0.10837598379E+02  0.64038276520E+02  0.66023129942E+02  0.41800000000E+01 0.  1.
        -11    1    1    2    0    0  0.34046706679E+02  0.39380557913E+02  0.28674885662E+02  0.59432782578E+02  0.00000000000E+00 0.  1.
         11    1    1    2    0    0 -0.49273944804E+02  0.88104388441E+01  0.53466997333E+02  0.73241144672E+02  0.00000000000E+00 0. -1.
</event>
<event>
 7    1  0.2686828E-009  0.1150903E+03  0.7561462E-02  0.1251424E+00
         -1   -1    0    0    0  501 -0.00000000000E+00  0.00000000000E+00  0.40852641807E+03  0.40852641807E+03  0.00000000000E+00 0.  1.
          1   -1    0    0  501    0  0.00000000000E+00 -0.00000000000E+00 -0.52344607757E+02  0.52344607757E+02  0.00000000000E+00 0. -1.
         25    2    1    2    0    0  0.50109528017E+02 -0.83154383155E+02  0.21397079767E+03  0.26619359934E+03  0.12509961565E+03 0.  0.
          5    1    3    3  502    0  0.52980682631E+02 -0.39048786024E+02  0.21170558198E+03  0.22173968130E+03  0.41800000000E+01 0. -1.
         -5    1    3    3    0  502 -0.28711546141E+01 -0.44105597131E+02  0.22652156965E+01  0.44453918041E+02  0.41800000000E+01 0. -1.
        -11    1    1    2    0    0 -0.51170727586E+02  0.17363736663E+02  0.10742236808E+03  0.12024769385E+03  0.00000000000E+00 0.  1.
         11    1    1    2    0    0  0.10611995685E+01  0.65790646492E+02  0.34788644564E+02  0.74429732641E+02  0.00000000000E+00 0. -1.
</event>
<event>
 7    1  0.2686828E-009  0.1183372E+03  0.7561462E-02  0.1245866E+00
          1   -1    0    0  501    0  0.00000000000E+00  0.00000000000E+00  0.19098803625E+03  0.19098803625E+03  0.00000000000E+00 0. -1.
         -1   -1    0    0    0  501 -0.00000000000E+00 -0.00000000000E+00 -0.16586924683E+03  0.16586924683E+03  0.00000000000E+00 0.  1.
         25    2    1    2    0    0 -0.55811021997E+02 -0.51964985656E+02  0.13260451805E+03  0.19760479790E+03  0.12509383691E+03 0.  0.
          5    1    3    3  502    0  0.27648713580E+02  0.10940812435E+02  0.17410218894E+01  0.30077504826E+02  0.41800000000E+01 0. -1.
         -5    1    3    3    0  502 -0.83459735577E+02 -0.62905798092E+02  0.13086349616E+03  0.16752729307E+03  0.41800000000E+01 0. -1.
        -11    1    1    2    0    0  0.71530830489E+02  0.46905355517E+02 -0.49212638297E+02  0.98684628260E+02  0.00000000000E+00 0. -1.
         11    1    1    2    0    0 -0.15719808492E+02  0.50596301387E+01 -0.58273090325E+02  0.60567856922E+02  0.00000000000E+00 0.  1.
</event>
<event>
 7    1  0.2686828E-009  0.1222476E+03  0.7561462E-02  0.1239435E+00
          2   -1    0    0  501    0  0.00000000000E+00  0.00000000000E+00  0.16954027598E+03  0.16954027598E+03  0.00000000000E+00 0.  1.
         -2   -1    0    0    0  501 -0.00000000000E+00 -0.00000000000E+00 -0.19157934979E+03  0.19157934979E+03  0.00000000000E+00 0. -1.
         25    2    1    2    0    0 -0.32150036601E+02 -0.72387217468E+02  0.10880941102E+03  0.18373930882E+03  0.12508841502E+03 0.  0.
          5    1    3    3  502    0 -0.64591107952E+02 -0.54250453711E+01  0.20337731861E+02  0.68062751053E+02  0.41800000000E+01 0. -1.
         -5    1    3    3    0  502  0.32441071351E+02 -0.66962172097E+02  0.88471679163E+02  0.11567655776E+03  0.41800000000E+01 0. -1.
        -11    1    1    2    0    0 -0.15068835867E+02  0.51003394190E+02 -0.23442320898E+02  0.58120206834E+02  0.00000000000E+00 0.  1.
         11    1    1    2    0    0  0.47218872468E+02  0.21383823278E+02 -0.10740616394E+03  0.11926011012E+03  0.00000000000E+00 0. -1.
</event>
<event>
 7    1  0.2686828E-009  0.6470718E+02  0.7561462E-02  0.1379076E+00
          2   -1    0    0  501    0  0.00000000000E+00  0.00000000000E+00  0.56425076741E+03  0.56425076741E+03  0.00000000000E+00 0.  1.
         -2   -1    0    0    0  501 -0.00000000000E+00 -0.00000000000E+00 -0.48484717042E+02  0.48484717042E+02  0.00000000000E+00 0. -1.
         25    2    1    2    0    0 -0.54900530557E+01  0.72979986292E+01  0.50383275436E+03  0.51920902053E+03  0.12508861324E+03 0.  0.
          5    1    3    3  502    0 -0.14851703279E+02  0.17095106836E+02  0.50448776379E+03  0.50501306119E+03  0.41800000000E+01 0.  1.
         -5    1    3    3    0  502  0.93616502233E+01 -0.97971082072E+01 -0.65500942077E+00  0.14195959336E+02  0.41800000000E+01 0.  1.
        -11    1    1    2    0    0  0.29777482336E+02 -0.40994737484E+02  0.11640277937E+02  0.51988104659E+02  0.00000000000E+00 0.  1.
         11    1    1    2    0    0 -0.24287429280E+02  0.33696738855E+02  0.29301806577E+00  0.41538359261E+02  0.00000000000E+00 0. -1.
</event>
<event>
 7    1  0.2686828E-009  0.9805552E+02  0.7561462E-02  0.1284439E+00
         -1   -1    0    0    0  501 -0.00000000000E+00  0.00000000000E+00  0.80686656589E+02  0.80686656589E+02  0.00000000000E+00 0.  1.
          1   -1    0    0  501    0  0.00000000000E+00 -0.00000000000E+00 -0.18697653757E+03  0.18697653757E+03  0.00000000000E+00 0. -1.
         25    2    1    2    0    0 -0.15652739196E+02 -0.75795322976E+01 -0.11841152890E+03  0.17312231124E+03  0.12509031505E+03 0.  0.
          5    1    3    3  502    0  0.14683047608E+02 -0.49915875869E+02 -0.10524658436E+02  0.53248731309E+02  0.41800000000E+01 0.  1.
         -5    1    3    3    0  502 -0.30335786804E+02  0.42336343572E+02 -0.10788687046E+03  0.11987357993E+03  0.41800000000E+01 0.  1.
        -11    1    1    2    0    0 -0.11849702040E+02  0.44258744373E+02  0.16003270125E+02  0.48532015687E+02  0.00000000000E+00 0.  1.
         11    1    1    2    0    0  0.27502441237E+02 -0.36679212076E+02 -0.38816222051E+01  0.46008867226E+02  0.00000000000E+00 0. -1.
</event>
<event>
 7    1  0.2686828E-009  0.9417884E+02  0.7561462E-02  0.1293036E+00
          1   -1    0    0  501    0  0.00000000000E+00  0.00000000000E+00  0.36494110343E+03  0.36494110343E+03  0.00000000000E+00 0. -1.
         -1   -1    0    0    0  501 -0.00000000000E+00 -0.00000000000E+00 -0.35969355644E+02  0.35969355644E+02  0.00000000000E+00 0.  1.
         25    2    1    2    0    0  0.29916392951E+02  0.20436596785E+00  0.22587007281E+03  0.25991886572E+03  0.12508195167E+03 0.  0.
          5    1    3    3  502    0 -0.11229880605E+02  0.44310604163E+02  0.17494563559E+03  0.18086732063E+03  0.41800000000E+01 0.  1.
         -5    1    3    3    0  502  0.41146273556E+02 -0.44106238195E+02  0.50924437217E+02  0.79051545091E+02  0.41800000000E+01 0.  1.
        -11    1    1    2    0    0 -0.27624664894E+02 -0.36415723413E+02  0.92522304321E+02  0.10319691768E+03  0.00000000000E+00 0. -1.
         11    1    1    2    0    0 -0.22917280564E+01  0.36211357445E+02  0.10579370655E+02  0.37794675669E+02  0.00000000000E+00 0.  1.
</event>
<event>
 7    1  0.2686828E-009  0.8425075E+02  0.7561462E-02  0.1317404E+00
         -2   -1    0    0    0  501 -0.00000000000E+00  0.00000000000E+00  0.67211630605E+03  0.67211630605E+03  0.00000000000E+00 0.  1.
          2   -1    0    0  501    0  0.00000000000E+00 -0.00000000000E+00 -0.22901922691E+02  0.22901922691E+02  0.00000000000E+00 0. -1.
         25    2    1    2    0    0  0.17367103781E+02  0.38236836599E+02  0.47821514808E+03  0.49608577078E+03  0.12509073565E+03 0.  0.
          5    1    3    3  502    0 -0.17471693757E+02  0.32871961993E+02  0.44773287177E+03  0.44929725442E+03  0.41800000000E+01 0. -1.
         -5    1    3    3    0  502  0.34838797537E+02  0.53648746060E+01  0.30482276308E+02  0.46788516351E+02  0.41800000000E+01 0. -1.
        -11    1    1    2    0    0 -0.49633370539E+02 -0.61039958305E+01  0.55105089726E+02  0.74413044219E+02  0.00000000000E+00 0. -1.
         11    1    1    2    0    0  0.32266266758E+02 -0.32132840768E+02  0.11589414555E+03  0.12451941375E+03  0.00000000000E+00 0.  1.
</event>
<event>
 7    1  0.2686828E-009  0.3563959E+03  0.7561462E-02  0.1060020E+00
         -2   -1    0    0    0  501 -0.00000000000E+00  0.00000000000E+00  0.13870591380E+03  0.13870591380E+03  0.00000000000E+00 0.  1.
          2   -1    0    0  501    0  0.00000000000E+00 -0.00000000000E+00 -0.10207516353E+04  0.10207516353E+04  0.00000000000E+00 0. -1.
         25    2    1    2    0    0  0.29290621748E+03  0.17804271280E+03 -0.27698016256E+03  0.45810382772E+03  0.12509135339E+03 0.  0.
          5    1    3    3  502    0  0.79448354067E+02  0.11415832836E+03 -0.13496138855E+03  0.19384585035E+03  0.41800000000E+01 0. -1.
         -5    1    3    3    0  502  0.21345786341E+03  0.63884384439E+02 -0.14201877401E+03  0.26425797736E+03  0.41800000000E+01 0. -1.
        -11    1    1    2    0    0 -0.19022018520E+03 -0.72577745013E+02 -0.40117619286E+03  0.44988174629E+03  0.00000000000E+00 0.  1.
         11    1    1    2    0    0 -0.10268603228E+03 -0.10546496779E+03 -0.20388936611E+03  0.25147197511E+03  0.00000000000E+00 0. -1.
</event>
<event>
 7    1  0.2686828E-009  0.3810723E+03  0.7561462E-02  0.1050538E+00
         -2   -1    0    0    0  501 -0.00000000000E+00  0.00000000000E+00  0.12841845980E+03  0.12841845980E+03  0.00000000000E+00 0.  1.
          2   -1    0    0  501    0  0.00000000000E+00 -0.00000000000E+00 -0.11704812078E+04  0.11704812078E+04  0.00000000000E+00 0. -1.
         25    2    1    2    0    0 -0.70407718502E+02  0.36529731503E+03 -0.53430399232E+03  0.66296853874E+03  0.12508857648E+03 0.  0.
          5    1    3    3  502    0 -0.35621325984E+02  0.32006302242E+03 -0.50428331269E+03  0.59835470170E+03  0.41800000000E+01 0.  1.
         -5    1    3    3    0  502 -0.34786392518E+02  0.45234292610E+02 -0.30020679623E+02  0.64613837043E+02  0.41800000000E+01 0.  1.
        -11    1    1    2    0    0  0.44139821109E+02 -0.50916270966E+02 -0.87800233776E+02  0.11067823412E+03  0.00000000000E+00 0.  1.
         11    1    1    2    0    0  0.26267897392E+02 -0.31438104407E+03 -0.41995852190E+03  0.52525289473E+03  0.00000000000E+00 0. -1.
</event>
<event>
 7    1  0.2686828E-009  0.1304641E+03  0.7561462E-02  0.1226769E+00
         -2   -1    0    0    0  501 -0.00000000000E+00  0.00000000000E+00  0.27640390386E+02  0.27640390386E+02  0.00000000000E+00 0.  1.
          2   -1    0    0  501    0  0.00000000000E+00 -0.00000000000E+00 -0.74563667816E+03  0.74563667816E+03  0.00000000000E+00 0. -1.
         25    2    1    2    0    0 -0.62095016638E+02 -0.48449162995E+02 -0.54536878300E+03  0.56504619629E+03  0.12508789701E+03 0.  0.
          5    1    3    3  502    0  0.29448529923E+00  0.37783666437E+02 -0.96639403583E+02  0.10384767160E+03  0.41800000000E+01 0. -1.
         -5    1    3    3    0  502 -0.62389501937E+02 -0.86232829432E+02 -0.44872937942E+03  0.46119852469E+03  0.41800000000E+01 0. -1.
        -11    1    1    2    0    0  0.48563310977E+02 -0.15541419406E+02 -0.78706377374E+02  0.93779660532E+02  0.00000000000E+00 0. -1.
         11    1    1    2    0    0  0.13531705661E+02  0.63990582401E+02 -0.93921127397E+02  0.11445121173E+03  0.00000000000E+00 0.  1.
</event>
<event>
 7    1  0.2686828E-009  0.7286147E+02  0.7561462E-02  0.1350624E+00
         -1   -1    0    0    0  501 -0.00000000000E+00  0.00000000000E+00  0.87040534324E+01  0.87040534324E+01  0.00000000000E+00 0.  1.
          1   -1    0    0  501    0  0.00000000000E+00 -0.00000000000E+00 -0.14475420812E+04  0.14475420812E+04  0.00000000000E+00 0. -1.
         25    2    1    2    0    0  0.28475598115E+02 -0.36393667534E+01 -0.10894733980E+04  0.10970069010E+04  0.12509097217E+03 0.  0.
          5    1    3    3  502    0  0.33280632897E+02 -0.23889423139E+02 -0.10593783594E+04  0.10601784217E+04  0.41800000000E+01 0. -1.
         -5    1    3    3    0  502 -0.48050347813E+01  0.20250056386E+02 -0.30095038584E+02  0.36828479337E+02  0.41800000000E+01 0. -1.
        -11    1    1    2    0    0 -0.66659219379E+01  0.40197097715E+02 -0.18692170486E+03  0.19131117304E+03  0.00000000000E+00 0.  1.
         11    1    1    2    0    0 -0.21809676177E+02 -0.36557730962E+02 -0.16244292496E+03  0.16792806060E+03  0.00000000000E+00 0. -1.
</event>
<event>
 7    1  0.2686828E-009  0.9652725E+02  0.7561462E-02  0.1287773E+00
         -1   -1    0    0    0  501 -0.00000000000E+00  0.00000000000E+00  0.54892576806E+02  0.54892576806E+02  0.00000000000E+00 0.  1.
          1   -1    0    0  501    0  0.00000000000E+00 -0.00000000000E+00 -0.25403269626E+03  0.25403269626E+03  0.00000000000E+00 0. -1.
         25    2    1    2    0    0  0.10055112060E+02  0.45013963195E+02 -0.12841068857E+03  0.18510562921E+03  0.12508967529E+03 0.  0.
          5    1    3    3  502    0  0.14226030011E+02 -0.25972741644E+02 -0.10644092081E+03  0.11056267571E+03  0.41800000000E+01 0.  1.
         -5    1    3    3    0  502 -0.41709179513E+01  0.70986704839E+02 -0.21969767762E+02  0.74542953496E+02  0.41800000000E+01 0.  1.
        -11    1    1    2    0    0  0.35028157795E+02 -0.18495663927E+02 -0.57577606999E+02  0.69887354008E+02  0.00000000000E+00 0. -1.
         11    1    1    2    0    0 -0.45083269855E+02 -0.26518299268E+02 -0.13151823887E+02  0.53932289850E+02  0.00000000000E+00 0.  1.
</event>
<event>
 7    1  0.2686828E-009  0.1010182E+03  0.7561462E-02  0.1278169E+00
          3   -1    0    0  501    0  0.00000000000E+00  0.00000000000E+00  0.36271774200E+02  0.36271774200E+02  0.00000000000E+00 0. -1.
         -3   -1    0    0    0  501 -0.00000000000E+00 -0.00000000000E+00 -0.33331953894E+03  0.33331953894E+03  0.00000000000E+00 0.  1.
         25    2    1    2    0    0  0.62022479019E+01  0.48200857782E+01 -0.13932683973E+03  0.18740493125E+03  0.12508772474E+03 0.  0.
          5    1    3    3  502    0  0.25905925605E+02  0.60295112612E+02 -0.82210181502E+02  0.10527394706E+03  0.41800000000E+01 0.  1.
         -5    1    3    3    0  502 -0.19703677703E+02 -0.55475026834E+02 -0.57116658225E+02  0.82130984190E+02  0.41800000000E+01 0.  1.
        -11    1    1    2    0    0 -0.33921867824E+02  0.20568612744E+02 -0.12876470049E+03  0.13473718506E+03  0.00000000000E+00 0.  1.
         11    1    1    2    0    0  0.27719619922E+02 -0.25388698522E+02 -0.28956224528E+02  0.47449196834E+02  0.00000000000E+00 0. -1.
</event>
<event>
 7    1  0.2686828E-009  0.7777824E+02  0.7561462E-02  0.1335477E+00
         -2   -1    0    0    0  501 -0.00000000000E+00  0.00000000000E+00  0.39572459363E+03  0.39572459363E+03  0.00000000000E+00 0.  1.
          2   -1    0    0  501    0  0.00000000000E+00 -0.00000000000E+00 -0.48569857849E+02  0.48569857849E+02  0.00000000000E+00 0. -1.
         25    2    1    2    0    0  0.26028847735E+02 -0.56211437352E+02  0.27456911830E+03  0.30801955277E+03  0.12510242829E+03 0.  0.
          5    1    3    3  502    0 -0.19439331402E+02 -0.30124098723E+01  0.21524097050E+03  0.21617842168E+03  0.41800000000E+01 0. -1.
         -5    1    3    3    0  502  0.45468179137E+02 -0.53199027480E+02  0.59328147797E+02  0.91841131090E+02  0.41800000000E+01 0. -1.
        -11    1    1    2    0    0 -0.21108324907E+02  0.20963710942E+02  0.91328451451E+02  0.96051676722E+02  0.00000000000E+00 0.  1.
         11    1    1    2    0    0 -0.49205228276E+01  0.35247726410E+02 -0.18742833965E+02  0.40223221987E+02  0.00000000000E+00 0. -1.
</event>
<event>
 7    1  0.2686828E-009  0.9151650E+02  0.7561462E-02  0.1299220E+00
          2   -1    0    0  501    0  0.00000000000E+00  0.00000000000E+00  0.10243415344E+03  0.10243415344E+03  0.00000000000E+00 0. -1.
         -2   -1    0    0    0  501 -0.00000000000E+00 -0.00000000000E+00 -0.21484035041E+03  0.21484035041E+03  0.00000000000E+00 0.  1.
         25    2    1    2    0    0  0.10062473665E+01  0.35852070646E+02  0.39567431167E+02  0.13601833300E+03  0.12509605029E+03 0.  0.
          5    1    3    3  502    0 -0.12133915100E+02  0.57692797239E+02 -0.26730459020E+02  0.64866636944E+02  0.41800000000E+01 0. -1.
         -5    1    3    3    0  502  0.13140162466E+02 -0.21840726594E+02  0.66297890187E+02  0.71151696052E+02  0.41800000000E+01 0. -1.
        -11    1    1    2    0    0 -0.45441172196E+02 -0.26792390689E+02 -0.92235036725E+02  0.10625457321E+03  0.00000000000E+00 0.  1.
         11    1    1    2    0    0  0.44434924830E+02 -0.90596799566E+01 -0.59738591409E+02  0.75001597644E+02  0.00000000000E+00 0. -1.
</event>
<event>
 7    1  0.2686828E-009  0.1676056E+03  0.7561462E-02  0.1180368E+00
         -1   -1    0    0    0  501 -0.00000000000E+00  0.00000000000E+00  0.58426528872E+02  0.58426528872E+02  0.00000000000E+00 0.  1.
          1   -1    0    0  501    0  0.00000000000E+00 -0.00000000000E+00 -0.70971492910E+03  0.70971492910E+03  0.00000000000E+00 0. -1.
         25    2    1    2    0    0 -0.10893844402E+03  0.11558233546E+03 -0.21791700628E+03  0.29726024623E+03  0.12509584928E+03 0.  0.
          5    1    3    3  502    0 -0.61465207872E+01  0.37125689650E+02 -0.14262970222E+03  0.14756964764E+03  0.41800000000E+01 0. -1.
         -5    1    3    3    0  502 -0.10279192323E+03  0.78456645805E+02 -0.75287304059E+02  0.14969059859E+03  0.41800000000E+01 0. -1.
        -11    1    1    2    0    0  0.80358142956E+01 -0.42820368820E+02 -0.43187192625E+02  0.61345675513E+02  0.00000000000E+00 0.  1.
         11    1    1    2    0    0  0.10090262972E+03 -0.72761966636E+02 -0.39018420133E+03  0.40953553623E+03  0.00000000000E+00 0. -1.
</event>
<event>
 7    1  0.2686828E-009  0.1917640E+03  0.7561462E-02  0.1156880E+00
          1   -1    0    0  501    0  0.00000000000E+00  0.00000000000E+00  0.29499467410E+03  0.29499467410E+03  0.00000000000E+00 0. -1.
         -1   -1    0    0    0  501 -0.00000000000E+00 -0.00000000000E+00 -0.38136925518E+03  0.38136925518E+03  0.00000000000E+00 0.  1.
         25    2    1    2    0    0 -0.12569143344E+03 -0.10500774358E+03 -0.31860418751E+03  0.37944866108E+03  0.12509074885E+03 0.  0.
          5    1    3    3  502    0 -0.14224006247E+03 -0.11655000654E+03 -0.27046858345E+03  0.32708846881E+03  0.41800000000E+01 0. -1.
         -5    1    3    3    0  502  0.16548629029E+02  0.11542262957E+02 -0.48135604055E+02  0.52360192271E+02  0.41800000000E+01 0. -1.
        -11    1    1    2    0    0  0.96489933800E+02  0.34166525349E+02  0.16895174099E+03  0.19754075418E+03  0.00000000000E+00 0.  1.
         11    1    1    2    0    0  0.29201499641E+02  0.70841218234E+02  0.63277865431E+02  0.99374514014E+02  0.00000000000E+00 0. -1.
</event>
<event>
 7    1  0.2686828E-009  0.8062372E+02  0.7561462E-02  0.1327291E+00
         -2   -1    0    0    0  501 -0.00000000000E+00  0.00000000000E+00  0.20741255026E+03  0.20741255026E+03  0.00000000000E+00 0.  1.
          2   -1    0    0  501    0  0.00000000000E+00 -0.00000000000E+00 -0.78810564388E+02  0.78810564388E+02  0.00000000000E+00 0. -1.
         25    2    1    2    0    0  0.44041408083E+02 -0.15690513467E+02  0.82016542968E+02  0.15671645796E+03  0.12508995577E+03 0.  0.
          5    1    3    3  502    0 -0.47810509613E+01  0.18472616618E+02  0.93815648400E+02  0.95827680227E+02  0.41800000000E+01 0.  1.
         -5    1    3    3    0  502  0.48822459044E+02 -0.34163130085E+02 -0.11799105432E+02  0.60888777728E+02  0.41800000000E+01 0.  1.
        -11    1    1    2    0    0 -0.57955719862E+02 -0.37445209968E+01  0.73392139141E+02  0.93591094608E+02  0.00000000000E+00 0.  1.
         11    1    1    2    0    0  0.13914311780E+02  0.19435034463E+02 -0.26806696236E+02  0.35915562086E+02  0.00000000000E+00 0. -1.
</event>
<event>
 7    1  0.2686828E-009  0.1038626E+03  0.7561462E-02  0.1272377E+00
          1   -1    0    0  501    0  0.00000000000E+00  0.00000000000E+00  0.31792960275E+03  0.31792960275E+03  0.00000000000E+00 0. -1.
         -1   -1    0    0    0  501 -0.00000000000E+00 -0.00000000000E+00 -0.52364393819E+02  0.52364393819E+02  0.00000000000E+00 0.  1.
         25    2    1    2    0    0  0.49683029459E+02  0.15964214577E+02  0.21514924492E+03  0.25428283400E+03  0.12508917825E+03 0.  0.
          5    1    3    3  502    0 -0.10037823699E+02  0.60003286971E+02  0.89521698699E+02  0.10831786228E+03  0.41800000000E+01 0. -1.
         -5    1    3    3    0  502  0.59720853158E+02 -0.44039072394E+02  0.12562754622E+03  0.14596497172E+03  0.41800000000E+01 0. -1.
        -11    1    1    2    0    0 -0.56309662768E+02 -0.12911101547E+01 -0.66517068706E+01  0.56715873358E+02  0.00000000000E+00 0.  1.
         11    1    1    2    0    0  0.66266333085E+01 -0.14673104422E+02  0.57067670883E+02  0.59295289209E+02  0.00000000000E+00 0. -1.
</event>
<event>
 7    1  0.2686828E-009  0.1151468E+03  0.7561462E-02  0.1251325E+00
          2   -1    0    0  501    0  0.00000000000E+00  0.00000000000E+00  0.75850426154E+02  0.75850426154E+02  0.00000000000E+00 0. -1.
         -2   -1    0    0    0  501 -0.00000000000E+00 -0.00000000000E+00 -0.21433778255E+03  0.21433778255E+03  0.00000000000E+00 0.  1.
         25    2    1    2    0    0 -0.15782814565E+02  0.61680546607E+02 -0.55740921440E+02  0.15102629576E+03  0.12509318375E+03 0.  0.
          5    1    3    3  502    0 -0.58168971382E+02  0.75426837803E+02 -0.42224193344E+02  0.10427459900E+03  0.41800000000E+01 0.  1.
         -5    1    3    3    0  502  0.42386156817E+02 -0.13746291196E+02 -0.13516728095E+02  0.46751696758E+02  0.41800000000E+01 0.  1.
        -11    1    1    2    0    0 -0.11997307156E+01 -0.70873956266E+02 -0.20205892919E+02  0.73707768513E+02  0.00000000000E+00 0. -1.
         11    1    1    2    0    0  0.16982545281E+02  0.91934096591E+01 -0.62540542042E+02  0.65454144439E+02  0.00000000000E+00 0.  1.
</event>
<event>
 7    1  0.2686828E-009  0.1122056E+03  0.7561462E-02  0.1256539E+00
         -1   -1    0    0    0  501 -0.00000000000E+00  0.00000000000E+00  0.48209311268E+03  0.48209311268E+03  0.00000000000E+00 0.  1.
          1   -1    0    0  501    0  0.00000000000E+00 -0.00000000000E+00 -0.36528366854E+02  0.36528366854E+02  0.00000000000E+00 0. -1.
         25    2    1    2    0    0  0.69369623764E+02  0.35463794424E+02  0.24935837229E+03  0.28964956651E+03  0.12508976029E+03 0.  0.
          5    1    3    3  502    0 -0.10548400907E+02  0.61281970733E+02  0.90100338078E+02  0.10955497260E+03  0.41800000000E+01 0.  1.
         -5    1    3    3    0  502  0.79918024671E+02 -0.25818176309E+02  0.15925803421E+03  0.18009459391E+03  0.41800000000E+01 0.  1.
        -11    1    1    2    0    0 -0.13892480153E+02 -0.54507050203E+01 -0.67945824146E+01  0.16397485789E+02  0.00000000000E+00 0. -1.
         11    1    1    2    0    0 -0.55477143611E+02 -0.30013089403E+02  0.20300095595E+03  0.21257442724E+03  0.00000000000E+00 0.  1.
</event>
<event>
 7    1  0.2686828E-009  0.2047139E+03  0.7561462E-02  0.1145822E+00
         -2   -1    0    0    0  501 -0.00000000000E+00  0.00000000000E+00  0.36882903601E+03  0.36882903601E+03  0.00000000000E+00 0.  1.
          2   -1    0    0  501    0  0.00000000000E+00 -0.00000000000E+00 -0.15380855775E+03  0.15380855775E+03  0.00000000000E+00 0. -1.
         25    2    1    2    0    0 -0.18519331014E+03 -0.13181136633E+02  0.35970602171E+01  0.22389799542E+03  0.12508824496E+03 0.  0.
          5    1    3    3  502    0 -0.19576535467E+03  0.11802400294E+02 -0.36068972393E+00  0.19616567804E+03  0.41800000000E+01 0. -1.
         -5    1    3    3    0  502  0.10572044531E+02 -0.24983536927E+02  0.39577499411E+01  0.27732317385E+02  0.41800000000E+01 0. -1.
        -11    1    1    2    0    0  0.86315299381E+02  0.99057432232E+01  0.17112016175E+03  0.19191290841E+03  0.00000000000E+00 0.  1.
         11    1    1    2    0    0  0.98878010761E+02  0.32753934100E+01  0.40303256296E+02  0.10682668993E+03  0.00000000000E+00 0. -1.
</event>
<event>
 7    1  0.2686828E-009  0.1237886E+03  0.7561462E-02  0.1236975E+00
         -1   -1    0    0    0  501 -0.00000000000E+00  0.00000000000E+00  0.37372569959E+03  0.37372569959E+03  0.00000000000E+00 0.  1.
          1   -1    0    0  501    0  0.00000000000E+00 -0.00000000000E+00 -0.96371154793E+02  0.96371154793E+02  0.00000000000E+00 0. -1.
         25    2    1    2    0    0  0.70792683131E+02 -0.40479547560E+02  0.30960056566E+03  0.34373004118E+03  0.12509050002E+03 0.  0.
          5    1    3    3  502    0  0.47894728861E+02  0.27456119872E+02  0.22979752889E+03  0.23637284162E+03  0.41800000000E+01 0. -1.
         -5    1    3    3    0  502  0.22897954270E+02 -0.67935667433E+02  0.79803036771E+02  0.10735719956E+03  0.41800000000E+01 0. -1.
        -11    1    1    2    0    0 -0.92060823620E+02  0.34429912387E+02 -0.34437217597E+02  0.10414670455E+03  0.00000000000E+00 0. -1.
         11    1    1    2    0    0  0.21268140489E+02  0.60496351730E+01  0.21911967344E+01  0.22220108657E+02  0.00000000000E+00 0.  1.
</event>
<event>
 7    1  0.2686828E-009  0.9054509E+02  0.7561462E-02  0.1301537E+00
          2   -1    0    0  501    0  0.00000000000E+00  0.00000000000E+00  0.29791384196E+03  0.29791384196E+03  0.00000000000E+00 0. -1.
         -2   -1    0    0    0  501 -0.00000000000E+00 -0.00000000000E+00 -0.59756905256E+02  0.59756905256E+02  0.00000000000E+00 0.  1.
         25    2    1    2    0    0 -0.46663827561E+02  0.33482007645E+02  0.61988642737E+02  0.15095828304E+03  0.12508898334E+03 0.  0.
          5    1    3    3  502    0 -0.20627655429E+02 -0.15278443597E+02  0.86515864081E+02  0.90340456855E+02  0.41800000000E+01 0. -1.
         -5    1    3    3    0  502 -0.26036172132E+02  0.48760451243E+02 -0.24527221343E+02  0.60617826186E+02  0.41800000000E+01 0. -1.
        -11    1    1    2    0    0  0.65127515116E+02 -0.44976167734E+01  0.72812174145E+02  0.97792814080E+02  0.00000000000E+00 0.  1.
         11    1    1    2    0    0 -0.18463687555E+02 -0.28984390872E+02  0.10335611982E+03  0.10891965009E+03  0.00000000000E+00 0. -1.
</event>
<event>
 7    1  0.2686828E-009  0.7614893E+02  0.7561462E-02  0.1340350E+00
         -2   -1    0    0    0  501 -0.00000000000E+00  0.00000000000E+00  0.18892281409E+02  0.18892281409E+02  0.00000000000E+00 0. -1.
          2   -1    0    0  501    0  0.00000000000E+00 -0.00000000000E+00 -0.68189034056E+03  0.68189034056E+03  0.00000000000E+00 0.  1.
         25    2    1    2    0    0 -0.28752533679E+02  0.16552150652E+02 -0.37147805244E+03  0.39337453175E+03  0.12508755693E+03 0.  0.
          5    1    3    3  502    0 -0.44332384733E+02  0.33650608374E+02 -0.36464935661E+03  0.36889612285E+03  0.41800000000E+01 0. -1.
         -5    1    3    3    0  502  0.15579851054E+02 -0.17098457721E+02 -0.68286958293E+01  0.24478408895E+02  0.41800000000E+01 0. -1.
        -11    1    1    2    0    0  0.29443748938E+02 -0.39917436549E+02 -0.27331588717E+03  0.27778032736E+03  0.00000000000E+00 0.  1.
         11    1    1    2    0    0 -0.69121525906E+00  0.23365285896E+02 -0.18204119545E+02  0.29627762858E+02  0.00000000000E+00 0. -1.
</event>
<event>
 7    1  0.2686828E-009  0.6755133E+02  0.7561462E-02  0.1368624E+00
          1   -1    0    0  501    0  0.00000000000E+00  0.00000000000E+00  0.17894118237E+03  0.17894118237E+03  0.00000000000E+00 0. -1.
         -1   -1    0    0    0  501 -0.00000000000E+00 -0.00000000000E+00 -0.84774061350E+02  0.84774061350E+02  0.00000000000E+00 0.  1.
         25    2    1    2    0    0 -0.41978886923E+02 -0.39539376724E+02  0.59295651350E+02  0.14996202640E+03  0.12508815225E+03 0.  0.
          5    1    3    3  502    0 -0.27166250531E+02 -0.48818282805E+02  0.94829269795E+02  0.11014214776E+03  0.41800000000E+01 0. -1.
         -5    1    3    3    0  502 -0.14812636392E+02  0.92789060810E+01 -0.35533618445E+02  0.39819878638E+02  0.41800000000E+01 0. -1.
        -11    1    1    2    0    0  0.14246251818E+02  0.27299527967E+02 -0.29473533931E+02  0.42625216955E+02  0.00000000000E+00 0.  1.
         11    1    1    2    0    0  0.27732635105E+02  0.12239848757E+02  0.64345003598E+02  0.71128000362E+02  0.00000000000E+00 0. -1.
</event>
<event>
 7    1  0.2686828E-009  0.1110539E+03  0.7561462E-02  0.1258631E+00
         -1   -1    0    0    0  501 -0.00000000000E+00  0.00000000000E+00  0.23240100759E+02  0.23240100759E+02  0.00000000000E+00 0.  1.
          1   -1    0    0  501    0  0.00000000000E+00 -0.00000000000E+00 -0.72309948758E+03  0.72309948758E+03  0.00000000000E+00 0. -1.
         25    2    1    2    0    0  0.46720555236E+02  0.38546943973E+02 -0.28741432127E+03  0.31925346583E+03  0.12508839355E+03 0.  0.
          5    1    3    3  502    0  0.12739958704E+01 -0.29236793193E+02 -0.11883853355E+02  0.31860814683E+02  0.41800000000E+01 0.  1.
         -5    1    3    3    0  502  0.45446559366E+02  0.67783737166E+02 -0.27553046792E+03  0.28739265115E+03  0.41800000000E+01 0.  1.
        -11    1    1    2    0    0  0.27055343364E+02 -0.22825882939E+02 -0.13694961212E+03  0.14145037573E+03  0.00000000000E+00 0.  1.
         11    1    1    2    0    0 -0.73775898600E+02 -0.15721061035E+02 -0.27549545343E+03  0.28563574678E+03  0.00000000000E+00 0. -1.
</event>
<event>
 7    1  0.2686828E-009  0.9277830E+02  0.7561462E-02  0.1296260E+00
         -2   -1    0    0    0  501 -0.00000000000E+00  0.00000000000E+00  0.16031690713E+03  0.16031690713E+03  0.00000000000E+00 0.  1.
          2   -1    0    0  501    0  0.00000000000E+00 -0.00000000000E+00 -0.10991205122E+03  0.10991205122E+03  0.00000000000E+00 0. -1.
         25    2    1    2    0    0  0.60105721574E+02  0.96387177828E+01  0.70812875342E+02  0.15609921009E+03  0.12508755906E+03 0.  0.
          5    1    3    3  502    0  0.66399306782E+02  0.32394621710E+02 -0.73299913207E+01  0.74360477604E+02  0.41800000000E+01 0. -1.
         -5    1    3    3    0  502 -0.62935852079E+01 -0.22755903927E+02  0.78142866662E+02  0.81738732486E+02  0.41800000000E+01 0. -1.
        -11    1    1    2    0    0 -0.30099696779E+02  0.26852863405E+02  0.25931412526E+02  0.47953166473E+02  0.00000000000E+00 0.  1.
         11    1    1    2    0    0 -0.30006024795E+02 -0.36491581188E+02 -0.46339431961E+02  0.66176581780E+02  0.00000000000E+00 0. -1.
</event>
<event>
 7    1  0.2686828E-009  0.1449229E+03  0.7561462E-02  0.1206854E+00
          1   -1    0    0  501    0  0.00000000000E+00  0.00000000000E+00  0.29912571930E+03  0.29912571930E+03  0.00000000000E+00 0. -1.
         -1   -1    0    0    0  501 -0.00000000000E+00 -0.00000000000E+00 -0.13654322650E+03  0.13654322650E+03  0.00000000000E+00 0.  1.
         25    2    1    2    0    0  0.92678380512E+02 -0.30411574705E+02 -0.65556728243E+02  0.17163629281E+03  0.12508871372E+03 0.  0.
          5    1    3    3  502    0 -0.30791812339E+02 -0.38928036778E+01 -0.57444804398E+01  0.31839614996E+02  0.41800000000E+01 0. -1.
         -5    1    3    3    0  502  0.12347019285E+03 -0.26518771027E+02 -0.59812247803E+02  0.13979667781E+03  0.41800000000E+01 0. -1.
        -11    1    1    2    0    0 -0.24749448424E+01 -0.25780799303E+02  0.34401980869E+02  0.43061250010E+02  0.00000000000E+00 0. -1.
         11    1    1    2    0    0 -0.90203435669E+02  0.56192374008E+02  0.19373724018E+03  0.22097140298E+03  0.00000000000E+00 0.  1.
</event>
<event>
 7    1  0.2686828E-009  0.1092522E+03  0.7561462E-02  0.1261961E+00
          1   -1    0    0  501    0  0.00000000000E+00  0.00000000000E+00  0.47596573124E+03  0.47596573124E+03  0.00000000000E+00 0. -1.
         -1   -1    0    0    0  501 -0.00000000000E+00 -0.00000000000E+00 -0.27482056262E+02  0.27482056262E+02  0.00000000000E+00 0.  1.
         25    2    1    2    0    0 -0.38854589161E+02  0.34068572480E+01  0.32716167212E+03  0.35242439437E+03  0.12508760235E+03 0.  0.
          5    1    3    3  502    0 -0.52868212719E+02 -0.50205794592E+02  0.21843417440E+03  0.23031854174E+03  0.41800000000E+01 0. -1.
         -5    1    3    3    0  502  0.14013623558E+02  0.53612651840E+02  0.10872749773E+03  0.12210585262E+03  0.41800000000E+01 0. -1.
        -11    1    1    2    0    0 -0.51029552791E+01  0.32652704724E+02  0.42595329688E+02  0.53912905594E+02  0.00000000000E+00 0.  1.
         11    1    1    2    0    0  0.43957544440E+02 -0.36059561972E+02  0.78726673163E+02  0.97110487539E+02  0.00000000000E+00 0. -1.
</event>
<event>
 7    1  0.2686828E-009  0.1070623E+03  0.7561462E-02  0.1266109E+00
          1   -1    0    0  501    0  0.00000000000E+00  0.00000000000E+00  0.58817954722E+02  0.58817954722E+02  0.00000000000E+00 0. -1.
         -1   -1    0    0    0  501 -0.00000000000E+00 -0.00000000000E+00 -0.51993678660E+03  0.51993678660E+03  0.00000000000E+00 0.  1.
         25    2    1    2    0    0 -0.54494129428E+02 -0.35993966279E+02 -0.46224453006E+02  0.14848743691E+03  0.12508654250E+03 0.  0.
          5    1    3    3  502    0 -0.75429795322E+02 -0.36578094128E+02 -0.75061890063E+02  0.11260271192E+03  0.41800000000E+01 0.  1.
         -5    1    3    3    0  502  0.20935665894E+02  0.58412784924E+00  0.28837437057E+02  0.35884724992E+02  0.41800000000E+01 0.  1.
        -11    1    1    2    0    0 -0.93376170035E+01  0.43564232330E+02 -0.11018610219E+03  0.11885289456E+03  0.00000000000E+00 0. -1.
         11    1    1    2    0    0  0.63831746431E+02 -0.75702660512E+01 -0.30470827668E+03  0.31141440985E+03  0.00000000000E+00 0.  1.
</event>
<event>
 7    1  0.2686828E-009  0.1554101E+03  0.7561462E-02  0.1193978E+00
         -1   -1    0    0    0  501 -0.00000000000E+00  0.00000000000E+00  0.25340961465E+03  0.25340961465E+03  0.00000000000E+00 0.  1.
          1   -1    0    0  501    0  0.00000000000E+00 -0.00000000000E+00 -0.10653006781E+03  0.10653006781E+03  0.00000000000E+00 0. -1.
         25    2    1    2    0    0 -0.11585262919E+03  0.84876338403E+01  0.12110019290E+03  0.20930304158E+03  0.12509450379E+03 0.  0.
          5    1    3    3  502    0 -0.19443575885E+00  0.41973695016E+02  0.62306329010E+02  0.75242141871E+02  0.41800000000E+01 0.  1.
         -5    1    3    3    0  502 -0.11565819343E+03 -0.33486061176E+02  0.58793863885E+02  0.13406089971E+03  0.41800000000E+01 0.  1.
        -11    1    1    2    0    0  0.55963617405E+02  0.41884272349E+02  0.16586547218E+02  0.71842412904E+02  0.00000000000E+00 0. -1.
         11    1    1    2    0    0  0.59889011788E+02 -0.50371906189E+02  0.91928067315E+01  0.78794227972E+02  0.00000000000E+00 0.  1.
</event>
<event>
 7    1  0.2686828E-009  0.1254738E+03  0.7561462E-02  0.1234331E+00
          1   -1    0    0  501    0  0.00000000000E+00  0.00000000000E+00  0.12449634519E+03  0.12449634519E+03  0.00000000000E+00 0. -1.
         -1   -1    0    0    0  501 -0.00000000000E+00 -0.00000000000E+00 -0.19999298257E+03  0.19999298257E+03  0.00000000000E+00 0.  1.
         25    2    1    2    0    0  0.21235979985E+02  0.10098539541E+03  0.11063405724E+02  0.16253954225E+03  0.12509071475E+03 0.  0.
          5    1    3    3  502    0  0.28452879811E+02  0.11487252860E+03  0.43603481002E+02  0.12619033303E+03  0.41800000000E+01 0. -1.
         -5    1    3    3    0  502 -0.72168998261E+01 -0.13887133188E+02 -0.32540075278E+02  0.36349209213E+02  0.41800000000E+01 0. -1.
        -11    1    1    2    0    0 -0.32292333717E+02 -0.28693912996E+02 -0.76872455003E+02  0.88178851196E+02  0.00000000000E+00 0.  1.
         11    1    1    2    0    0  0.11056353732E+02 -0.72291482413E+02 -0.96875880988E+01  0.73770934320E+02  0.00000000000E+00 0. -1.
</event>
<event>
 7    1  0.2686828E-009  0.1720425E+03  0.7561462E-02  0.1175734E+00
         -2   -1    0    0    0  501 -0.00000000000E+00  0.00000000000E+00  0.16362697651E+03  0.16362697651E+03  0.00000000000E+00 0.  1.
          2   -1    0    0  501    0  0.00000000000E+00 -0.00000000000E+00 -0.28453515587E+03  0.28453515587E+03  0.00000000000E+00 0. -1.
         25    2    1    2    0    0  0.68358149348E+02 -0.13801195970E+03  0.45696230742E+02  0.20360624089E+03  0.12508884132E+03 0.  0.
          5    1    3    3  502    0  0.33890157559E+02 -0.13833156960E+03  0.72381322754E+02  0.15981456195E+03  0.41800000000E+01 0. -1.
         -5    1    3    3    0  502  0.34467991788E+02  0.31960990334E+00 -0.26685092013E+02  0.43791678937E+02  0.41800000000E+01 0. -1.
        -11    1    1    2    0    0 -0.79842305479E+01 -0.64788823955E+01 -0.45353339917E+02  0.46504293309E+02  0.00000000000E+00 0. -1.
         11    1    1    2    0    0 -0.60373918800E+02  0.14449084210E+03 -0.12125107019E+03  0.19805159818E+03  0.00000000000E+00 0.  1.
</event>
<event>
 7    1  0.2686828E-009  0.1051365E+03  0.7561462E-02  0.1269851E+00
         -1   -1    0    0    0  501 -0.00000000000E+00  0.00000000000E+00  0.44907861916E+02  0.44907861916E+02  0.00000000000E+00 0. -1.
          1   -1    0    0  501    0  0.00000000000E+00 -0.00000000000E+00 -0.36381842899E+03  0.36381842899E+03  0.00000000000E+00 0.  1.
         25    2    1    2    0    0  0.42684287412E+02 -0.45232682021E+02 -0.13972837707E+03  0.19758552457E+03  0.12509227093E+03 0.  0.
          5    1    3    3  502    0 -0.15433715756E+02 -0.70985520523E+02 -0.95367080055E+02  0.11995622562E+03  0.41800000000E+01 0.  1.
         -5    1    3    3    0  502  0.58118003168E+02  0.25752838502E+02 -0.44361297018E+02  0.77629298956E+02  0.41800000000E+01 0.  1.
        -11    1    1    2    0    0 -0.14002094007E+02  0.42783802735E+02 -0.19798209422E+02  0.49178059227E+02  0.00000000000E+00 0. -1.
         11    1    1    2    0    0 -0.28682193405E+02  0.24488792855E+01 -0.15938398058E+03  0.16196270711E+03  0.00000000000E+00 0.  1.
</event>
<event>
 7    1  0.2686828E-009  0.1705464E+03  0.7561462E-02  0.1177279E+00
         -2   -1    0    0    0  501 -0.00000000000E+00  0.00000000000E+00  0.78851395952E+03  0.78851395952E+03  0.00000000000E+00 0.  1.
          2   -1    0    0  501    0  0.00000000000E+00 -0.00000000000E+00 -0.59483373694E+02  0.59483373694E+02  0.00000000000E+00 0. -1.
         25    2    1    2    0    0  0.14224005744E+02 -0.14826781133E+03  0.15698245552E+03  0.24995634578E+03  0.12509603207E+03 0.  0.
          5    1    3    3  502    0  0.15173027078E+02 -0.16010169759E+03  0.95255992092E+02  0.18695975704E+03  0.41800000000E+01 0. -1.
         -5    1    3    3    0  502 -0.94902133438E+00  0.11833886267E+02  0.61726463431E+02  0.62996588744E+02  0.41800000000E+01 0. -1.
        -11    1    1    2    0    0 -0.45997481098E+02  0.78774904367E+02  0.39153571774E+03  0.40202173087E+03  0.00000000000E+00 0.  1.
         11    1    1    2    0    0  0.31773475354E+02  0.69492906958E+02  0.18051241257E+03  0.19601925657E+03  0.00000000000E+00 0. -1.
</event>
<event>
 7    1  0.2686828E-009  0.8711088E+02  0.7561462E-02  0.1310003E+00
          1   -1    0    0  501    0  0.00000000000E+00  0.00000000000E+00  0.64024336382E+03  0.64024336382E+03  0.00000000000E+00 0. -1.
         -1   -1    0    0    0  501 -0.00000000000E+00 -0.00000000000E+00 -0.30870563861E+02  0.30870563861E+02  0.00000000000E+00 0.  1.
         25    2    1    2    0    0  0.17036842496E+02 -0.76531034081E+02  0.42633910242E+03  0.45117618571E+03  0.12509063559E+03 0.  0.
          5    1    3    3  502    0  0.29792641309E+02 -0.35001958786E+02  0.36342669726E+02  0.58745218000E+02  0.41800000000E+01 0. -1.
         -5    1    3    3    0  502 -0.12755798813E+02 -0.41529075295E+02  0.38999643270E+03  0.39243096771E+03  0.41800000000E+01 0. -1.
        -11    1    1    2    0    0  0.92624597210E+01  0.17551137289E+02 -0.55474252402E+01  0.20606055106E+02  0.00000000000E+00 0.  1.
         11    1    1    2    0    0 -0.26299302217E+02  0.58979896792E+02  0.18858112277E+03  0.19933168687E+03  0.00000000000E+00 0. -1.
</event>
<event>
 7    1  0.2686828E-009  0.1112421E+03  0.7561462E-02  0.1258287E+00
          4   -1    0    0  501    0  0.00000000000E+00  0.00000000000E+00  0.95863419831E+02  0.95863419831E+02  0.00000000000E+00 0. -1.
         -4   -1    0    0    0  501 -0.00000000000E+00 -0.00000000000E+00 -0.27988873807E+03  0.27988873807E+03  0.00000000000E+00 0.  1.
         25    2    1    2    0    0 -0.90772290043E+02  0.40153065585E+01 -0.47462454096E+01  0.15468124104E+03  0.12509207872E+03 0.  0.
          5    1    3    3  502    0 -0.36837355092E+02 -0.16943318476E+02 -0.61330739649E+02  0.73641013009E+02  0.41800000000E+01 0.  1.
         -5    1    3    3    0  502 -0.53934934951E+02  0.20958625034E+02  0.56584494239E+02  0.81040228034E+02  0.41800000000E+01 0.  1.
        -11    1    1    2    0    0  0.57227144428E+02 -0.43510070996E+02 -0.71042634166E+02  0.10106991742E+03  0.00000000000E+00 0.  1.
         11    1    1    2    0    0  0.33545145616E+02  0.39494764437E+02 -0.10823643866E+03  0.12000099944E+03  0.00000000000E+00 0. -1.
</event>
<event>
 7    1  0.2686828E-009  0.9007968E+02  0.7561462E-02  0.1302659E+00
         -2   -1    0    0    0  501 -0.00000000000E+00  0.00000000000E+00  0.50009065509E+02  0.50009065509E+02  0.00000000000E+00 0. -1.
          2   -1    0    0  501    0  0.00000000000E+00 -0.00000000000E+00 -0.29748821443E+03  0.29748821443E+03  0.00000000000E+00 0.  1.
         25    2    1    2    0    0  0.38426881034E+01 -0.52277481295E+02 -0.10687247605E+03  0.17267376844E+03  0.12508718108E+03 0.  0.
          5    1    3    3  502    0  0.27520889850E+02 -0.44439344707E+02 -0.12888616724E+03  0.13914514451E+03  0.41800000000E+01 0.  1.
         -5    1    3    3    0  502 -0.23678201746E+02 -0.78381365883E+01  0.22013691188E+02  0.33528623933E+02  0.41800000000E+01 0.  1.
        -11    1    1    2    0    0  0.37813987730E+02  0.47181296737E+02 -0.97003116974E+02  0.11430475551E+03  0.00000000000E+00 0. -1.
         11    1    1    2    0    0 -0.41656675833E+02  0.50961845577E+01 -0.43603555893E+02  0.60518755978E+02  0.00000000000E+00 0.  1.
</event>
<event>
 7    1  0.2686828E-009  0.1624348E+03  0.7561462E-02  0.1185975E+00
          1   -1    0    0  501    0  0.00000000000E+00  0.00000000000E+00  0.31975544051E+03  0.31975544051E+03  0.00000000000E+00 0. -1.
         -1   -1    0    0    0  501 -0.00000000000E+00 -0.00000000000E+00 -0.89746887703E+02  0.89746887703E+02  0.00000000000E+00 0.  1.
         25    2    1    2    0    0  0.82030656822E+02 -0.93760720374E+02  0.80361340552E+02  0.19397188444E+03  0.12508815113E+03 0.  0.
          5    1    3    3  502    0 -0.14999007963E+02 -0.68080867533E+02  0.58640837200E+02  0.91193173821E+02  0.41800000000E+01 0. -1.
         -5    1    3    3    0  502  0.97029664785E+02 -0.25679852841E+02  0.21720503352E+02  0.10277871062E+03  0.41800000000E+01 0. -1.
        -11    1    1    2    0    0  0.95208177188E+01 -0.11591264893E+02  0.96029585031E+01  0.17810676682E+02  0.00000000000E+00 0. -1.
         11    1    1    2    0    0 -0.91551474541E+02  0.10535198527E+03  0.14004425375E+03  0.19771976710E+03  0.00000000000E+00 0.  1.
</event>
<event>
 7    1  0.2686828E-009  0.7518428E+02  0.7561462E-02  0.1343301E+00
          1   -1    0    0  501    0  0.00000000000E+00  0.00000000000E+00  0.48858755471E+03  0.48858755471E+03  0.00000000000E+00 0. -1.
         -1   -1    0    0    0  501 -0.00000000000E+00 -0.00000000000E+00 -0.30082716005E+02  0.30082716005E+02  0.00000000000E+00 0.  1.
         25    2    1    2    0    0 -0.50822719899E+02  0.62098401148E+01  0.29829247534E+03  0.32748740200E+03  0.12509231252E+03 0.  0.
          5    1    3    3  502    0 -0.60767717805E+02  0.10239569920E+02  0.51480604740E+02  0.80407023224E+02  0.41800000000E+01 0.  1.
         -5    1    3    3    0  502  0.99449979061E+01 -0.40297298050E+01  0.24681187060E+03  0.24708037877E+03  0.41800000000E+01 0.  1.
        -11    1    1    2    0    0  0.60387038279E+02 -0.16934733108E+02  0.16461168906E+03  0.17615444290E+03  0.00000000000E+00 0. -1.
         11    1    1    2    0    0 -0.95643183800E+01  0.10724892993E+02 -0.43993257011E+01  0.15028425813E+02  0.00000000000E+00 0.  1.
</event>
<event>
 7    1  0.2686828E-009  0.1375347E+03  0.7561462E-02  0.1216685E+00
         -1   -1    0    0    0  501 -0.00000000000E+00  0.00000000000E+00  0.11005420112E+03  0.11005420112E+03  0.00000000000E+00 0.  1.
          1   -1    0    0  501    0  0.00000000000E+00 -0.00000000000E+00 -0.20850292483E+03  0.20850292483E+03  0.00000000000E+00 0. -1.
         25    2    1    2    0    0  0.10533968465E+03  0.11012239326E+02 -0.43059474774E+02  0.16946525890E+03  0.12508651817E+03 0.  0.
          5    1    3    3  502    0  0.12627573278E+03  0.30684436937E+02 -0.18278486463E+02  0.13129611885E+03  0.41800000000E+01 0.  1.
         -5    1    3    3    0  502 -0.20936048129E+02 -0.19672197611E+02 -0.24780988311E+02  0.38169140045E+02  0.41800000000E+01 0.  1.
        -11    1    1    2    0    0 -0.87810576543E+02 -0.27439183453E+02 -0.74511388499E+02  0.11838730150E+03  0.00000000000E+00 0. -1.
         11    1    1    2    0    0 -0.17529108104E+02  0.16426944127E+02  0.19122139559E+02  0.30704565550E+02  0.00000000000E+00 0.  1.
</event>
<event>
 7    1  0.2686828E-009  0.1179297E+03  0.7561462E-02  0.1246552E+00
          2   -1    0    0  501    0  0.00000000000E+00  0.00000000000E+00  0.41959710242E+03  0.41959710242E+03  0.00000000000E+00 0. -1.
         -2   -1    0    0    0  501 -0.00000000000E+00 -0.00000000000E+00 -0.48779323640E+02  0.48779323640E+02  0.00000000000E+00 0.  1.
         25    2    1    2    0    0 -0.79534839332E+02 -0.37304243342E+02  0.17058696577E+03  0.22904811890E+03  0.12508289509E+03 0.  0.
          5    1    3    3  502    0 -0.70405191905E+02  0.17733974132E+02  0.15461784925E+03  0.17086701435E+03  0.41800000000E+01 0.  1.
         -5    1    3    3    0  502 -0.91296474272E+01 -0.55038217474E+02  0.15969116519E+02  0.58181104555E+02  0.41800000000E+01 0.  1.
        -11    1    1    2    0    0  0.85866735362E+02  0.45224308031E+02  0.20596171665E+03  0.22768083583E+03  0.00000000000E+00 0. -1.
         11    1    1    2    0    0 -0.63318960303E+01 -0.79200646897E+01 -0.57309036326E+01  0.11647471334E+02  0.00000000000E+00 0.  1.
</event>
<event>
 7    1  0.2686828E-009  0.5099689E+02  0.7561462E-02  0.1440038E+00
          1   -1    0    0  501    0  0.00000000000E+00  0.00000000000E+00  0.40937362984E+03  0.40937362984E+03  0.00000000000E+00 0. -1.
         -1   -1    0    0    0  501 -0.00000000000E+00 -0.00000000000E+00 -0.31957118453E+02  0.31957118453E+02  0.00000000000E+00 0.  1.
         25    2    1    2    0    0 -0.35100193069E+01  0.30291054578E+02  0.25754636977E+03  0.28793899588E+03  0.12509542176E+03 0.  0.
          5    1    3    3  502    0  0.72153536707E+01  0.14466655725E+02 -0.10141846520E+02  0.19536501921E+02  0.41800000000E+01 0.  1.
         -5    1    3    3    0  502 -0.10725372978E+02  0.15824398853E+02  0.26768821629E+03  0.26840249396E+03  0.41800000000E+01 0.  1.
        -11    1    1    2    0    0  0.23323068202E+02 -0.37901959127E+02  0.15870239265E+02  0.47248158803E+02  0.00000000000E+00 0.  1.
         11    1    1    2    0    0 -0.19813048895E+02  0.76109045485E+01  0.10399990235E+03  0.10614359361E+03  0.00000000000E+00 0. -1.
</event>
<event>
 7    1  0.2686828E-009  0.9885932E+02  0.7561462E-02  0.1282713E+00
          2   -1    0    0  501    0  0.00000000000E+00  0.00000000000E+00  0.14099647164E+04  0.14099647164E+04  0.00000000000E+00 0. -1.
         -2   -1    0    0    0  501 -0.00000000000E+00 -0.00000000000E+00 -0.15110683276E+02  0.15110683276E+02  0.00000000000E+00 0.  1.
         25    2    1    2    0    0  0.68193092618E+02 -0.59835362089E+02  0.10348457301E+04  0.10463193525E+04  0.12509170201E+03 0.  0.
          5    1    3    3  502    0  0.48716783944E+02 -0.60875278048E+02  0.10156147304E+04  0.10186117403E+04  0.41800000000E+01 0.  1.
         -5    1    3    3    0  502  0.19476308675E+02  0.10399159596E+01  0.19230999733E+02  0.27707612231E+02  0.41800000000E+01 0.  1.
        -11    1    1    2    0    0 -0.26016464413E+02 -0.56468633945E+00  0.26244041367E+02  0.36958422565E+02  0.00000000000E+00 0.  1.
         11    1    1    2    0    0 -0.42176628205E+02  0.60400048428E+02  0.33376426165E+03  0.34179762459E+03  0.00000000000E+00 0. -1.
</event>
<event>
 7    1  0.2686828E-009  0.1305814E+03  0.7561462E-02  0.1226596E+00
          1   -1    0    0  501    0  0.00000000000E+00  0.00000000000E+00  0.19050704020E+03  0.19050704020E+03  0.00000000000E+00 0. -1.
         -1   -1    0    0    0  501 -0.00000000000E+00 -0.00000000000E+00 -0.13194857206E+03  0.13194857206E+03  0.00000000000E+00 0.  1.
         25    2    1    2    0    0  0.35225451657E+02 -0.86413267253E+02 -0.36318626795E+02  0.16023306502E+03  0.12508999668E+03 0.  0.
          5    1    3    3  502    0 -0.35133008836E+02  0.74883180747E+01  0.33079041694E+01  0.36315531767E+02  0.41800000000E+01 0. -1.
         -5    1    3    3    0  502  0.70358460493E+02 -0.93901585328E+02 -0.39626530965E+02  0.12391753325E+03  0.41800000000E+01 0. -1.
        -11    1    1    2    0    0  0.11812662348E+02  0.39201140719E+02 -0.59377278503E+01  0.41370581788E+02  0.00000000000E+00 0.  1.
         11    1    1    2    0    0 -0.47038114004E+02  0.47212126534E+02  0.10081482278E+03  0.12085196545E+03  0.00000000000E+00 0. -1.
</event>
<event>
 7    1  0.2686828E-009  0.1169055E+03  0.7561462E-02  0.1248291E+00
         -1   -1    0    0    0  501 -0.00000000000E+00  0.00000000000E+00  0.75547448022E+02  0.75547448022E+02  0.00000000000E+00 0.  1.
          1   -1    0    0  501    0  0.00000000000E+00 -0.00000000000E+00 -0.33674742792E+03  0.33674742792E+03  0.00000000000E+00 0. -1.
         25    2    1    2    0    0  0.72007701057E+02  0.16413965072E+02 -0.25692719138E+03  0.29515038394E+03  0.12509052806E+03 0.  0.
          5    1    3    3  502    0  0.60860609556E+02 -0.48224413872E+02 -0.16191348734E+03  0.17961920184E+03  0.41800000000E+01 0.  1.
         -5    1    3    3    0  502  0.11147091502E+02  0.64638378944E+02 -0.95013704044E+02  0.11553118210E+03  0.41800000000E+01 0.  1.
        -11    1    1    2    0    0 -0.34216878658E+02 -0.34356213692E+02 -0.39431820052E+02  0.62498101067E+02  0.00000000000E+00 0. -1.
         11    1    1    2    0    0 -0.37790822399E+02  0.17942248620E+02  0.35159031537E+02  0.54646390931E+02  0.00000000000E+00 0.  1.
</event>
<event>
 7    1  0.2686828E-009  0.8796547E+02  0.7561462E-02  0.1307855E+00
         -1   -1    0    0    0  501 -0.00000000000E+00  0.00000000000E+00  0.29303369100E+03  0.29303369100E+03  0.00000000000E+00 0.  1.
          1   -1    0    0  501    0  0.00000000000E+00 -0.00000000000E+00 -0.42208703229E+02  0.42208703229E+02  0.00000000000E+00 0. -1.
         25    2    1    2    0    0  0.87069648981E+01  0.22109130946E+02  0.16715341896E+03  0.21012588618E+03  0.12509195683E+03 0.  0.
          5    1    3    3  502    0  0.61387459548E+02  0.13071784433E+02  0.46900423917E+02  0.78462818594E+02  0.41800000000E+01 0.  1.
         -5    1    3    3    0  502 -0.52680494650E+02  0.90373465135E+01  0.12025299504E+03  0.13166306758E+03  0.41800000000E+01 0.  1.
        -11    1    1    2    0    0  0.67754173181E+01  0.16489332549E+02 -0.11527902337E+02  0.21229623172E+02  0.00000000000E+00 0. -1.
         11    1    1    2    0    0 -0.15482382216E+02 -0.38598463495E+02  0.95199471150E+02  0.10388688488E+03  0.00000000000E+00 0.  1.
</event>
<event>
 7    1  0.2686828E-009  0.1677346E+03  0.7561462E-02  0.1180231E+00
          2   -1    0    0  501    0  0.00000000000E+00  0.00000000000E+00  0.10060446562E+04  0.10060446562E+04  0.00000000000E+00 0. -1.
         -2   -1    0    0    0  501 -0.00000000000E+00 -0.00000000000E+00 -0.46714158838E+02  0.46714158838E+02  0.00000000000E+00 0.  1.
         25    2    1    2    0    0 -0.52030346428E+02  0.14058913458E+03  0.76944182466E+03  0.79382632565E+03  0.12508817708E+03 0.  0.
          5    1    3    3  502    0 -0.64359849412E+02  0.10864038845E+03  0.73235914021E+03  0.74317717058E+03  0.41800000000E+01 0.  1.
         -5    1    3    3    0  502  0.12329502983E+02  0.31948746137E+02  0.37082684451E+02  0.50649155073E+02  0.41800000000E+01 0.  1.
        -11    1    1    2    0    0 -0.87164067860E+01 -0.10262229414E+03  0.12779986135E+03  0.16413444356E+03  0.00000000000E+00 0.  1.
         11    1    1    2    0    0  0.60746753214E+02 -0.37966840447E+02  0.62088811377E+02  0.94798045854E+02  0.00000000000E+00 0. -1.
</event>
<event>
 7    1  0.2686828E-009  0.8670610E+02  0.7561462E-02  0.1311030E+00
          3   -1    0    0  501    0  0.00000000000E+00  0.00000000000E+00  0.28202693849E+03  0.28202693849E+03  0.00000000000E+00 0. -1.
         -3   -1    0    0    0  501 -0.00000000000E+00 -0.00000000000E+00 -0.46540517513E+02  0.46540517513E+02  0.00000000000E+00 0.  1.
         25    2    1    2    0    0 -0.28290120881E+02  0.69361670488E+01  0.10079103459E+03  0.16326556795E+03  0.12509345176E+03 0.  0.
          5    1    3    3  502    0 -0.81604170187E+01  0.39592846471E+02 -0.13350519292E+02  0.42777268064E+02  0.41800000000E+01 0. -1.
         -5    1    3    3    0  502 -0.20129703863E+02 -0.32656679422E+02  0.11414155388E+03  0.12048829989E+03  0.41800000000E+01 0. -1.
        -11    1    1    2    0    0  0.44174695087E+02  0.30388734865E+02  0.91448363023E+02  0.10600793363E+03  0.00000000000E+00 0. -1.
         11    1    1    2    0    0 -0.15884574206E+02 -0.37324901914E+02  0.43247023368E+02  0.59293954420E+02  0.00000000000E+00 0.  1.
</event>
<event>
 7    1  0.2686828E-009  0.1129983E+03  0.7561462E-02  0.1255116E+00
          3   -1    0    0  501    0  0.00000000000E+00  0.00000000000E+00  0.24521715781E+03  0.24521715781E+03  0.00000000000E+00 0. -1.
         -3   -1    0    0    0  501 -0.00000000000E+00 -0.00000000000E+00 -0.12653354167E+03  0.12653354167E+03  0.00000000000E+00 0.  1.
         25    2    1    2    0    0  0.52150648924E+02  0.85209979409E+02 -0.38001899165E+02  0.16453363468E+03  0.12508693707E+03 0.  0.
          5    1    3    3  502    0 -0.12772336711E+00  0.69962869108E+02 -0.71774347541E+02  0.10031873570E+03  0.41800000000E+01 0.  1.
         -5    1    3    3    0  502  0.52278372291E+02  0.15247110301E+02  0.33772448375E+02  0.64214898981E+02  0.41800000000E+01 0.  1.
        -11    1    1    2    0    0 -0.31511801409E+02 -0.35502273079E+02  0.67919792764E+01  0.47953477499E+02  0.00000000000E+00 0.  1.
         11    1    1    2    0    0 -0.20638847515E+02 -0.49707706330E+02  0.14989353604E+03  0.15926358730E+03  0.00000000000E+00 0. -1.
</event>
<event>
 7    1  0.2686828E-009  0.8560374E+02  0.7561462E-02  0.1313861E+00
         -2   -1    0    0    0  501 -0.00000000000E+00  0.00000000000E+00  0.94441135249E+02  0.94441135249E+02  0.00000000000E+00 0.  1.
          2   -1    0    0  501    0  0.00000000000E+00 -0.00000000000E+00 -0.26921878454E+03  0.26921878454E+03  0.00000000000E+00 0. -1.
         25    2    1    2    0    0  0.23411806854E+02 -0.21365039646E+02 -0.21195168925E+03  0.24814389763E+03  0.12508915915E+03 0.  0.
          5    1    3    3  502    0  0.21164068352E+02  0.20379471446E+02 -0.20303789111E+03  0.20519526864E+03  0.41800000000E+01 0. -1.
         -5    1    3    3    0  502  0.22477385020E+01 -0.41744511093E+02 -0.89137981315E+01  0.42948628987E+02  0.41800000000E+01 0. -1.
        -11    1    1    2    0    0 -0.51033007258E+02  0.41137068318E+02  0.53173667662E+00  0.65550812073E+02  0.00000000000E+00 0. -1.
         11    1    1    2    0    0  0.27621200404E+02 -0.19772028672E+02  0.36642303277E+02  0.49965210086E+02  0.00000000000E+00 0.  1.
</event>
<event>
 7    1  0.2686828E-009  0.2574616E+03  0.7561462E-02  0.1108678E+00
          1   -1    0    0  501    0  0.00000000000E+00  0.00000000000E+00  0.81788682251E+03  0.81788682251E+03  0.00000000000E+00 0.  1.
         -1   -1    0    0    0  501 -0.00000000000E+00 -0.00000000000E+00 -0.10379324090E+03  0.10379324090E+03  0.00000000000E+00 0. -1.
         25    2    1    2    0    0  0.24349415732E+03 -0.79820708761E+02  0.49907520055E+03  0.57478924109E+03  0.12508343484E+03 0.  0.
          5    1    3    3  502    0  0.11663674533E+03 -0.56295654913E+02  0.12898940780E+03  0.18283618583E+03  0.41800000000E+01 0.  1.
         -5    1    3    3    0  502  0.12685741200E+03 -0.23525053848E+02  0.37008579275E+03  0.39195305526E+03  0.41800000000E+01 0.  1.
        -11    1    1    2    0    0 -0.15090199642E+03  0.50751729375E+02  0.18758649235E+03  0.24604032733E+03  0.00000000000E+00 0.  1.
         11    1    1    2    0    0 -0.92592160899E+02  0.29068979386E+02  0.27431888712E+02  0.10085049499E+03  0.00000000000E+00 0. -1.
</event>
<event>
 7    1  0.2686828E-009  0.1167567E+03  0.7561462E-02  0.1248545E+00
         -4   -1    0    0    0  501 -0.00000000000E+00  0.00000000000E+00  0.98293313064E+02  0.98293313064E+02  0.00000000000E+00 0.  1.
          4   -1    0    0  501    0  0.00000000000E+00 -0.00000000000E+00 -0.14922644752E+03  0.14922644752E+03  0.00000000000E+00 0. -1.
         25    2    1    2    0    0 -0.18672082242E+02  0.47201002964E+02 -0.83752396534E+01  0.13525351932E+03  0.12508712369E+03 0.  0.
          5    1    3    3  502    0  0.73705286744E+01  0.85058958289E+02 -0.19750102563E+02  0.87731921382E+02  0.41800000000E+01 0. -1.
         -5    1    3    3    0  502 -0.26042610916E+02 -0.37857955325E+02  0.11374862910E+02  0.47521597942E+02  0.41800000000E+01 0. -1.
        -11    1    1    2    0    0 -0.13304190931E+02  0.21972573158E+02 -0.15660396243E+01  0.25734178589E+02  0.00000000000E+00 0.  1.
         11    1    1    2    0    0  0.31976273173E+02 -0.69173576122E+02 -0.40991855183E+02  0.86532062676E+02  0.00000000000E+00 0. -1.
</event>
<event>
 7    1  0.2686828E-009  0.1323737E+03  0.7561462E-02  0.1223976E+00
          1   -1    0    0  501    0  0.00000000000E+00  0.00000000000E+00  0.22793797709E+03  0.22793797709E+03  0.00000000000E+00 0. -1.
         -1   -1    0    0    0  501 -0.00000000000E+00 -0.00000000000E+00 -0.16770044367E+03  0.16770044367E+03  0.00000000000E+00 0.  1.
         25    2    1    2    0    0  0.48498834953E+02 -0.80316515307E+02 -0.10201355443E+03  0.18670116735E+03  0.12509069102E+03 0.  0.
          5    1    3    3  502    0 -0.41296988391E+02 -0.11523492359E+02 -0.25266583078E+02  0.49941012672E+02  0.41800000000E+01 0.  1.
         -5    1    3    3    0  502  0.89795823343E+02 -0.68793022948E+02 -0.76746971350E+02  0.13676015468E+03  0.41800000000E+01 0.  1.
        -11    1    1    2    0    0 -0.60701732622E+02  0.67351481098E+02  0.68831866413E+02  0.11383649759E+03  0.00000000000E+00 0.  1.
         11    1    1    2    0    0  0.12202897669E+02  0.12965034210E+02  0.93419221434E+02  0.95100755816E+02  0.00000000000E+00 0. -1.
</event>
<event>
 7    1  0.2686828E-009  0.7424542E+02  0.7561462E-02  0.1346224E+00
         -2   -1    0    0    0  501 -0.00000000000E+00  0.00000000000E+00  0.30259369551E+02  0.30259369551E+02  0.00000000000E+00 0. -1.
          2   -1    0    0  501    0  0.00000000000E+00 -0.00000000000E+00 -0.57001192622E+03  0.57001192622E+03  0.00000000000E+00 0.  1.
         25    2    1    2    0    0  0.10586031627E+02 -0.61061974165E+02 -0.39894670215E+03  0.42266369782E+03  0.12508197929E+03 0.  0.
          5    1    3    3  502    0  0.10800010451E+02 -0.22714056812E+02 -0.37782463453E+03  0.37868389913E+03  0.41800000000E+01 0. -1.
         -5    1    3    3    0  502 -0.21397882437E+00 -0.38347917353E+02 -0.21122067620E+02  0.43979798690E+02  0.41800000000E+01 0. -1.
        -11    1    1    2    0    0 -0.34047667254E+02  0.42783489130E+02 -0.28957456660E+02  0.61872488909E+02  0.00000000000E+00 0. -1.
         11    1    1    2    0    0  0.23461635627E+02  0.18278485035E+02 -0.11184839786E+03  0.11573510904E+03  0.00000000000E+00 0.  1.
</event>
<event>
 7    1  0.3182118E-009  0.1341877E+03  0.7561462E-02  0.1221371E+00
          4   -1    0    0  501    0  0.00000000000E+00  0.00000000000E+00  0.29440089859E+03  0.29440089859E+03  0.00000000000E+00 0.  1.
         -4   -1    0    0    0  501 -0.00000000000E+00 -0.00000000000E+00 -0.83417551083E+02  0.83417551083E+02  0.00000000000E+00 0. -1.
         25    2    1    2    0    0  0.10529988784E+03 -0.39499537860E+02  0.12318886328E+03  0.20849668234E+03  0.12508833135E+03 0.  0.
          5    1    3    3  502    0 -0.11649193077E+02  0.20588125170E+02  0.55671365331E+02  0.60632894663E+02  0.41800000000E+01 0. -1.
         -5    1    3    3    0  502  0.11694908092E+03 -0.60087663030E+02  0.67517497946E+02  0.14786378767E+03  0.41800000000E+01 0. -1.
        -11    1    1    2    0    0 -0.69298312291E+02  0.30387127217E+02  0.10415593774E+03  0.12874040917E+03  0.00000000000E+00 0.  1.
         11    1    1    2    0    0 -0.36001575550E+02  0.91124106438E+01 -0.16361453510E+02  0.40581358168E+02  0.00000000000E+00 0. -1.
</event>
<event>
 7    1  0.2686828E-009  0.9927672E+02  0.7561462E-02  0.1281824E+00
         -1   -1    0    0    0  501 -0.00000000000E+00  0.00000000000E+00  0.51163230004E+02  0.51163230004E+02  0.00000000000E+00 0.  1.
          1   -1    0    0  501    0  0.00000000000E+00 -0.00000000000E+00 -0.29946945242E+03  0.29946945242E+03  0.00000000000E+00 0. -1.
         25    2    1    2    0    0  0.46591599705E+02 -0.21067614609E+02 -0.17422033792E+03  0.22048679065E+03  0.12508827745E+03 0.  0.
          5    1    3    3  502    0  0.78546909819E+02  0.10898597179E+02 -0.66440959372E+02  0.10353873645E+03  0.41800000000E+01 0. -1.
         -5    1    3    3    0  502 -0.31955310114E+02 -0.31966211789E+02 -0.10777937855E+03  0.11694805420E+03  0.41800000000E+01 0. -1.
        -11    1    1    2    0    0 -0.26910636621E+02 -0.16339809671E+02  0.12436808352E+02  0.33850346311E+02  0.00000000000E+00 0.  1.
         11    1    1    2    0    0 -0.19680963084E+02  0.37407424281E+02 -0.86522692846E+02  0.96295545466E+02  0.00000000000E+00 0. -1.
</event>
<event>
 7    1  0.2686828E-009  0.1329548E+03  0.7561462E-02  0.1223136E+00
         -1   -1    0    0    0  501 -0.00000000000E+00  0.00000000000E+00  0.31341148466E+02  0.31341148466E+02  0.00000000000E+00 0.  1.
          1   -1    0    0  501    0  0.00000000000E+00 -0.00000000000E+00 -0.74971639316E+03  0.74971639316E+03  0.00000000000E+00 0. -1.
         25    2    1    2    0    0  0.97071520769E+01  0.83396691527E+02 -0.56782871708E+03  0.58747369467E+03  0.12508658212E+03 0.  0.
          5    1    3    3  502    0  0.16207295024E+02 -0.29677529337E+02 -0.18928388641E+03  0.19232601024E+03  0.41800000000E+01 0. -1.
         -5    1    3    3    0  502 -0.65001429469E+01  0.11307422086E+03 -0.37854483067E+03  0.39514768443E+03  0.41800000000E+01 0. -1.
        -11    1    1    2    0    0  0.34790890903E+02 -0.17391214136E+02 -0.71531621682E+02  0.81422560261E+02  0.00000000000E+00 0. -1.
         11    1    1    2    0    0 -0.44498042980E+02 -0.66005477391E+02 -0.79014905932E+02  0.11216128670E+03  0.00000000000E+00 0.  1.
</event>
<event>
 7    1  0.2686828E-009  0.8268497E+02  0.7561462E-02  0.1321600E+00
         -2   -1    0    0    0  501 -0.00000000000E+00  0.00000000000E+00  0.50733401046E+02  0.50733401046E+02  0.00000000000E+00 0.  1.
          2   -1    0    0  501    0  0.00000000000E+00 -0.00000000000E+00 -0.52600860694E+03  0.52600860694E+03  0.00000000000E+00 0. -1.
         25    2    1    2    0    0  0.45534515022E+01 -0.11291382484E+01 -0.47001199806E+03  0.48639544810E+03  0.12508894730E+03 0.  0.
          5    1    3    3  502    0  0.48366565052E+02  0.19803210940E+02 -0.38377302424E+03  0.38733796394E+03  0.41800000000E+01 0.  1.
         -5    1    3    3    0  502 -0.43813113550E+02 -0.20932349188E+02 -0.86238973824E+02  0.99057484158E+02  0.41800000000E+01 0.  1.
        -11    1    1    2    0    0  0.17624856658E+02 -0.24582407949E+02 -0.34254851107E+02  0.45698196651E+02  0.00000000000E+00 0. -1.
         11    1    1    2    0    0 -0.22178308160E+02  0.25711546197E+02  0.28991643269E+02  0.44648363241E+02  0.00000000000E+00 0.  1.
</event>
<event>
 7    1  0.2686828E-009  0.1763486E+03  0.7561462E-02  0.1171384E+00
         -2   -1    0    0    0  501 -0.00000000000E+00  0.00000000000E+00  0.33326307494E+02  0.33326307494E+02  0.00000000000E+00 0.  1.
          2   -1    0    0  501    0  0.00000000000E+00 -0.00000000000E+00 -0.11262452763E+04  0.11262452763E+04  0.00000000000E+00 0. -1.
         25    2    1    2    0    0 -0.45500318189E+02  0.14331135917E+03 -0.71489242473E+03  0.74116583588E+03  0.12508873939E+03 0.  0.
          5    1    3    3  502    0  0.34140344333E+02  0.72168540443E+01 -0.88630790204E+02  0.95344299597E+02  0.41800000000E+01 0. -1.
         -5    1    3    3    0  502 -0.79640662522E+02  0.13609450513E+03 -0.62626163453E+03  0.64582153629E+03  0.41800000000E+01 0. -1.
        -11    1    1    2    0    0  0.53285104882E+02 -0.80605044220E+02 -0.31366657563E+03  0.32821212078E+03  0.00000000000E+00 0. -1.
         11    1    1    2    0    0 -0.77847866931E+01 -0.62706314953E+02 -0.64359968473E+02  0.90193627162E+02  0.00000000000E+00 0.  1.
</event>
<event>
 7    1  0.2686828E-009  0.8721784E+02  0.7561462E-02  0.1309732E+00
          1   -1    0    0  501    0  0.00000000000E+00  0.00000000000E+00  0.16616896526E+03  0.16616896526E+03  0.00000000000E+00 0. -1.
         -1   -1    0    0    0  501 -0.00000000000E+00 -0.00000000000E+00 -0.78891960213E+02  0.78891960213E+02  0.00000000000E+00 0.  1.
         25    2    1    2    0    0 -0.22004496869E+02 -0.28052193253E+02  0.38803168446E+02  0.13573718371E+03  0.12509106176E+03 0.  0.
          5    1    3    3  502    0 -0.29378780300E+02  0.45653511083E+02  0.65665231498E+01  0.54844757566E+02  0.41800000000E+01 0. -1.
         -5    1    3    3    0  502  0.73742834315E+01 -0.73705704336E+02  0.32236645296E+02  0.80892426146E+02  0.41800000000E+01 0. -1.
        -11    1    1    2    0    0  0.15702471677E+02 -0.13156674000E+01 -0.25223280626E+02  0.29740754581E+02  0.00000000000E+00 0.  1.
         11    1    1    2    0    0  0.63020251913E+01  0.29367860653E+02  0.73697117226E+02  0.79582987179E+02  0.00000000000E+00 0. -1.
</event>
<event>
 7    1  0.2686828E-009  0.2067843E+03  0.7561462E-02  0.1144138E+00
          2   -1    0    0  501    0  0.00000000000E+00  0.00000000000E+00  0.12108253720E+04  0.12108253720E+04  0.00000000000E+00 0. -1.
         -2   -1    0    0    0  501 -0.00000000000E+00 -0.00000000000E+00 -0.69530079741E+02  0.69530079741E+02  0.00000000000E+00 0.  1.
         25    2    1    2    0    0  0.10047016286E+03 -0.17434322449E+03  0.97419137470E+03  0.10025900145E+04  0.12509232238E+03 0.  0.
          5    1    3    3  502    0  0.93128419411E+02 -0.12429036409E+03  0.89597615369E+03  0.90934687413E+03  0.41800000000E+01 0. -1.
         -5    1    3    3    0  502  0.73417434512E+01 -0.50052860406E+02  0.78215221008E+02  0.93243140386E+02  0.41800000000E+01 0. -1.
        -11    1    1    2    0    0 -0.74919804503E+02  0.16318506280E+03  0.10098921310E+03  0.20601253115E+03  0.00000000000E+00 0.  1.
         11    1    1    2    0    0 -0.25550358359E+02  0.11158161694E+02  0.66114704484E+02  0.71752906099E+02  0.00000000000E+00 0. -1.
</event>
<event>
 7    1  0.2686828E-009  0.8895826E+02  0.7561462E-02  0.1305394E+00
          3   -1    0    0  501    0  0.00000000000E+00  0.00000000000E+00  0.27335242043E+03  0.27335242043E+03  0.00000000000E+00 0. -1.
         -3   -1    0    0    0  501 -0.00000000000E+00 -0.00000000000E+00 -0.50916141420E+02  0.50916141420E+02  0.00000000000E+00 0.  1.
         25    2    1    2    0    0 -0.20370982822E+02  0.39252962508E+02  0.14363115130E+03  0.19553297951E+03  0.12508983350E+03 0.  0.
          5    1    3    3  502    0  0.16754981040E+02 -0.18213845493E+02  0.12065954272E+03  0.12324232717E+03  0.41800000000E+01 0. -1.
         -5    1    3    3    0  502 -0.37125963862E+02  0.57466808001E+02  0.22971608575E+02  0.72290652335E+02  0.41800000000E+01 0. -1.
        -11    1    1    2    0    0 -0.25708146034E+02 -0.34877322866E+01 -0.52051248050E+01  0.26460657082E+02  0.00000000000E+00 0.  1.
         11    1    1    2    0    0  0.46079128856E+02 -0.35765230221E+02  0.84010252522E+02  0.10227492526E+03  0.00000000000E+00 0. -1.
</event>
<event>
 7    1  0.2686828E-009  0.1569225E+03  0.7561462E-02  0.1192216E+00
          3   -1    0    0  501    0  0.00000000000E+00  0.00000000000E+00  0.92271418979E+02  0.92271418979E+02  0.00000000000E+00 0. -1.
         -3   -1    0    0    0  501 -0.00000000000E+00 -0.00000000000E+00 -0.36950322110E+03  0.36950322110E+03  0.00000000000E+00 0.  1.
         25    2    1    2    0    0 -0.48177923236E+00  0.14120996664E+03 -0.86871662711E+02  0.20768681181E+03  0.12508652695E+03 0.  0.
          5    1    3    3  502    0 -0.39663766487E+02  0.19198947123E+02 -0.63426459548E+02  0.77344696737E+02  0.41800000000E+01 0.  1.
         -5    1    3    3    0  502  0.39181987254E+02  0.12201101952E+03 -0.23445203163E+02  0.13034211507E+03  0.41800000000E+01 0.  1.
        -11    1    1    2    0    0 -0.25191749836E+01 -0.10520523902E+03 -0.19086584098E+03  0.21795471505E+03  0.00000000000E+00 0.  1.
         11    1    1    2    0    0  0.30009542159E+01 -0.36004727619E+02  0.50570156780E+00  0.36133113223E+02  0.00000000000E+00 0. -1.
</event>
<event>
 7    1  0.2686828E-009  0.1005032E+03  0.7561462E-02  0.1279241E+00
         -1   -1    0    0    0  501 -0.00000000000E+00  0.00000000000E+00  0.95199811559E+02  0.95199811559E+02  0.00000000000E+00 0.  1.
          1   -1    0    0  501    0  0.00000000000E+00 -0.00000000000E+00 -0.17425958528E+03  0.17425958528E+03  0.00000000000E+00 0. -1.
         25    2    1    2    0    0 -0.42960288689E+02 -0.46315254809E+02 -0.14828531759E+02  0.14091802327E+03  0.12508922694E+03 0.  0.
          5    1    3    3  502    0 -0.63494731697E+02 -0.77491728522E+02  0.69495542082E+00  0.10027215120E+03  0.41800000000E+01 0. -1.
         -5    1    3    3    0  502  0.20534443008E+02  0.31176473712E+02 -0.15523487180E+02  0.40645872078E+02  0.41800000000E+01 0. -1.
        -11    1    1    2    0    0  0.33996326259E+02  0.36602757970E+02 -0.88088637288E+02  0.10126756692E+03  0.00000000000E+00 0. -1.
         11    1    1    2    0    0  0.89639624294E+01  0.97124968391E+01  0.23857395326E+02  0.27273806647E+02  0.00000000000E+00 0.  1.
</event>
<event>
 7    1  0.2686828E-009  0.1233270E+03  0.7561462E-02  0.1237707E+00
         -1   -1    0    0    0  501 -0.00000000000E+00  0.00000000000E+00  0.25018205313E+02  0.25018205313E+02  0.00000000000E+00 0.  1.
          1   -1    0    0  501    0  0.00000000000E+00 -0.00000000000E+00 -0.66601747511E+03  0.66601747511E+03  0.00000000000E+00 0. -1.
         25    2    1    2    0    0 -0.69870228371E+02  0.63094063188E+01 -0.34468232354E+03  0.37332996443E+03  0.12509077009E+03 0.  0.
          5    1    3    3  502    0  0.31664074562E+02 -0.19563747065E+02 -0.11236352826E+03  0.11844149906E+03  0.41800000000E+01 0.  1.
         -5    1    3    3    0  502 -0.10153430293E+03  0.25873153384E+02 -0.23231879528E+03  0.25488846537E+03  0.41800000000E+01 0.  1.
        -11    1    1    2    0    0  0.86825511076E+02 -0.20249673047E+01 -0.28210430005E+03  0.29517046935E+03  0.00000000000E+00 0. -1.
         11    1    1    2    0    0 -0.16955282705E+02 -0.42844390141E+01 -0.14212646206E+02  0.22535246647E+02  0.00000000000E+00 0.  1.
</event>
<event>
 7    1  0.2686828E-009  0.4853397E+02  0.7561462E-02  0.1453413E+00
         -1   -1    0    0    0  501 -0.00000000000E+00  0.00000000000E+00  0.37752776782E+03  0.37752776782E+03  0.00000000000E+00 0.  1.
          1   -1    0    0  501    0  0.00000000000E+00 -0.00000000000E+00 -0.34374015922E+02  0.34374015922E+02  0.00000000000E+00 0. -1.
         25    2    1    2    0    0 -0.16146408844E+02  0.13014671424E+02  0.24040967225E+03  0.27179852168E+03  0.12509011825E+03 0.  0.
          5    1    3    3  502    0 -0.34223074556E+01 -0.95527241631E+01  0.24492480311E+03  0.24517054942E+03  0.41800000000E+01 0.  1.
         -5    1    3    3    0  502 -0.12724101389E+02  0.22567395588E+02 -0.45151308549E+01  0.26627972255E+02  0.41800000000E+01 0.  1.
        -11    1    1    2    0    0  0.11458013877E+02  0.21850302212E+02  0.10197378631E+03  0.10491603731E+03  0.00000000000E+00 0.  1.
         11    1    1    2    0    0  0.46883949677E+01 -0.34864973637E+02  0.77029332771E+00  0.35187224754E+02  0.00000000000E+00 0. -1.
</event>
<event>
 7    1  0.2686828E-009  0.1027692E+03  0.7561462E-02  0.1274578E+00
         -2   -1    0    0    0  501 -0.00000000000E+00  0.00000000000E+00  0.21280501721E+02  0.21280501721E+02  0.00000000000E+00 0.  1.
          2   -1    0    0  501    0  0.00000000000E+00 -0.00000000000E+00 -0.67181065090E+03  0.67181065090E+03  0.00000000000E+00 0. -1.
         25    2    1    2    0    0  0.19809557610E+02 -0.77320013049E+01 -0.23171879422E+03  0.26417957852E+03  0.12508016507E+03 0.  0.
          5    1    3    3  502    0 -0.25090886986E+02  0.41820854822E+02 -0.15387451078E+03  0.16147251771E+03  0.41800000000E+01 0.  1.
         -5    1    3    3    0  502  0.44900444596E+02 -0.49552856127E+02 -0.77844283442E+02  0.10270706081E+03  0.41800000000E+01 0.  1.
        -11    1    1    2    0    0 -0.34107535217E+02 -0.32364996321E+02 -0.27274711662E+03  0.27677031375E+03  0.00000000000E+00 0. -1.
         11    1    1    2    0    0  0.14297977607E+02  0.40096997626E+02 -0.14606423833E+03  0.15214126035E+03  0.00000000000E+00 0.  1.
</event>
<event>
 7    1  0.2686828E-009  0.1012039E+03  0.7561462E-02  0.1277784E+00
          1   -1    0    0  501    0  0.00000000000E+00  0.00000000000E+00  0.15314302092E+02  0.15314302092E+02  0.00000000000E+00 0. -1.
         -1   -1    0    0    0  501 -0.00000000000E+00 -0.00000000000E+00 -0.80827215444E+03  0.80827215444E+03  0.00000000000E+00 0.  1.
         25    2    1    2    0    0 -0.12231651482E+02 -0.22903824251E+02 -0.43567385073E+03  0.45401934442E+03  0.12509061690E+03 0.  0.
          5    1    3    3  502    0 -0.60503055520E+02 -0.20659128603E+02 -0.13468525411E+03  0.14914760942E+03  0.41800000000E+01 0. -1.
         -5    1    3    3    0  502  0.48271404037E+02 -0.22446956478E+01 -0.30098859662E+03  0.30487173500E+03  0.41800000000E+01 0. -1.
        -11    1    1    2    0    0 -0.37106616853E+02  0.14218427879E+02 -0.10308977551E+03  0.11048333142E+03  0.00000000000E+00 0. -1.
         11    1    1    2    0    0  0.49338268335E+02  0.86853963719E+01 -0.25419422610E+03  0.25908378069E+03  0.00000000000E+00 0.  1.
</event>
<event>
 7    1  0.2686828E-009  0.1087028E+03  0.7561462E-02  0.1262991E+00
          1   -1    0    0  501    0  0.00000000000E+00  0.00000000000E+00  0.11649458540E+04  0.11649458540E+04  0.00000000000E+00 0. -1.
         -1   -1    0    0    0  501 -0.00000000000E+00 -0.00000000000E+00 -0.11276311089E+02  0.11276311089E+02  0.00000000000E+00 0.  1.
         25    2    1    2    0    0 -0.93320977812E+01 -0.32458965044E+02  0.70430575605E+03  0.71612426158E+03  0.12508672015E+03 0.  0.
          5    1    3    3  502    0 -0.62463108898E+02 -0.16063572512E+02  0.50658956000E+03  0.51069573430E+03  0.41800000000E+01 0. -1.
         -5    1    3    3    0  502  0.53131011117E+02 -0.16395392532E+02  0.19771619605E+03  0.20542852728E+03  0.41800000000E+01 0. -1.
        -11    1    1    2    0    0  0.42690557223E+02  0.44389809466E+02  0.32512027047E+03  0.33090199324E+03  0.00000000000E+00 0. -1.
         11    1    1    2    0    0 -0.33358459441E+02 -0.11930844423E+02  0.12424351643E+03  0.12919591030E+03  0.00000000000E+00 0.  1.
</event>
<event>
 7    1  0.2686828E-009  0.1605211E+03  0.7561462E-02  0.1188110E+00
          1   -1    0    0  501    0  0.00000000000E+00  0.00000000000E+00  0.44988260022E+03  0.44988260022E+03  0.00000000000E+00 0. -1.
         -1   -1    0    0    0  501 -0.00000000000E+00 -0.00000000000E+00 -0.97015512770E+02  0.97015512770E+02  0.00000000000E+00 0.  1.
         25    2    1    2    0    0  0.13898043063E+03  0.26049274277E+02  0.43233357709E+02  0.19367588520E+03  0.12508837076E+03 0.  0.
          5    1    3    3  502    0  0.12868111540E+02  0.45624400510E+02  0.45675868007E+02  0.65961591359E+02  0.41800000000E+01 0. -1.
         -5    1    3    3    0  502  0.12611231909E+03 -0.19575126233E+02 -0.24425102977E+01  0.12771429384E+03  0.41800000000E+01 0. -1.
        -11    1    1    2    0    0 -0.10805423176E+03 -0.46486717327E+01  0.12725635185E+03  0.16700750353E+03  0.00000000000E+00 0.  1.
         11    1    1    2    0    0 -0.30926198877E+02 -0.21400602544E+02  0.18237737789E+03  0.18621472426E+03  0.00000000000E+00 0. -1.
</event>
<event>
 7    1  0.3579258E-009  0.2535035E+03  0.7561462E-02  0.1111111E+00
         -1   -1    0    0    0  501 -0.00000000000E+00  0.00000000000E+00  0.11213730888E+03  0.11213730888E+03  0.00000000000E+00 0.  1.
          1   -1    0    0  501    0  0.00000000000E+00 -0.00000000000E+00 -0.64516727274E+03  0.64516727274E+03  0.00000000000E+00 0. -1.
         25    2    1    2    0    0  0.14737310836E+03  0.18031881721E+03 -0.16279514037E+03  0.31045589647E+03  0.12508755740E+03 0.  0.
          5    1    3    3  502    0 -0.19519933282E+02  0.54711935926E+01 -0.36286103178E+01  0.21014303878E+02  0.41800000000E+01 0.  1.
         -5    1    3    3    0  502  0.16689304164E+03  0.17484762361E+03 -0.15916653005E+03  0.28944159259E+03  0.41800000000E+01 0.  1.
        -11    1    1    2    0    0 -0.20082723556E+02 -0.80020669839E+02 -0.82858923748E+02  0.11692828841E+03  0.00000000000E+00 0. -1.
         11    1    1    2    0    0 -0.12729038481E+03 -0.10029814737E+03 -0.28737589974E+03  0.32992039673E+03  0.00000000000E+00 0.  1.
</event>
<event>
 7    1  0.2686828E-009  0.2977522E+03  0.7561462E-02  0.1086370E+00
          2   -1    0    0  501    0  0.00000000000E+00  0.00000000000E+00  0.92570934779E+03  0.92570934779E+03  0.00000000000E+00 0. -1.
         -2   -1    0    0    0  501 -0.00000000000E+00 -0.00000000000E+00 -0.10408794728E+03  0.10408794728E+03  0.00000000000E+00 0.  1.
         25    2    1    2    0    0  0.29060758275E+03  0.69696862094E+01  0.43225538833E+03  0.53571812610E+03  0.12509135147E+03 0.  0.
          5    1    3    3  502    0  0.13757600161E+03  0.23451176722E+02  0.10716680138E+03  0.17600940210E+03  0.41800000000E+01 0.  1.
         -5    1    3    3    0  502  0.15303158114E+03 -0.16481490513E+02  0.32508858695E+03  0.35970872400E+03  0.41800000000E+01 0.  1.
        -11    1    1    2    0    0 -0.26316732692E+03  0.19360567713E+02  0.35824015750E+03  0.44493582007E+03  0.00000000000E+00 0.  1.
         11    1    1    2    0    0 -0.27440255835E+02 -0.26330253922E+02  0.31125854676E+02  0.49143348901E+02  0.00000000000E+00 0. -1.
</event>
<event>
 7    1  0.2686828E-009  0.1538799E+03  0.7561462E-02  0.1195785E+00
          2   -1    0    0  501    0  0.00000000000E+00  0.00000000000E+00  0.36860870104E+03  0.36860870104E+03  0.00000000000E+00 0. -1.
         -2   -1    0    0    0  501 -0.00000000000E+00 -0.00000000000E+00 -0.75621205459E+02  0.75621205459E+02  0.00000000000E+00 0.  1.
         25    2    1    2    0    0 -0.10234022323E+03  0.72156696771E+02  0.17851188151E+03  0.25138107183E+03  0.12508333723E+03 0.  0.
          5    1    3    3  502    0 -0.10009356440E+03  0.94127902280E+02  0.18257536627E+03  0.22853888157E+03  0.41800000000E+01 0.  1.
         -5    1    3    3    0  502 -0.22466588347E+01 -0.21971205509E+02 -0.40634847548E+01  0.22842190258E+02  0.41800000000E+01 0.  1.
        -11    1    1    2    0    0 -0.11704497452E+02 -0.18235936863E+02  0.42259855853E+02  0.47491473663E+02  0.00000000000E+00 0. -1.
         11    1    1    2    0    0  0.11404472068E+03 -0.53920759908E+02  0.72215758218E+02  0.14535736101E+03  0.00000000000E+00 0.  1.
</event>
<event>
 7    1  0.2686828E-009  0.9916816E+02  0.7561462E-02  0.1282055E+00
          1   -1    0    0  501    0  0.00000000000E+00  0.00000000000E+00  0.15942007888E+02  0.15942007888E+02  0.00000000000E+00 0. -1.
         -1   -1    0    0    0  501 -0.00000000000E+00 -0.00000000000E+00 -0.11573268064E+04  0.11573268064E+04  0.00000000000E+00 0.  1.
         25    2    1    2    0    0  0.28000692228E+02 -0.71554099853E+02 -0.74460953738E+03  0.75894325001E+03  0.12508983014E+03 0.  0.
          5    1    3    3  502    0  0.46264116715E+01 -0.34557770644E+02 -0.41087384861E+02  0.54048948108E+02  0.41800000000E+01 0. -1.
         -5    1    3    3    0  502  0.23374280556E+02 -0.36996329210E+02 -0.70352215252E+03  0.70489430190E+03  0.41800000000E+01 0. -1.
        -11    1    1    2    0    0  0.32851726929E+02  0.36193036637E+02 -0.16861339009E+03  0.17555525392E+03  0.00000000000E+00 0. -1.
         11    1    1    2    0    0 -0.60852419156E+02  0.35361063216E+02 -0.22816187103E+03  0.23877031034E+03  0.00000000000E+00 0.  1.
</event>
<event>
 7    1  0.2686828E-009  0.1101669E+03  0.7561462E-02  0.1260261E+00
         -3   -1    0    0    0  501 -0.00000000000E+00  0.00000000000E+00  0.10128653564E+03  0.10128653564E+03  0.00000000000E+00 0.  1.
          3   -1    0    0  501    0  0.00000000000E+00 -0.00000000000E+00 -0.13824622328E+03  0.13824622328E+03  0.00000000000E+00 0. -1.
         25    2    1    2    0    0 -0.45101135157E+02  0.25993358493E+01 -0.40307512025E+02  0.13897190983E+03  0.12509047628E+03 0.  0.
          5    1    3    3  502    0  0.37628971824E+02  0.73856446222E+01  0.12582931624E+02  0.40574497351E+02  0.41800000000E+01 0.  1.
         -5    1    3    3    0  502 -0.82730106982E+02 -0.47863087729E+01 -0.52890443649E+02  0.98397412478E+02  0.41800000000E+01 0.  1.
        -11    1    1    2    0    0  0.37405863475E+02 -0.43383120539E+02 -0.72128359026E+01  0.57734900812E+02  0.00000000000E+00 0.  1.
         11    1    1    2    0    0  0.76952716829E+01  0.40783784690E+02  0.10560660288E+02  0.42825948275E+02  0.00000000000E+00 0. -1.
</event>
<event>
 7    1  0.2686828E-009  0.1286637E+03  0.7561462E-02  0.1229452E+00
          1   -1    0    0  501    0  0.00000000000E+00  0.00000000000E+00  0.86344407322E+03  0.86344407322E+03  0.00000000000E+00 0. -1.
         -1   -1    0    0    0  501 -0.00000000000E+00 -0.00000000000E+00 -0.22179836189E+02  0.22179836189E+02  0.00000000000E+00 0.  1.
         25    2    1    2    0    0  0.48107152088E+02  0.70570465611E+02  0.43254338241E+03  0.45829766724E+03  0.12509390643E+03 0.  0.
          5    1    3    3  502    0  0.26768004040E+02 -0.33309407241E+02  0.90531558411E+02  0.10019719617E+03  0.41800000000E+01 0. -1.
         -5    1    3    3    0  502  0.21339148048E+02  0.10387987285E+03  0.34201182400E+03  0.35810047107E+03  0.41800000000E+01 0. -1.
        -11    1    1    2    0    0 -0.50590158516E+02 -0.15186537727E+02  0.94571125591E+02  0.10832217161E+03  0.00000000000E+00 0.  1.
         11    1    1    2    0    0  0.24830064278E+01 -0.55383927885E+02  0.31414972903E+03  0.31900407056E+03  0.00000000000E+00 0. -1.
</event>
<event>
 7    1  0.2686828E-009  0.9754738E+02  0.7561462E-02  0.1285540E+00
          2   -1    0    0  501    0  0.00000000000E+00  0.00000000000E+00  0.47112465386E+03  0.47112465386E+03  0.00000000000E+00 0. -1.
         -2   -1    0    0    0  501 -0.00000000000E+00 -0.00000000000E+00 -0.26134470763E+02  0.26134470763E+02  0.00000000000E+00 0.  1.
         25    2    1    2    0    0  0.39815693417E+02  0.73387263319E+01  0.32177980785E+03  0.34760409808E+03  0.12508884009E+03 0.  0.
          5    1    3    3  502    0 -0.19649094209E+02  0.52625801060E+02  0.12693589977E+03  0.13887316836E+03  0.41800000000E+01 0. -1.
         -5    1    3    3    0  502  0.59464787625E+02 -0.45287074728E+02  0.19484390808E+03  0.20873092972E+03  0.41800000000E+01 0. -1.
        -11    1    1    2    0    0 -0.33724387007E+02  0.17732083950E+02  0.19535666331E+02  0.42818259414E+02  0.00000000000E+00 0.  1.
         11    1    1    2    0    0 -0.60913064099E+01 -0.25070810282E+02  0.10367470891E+03  0.10683676713E+03  0.00000000000E+00 0. -1.
</event>
<event>
 7    1  0.2686828E-009  0.1275174E+03  0.7561462E-02  0.1231187E+00
         -2   -1    0    0    0  501 -0.00000000000E+00  0.00000000000E+00  0.85146599674E+02  0.85146599674E+02  0.00000000000E+00 0.  1.
          2   -1    0    0  501    0  0.00000000000E+00 -0.00000000000E+00 -0.27721560111E+03  0.27721560111E+03  0.00000000000E+00 0. -1.
         25    2    1    2    0    0 -0.52665483851E+02  0.60936664679E+02 -0.18036126781E+03  0.23380554352E+03  0.12509162628E+03 0.  0.
          5    1    3    3  502    0  0.35757487205E+02  0.27046218144E+02 -0.99495621990E+02  0.10921056269E+03  0.41800000000E+01 0.  1.
         -5    1    3    3    0  502 -0.88422971056E+02  0.33890446535E+02 -0.80865645818E+02  0.12459498084E+03  0.41800000000E+01 0.  1.
        -11    1    1    2    0    0  0.48253742975E+02  0.55626087180E+01 -0.32849323578E+02  0.58638250199E+02  0.00000000000E+00 0. -1.
         11    1    1    2    0    0  0.44117408757E+01 -0.66499273397E+02  0.21141589952E+02  0.69918407058E+02  0.00000000000E+00 0.  1.
</event>
<event>
 7    1  0.2686828E-009  0.9640147E+02  0.7561462E-02  0.1288050E+00
          1   -1    0    0  501    0  0.00000000000E+00  0.00000000000E+00  0.22711799126E+03  0.22711799126E+03  0.00000000000E+00 0. -1.
         -1   -1    0    0    0  501 -0.00000000000E+00 -0.00000000000E+00 -0.81387567071E+02  0.81387567071E+02  0.00000000000E+00 0.  1.
         25    2    1    2    0    0 -0.48890787525E+02  0.60756854241E+02  0.50487419240E+02  0.15580975269E+03  0.12508395217E+03 0.  0.
          5    1    3    3  502    0  0.38579348651E+00 -0.12572278493E+02  0.64862133005E+02  0.66202565819E+02  0.41800000000E+01 0. -1.
         -5    1    3    3    0  502 -0.49276581012E+02  0.73329132734E+02 -0.14374713765E+02  0.89607186875E+02  0.41800000000E+01 0. -1.
        -11    1    1    2    0    0 -0.94469659337E+01 -0.10232257616E+02 -0.13469823796E+02  0.19374736498E+02  0.00000000000E+00 0.  1.
         11    1    1    2    0    0  0.58337753459E+02 -0.50524596626E+02  0.10871282875E+03  0.13332106914E+03  0.00000000000E+00 0. -1.
</event>
<event>
 7    1  0.2686828E-009  0.8656830E+02  0.7561462E-02  0.1311381E+00
          1   -1    0    0  501    0  0.00000000000E+00  0.00000000000E+00  0.77621366153E+03  0.77621366153E+03  0.00000000000E+00 0. -1.
         -1   -1    0    0    0  501 -0.00000000000E+00 -0.00000000000E+00 -0.17116374759E+02  0.17116374759E+02  0.00000000000E+00 0.  1.
         25    2    1    2    0    0  0.25692487923E+02 -0.17461369724E+02  0.52193427736E+03  0.53761317299E+03  0.12509008964E+03 0.  0.
          5    1    3    3  502    0 -0.91400222255E+01 -0.49656346887E+02  0.43953515545E+03  0.44244538428E+03  0.41800000000E+01 0. -1.
         -5    1    3    3    0  502  0.34832510148E+02  0.32194977163E+02  0.82399121909E+02  0.95167788716E+02  0.41800000000E+01 0. -1.
        -11    1    1    2    0    0  0.14003155679E+02 -0.17185393867E+02  0.13552395743E+02  0.25982562647E+02  0.00000000000E+00 0.  1.
         11    1    1    2    0    0 -0.39695643602E+02  0.34646763591E+02  0.22361061367E+03  0.22973430065E+03  0.00000000000E+00 0. -1.
</event>
<event>
 7    1  0.2686828E-009  0.1077491E+03  0.7561462E-02  0.1264796E+00
         -2   -1    0    0    0  501 -0.00000000000E+00  0.00000000000E+00  0.29918667734E+02  0.29918667734E+02  0.00000000000E+00 0.  1.
          2   -1    0    0  501    0  0.00000000000E+00 -0.00000000000E+00 -0.47957538686E+03  0.47957538686E+03  0.00000000000E+00 0. -1.
         25    2    1    2    0    0  0.45291267736E+02 -0.24802672711E+01 -0.30201818365E+03  0.33002792322E+03  0.12508395658E+03 0.  0.
          5    1    3    3  502    0  0.42837610450E+02  0.48236795187E+02 -0.24579554080E+03  0.25415501088E+03  0.41800000000E+01 0. -1.
         -5    1    3    3    0  502  0.24536572862E+01 -0.50717062458E+02 -0.56222642851E+02  0.75872912344E+02  0.41800000000E+01 0. -1.
        -11    1    1    2    0    0  0.30771446203E+01  0.39108919979E+02 -0.40790985644E+02  0.56594001014E+02  0.00000000000E+00 0.  1.
         11    1    1    2    0    0 -0.48368412356E+02 -0.36628652708E+02 -0.10684754983E+03  0.12287213036E+03  0.00000000000E+00 0. -1.
</event>
<event>
 7    1  0.2686828E-009  0.2006492E+03  0.7561462E-02  0.1149192E+00
         -1   -1    0    0    0  501 -0.00000000000E+00  0.00000000000E+00  0.13083028219E+03  0.13083028219E+03  0.00000000000E+00 0.  1.
          1   -1    0    0  501    0  0.00000000000E+00 -0.00000000000E+00 -0.38700539727E+03  0.38700539727E+03  0.00000000000E+00 0. -1.
         25    2    1    2    0    0  0.16550637938E+03 -0.55620037215E+02 -0.28179022750E+02  0.21662827366E+03  0.12509117263E+03 0.  0.
          5    1    3    3  502    0 -0.11140400529E+01  0.21385426490E+02 -0.24750236056E+02  0.32994304603E+02  0.41800000000E+01 0. -1.
         -5    1    3    3    0  502  0.16662041943E+03 -0.77005463705E+02 -0.34287866939E+01  0.18363396905E+03  0.41800000000E+01 0. -1.
        -11    1    1    2    0    0 -0.61583130884E+02 -0.22819321223E+02 -0.62799333549E+02  0.90867814570E+02  0.00000000000E+00 0.  1.
         11    1    1    2    0    0 -0.10392324849E+03  0.78439358438E+02 -0.16519675878E+03  0.21033959123E+03  0.00000000000E+00 0. -1.
</event>
<event>
 7    1  0.2686828E-009  0.1049913E+03  0.7561462E-02  0.1270137E+00
         -1   -1    0    0    0  501 -0.00000000000E+00  0.00000000000E+00  0.10511416368E+03  0.10511416368E+03  0.00000000000E+00 0.  1.
          1   -1    0    0  501    0  0.00000000000E+00 -0.00000000000E+00 -0.15265751636E+03  0.15265751636E+03  0.00000000000E+00 0. -1.
         25    2    1    2    0    0  0.11009738355E+01  0.63026582152E+02 -0.26783504323E+02  0.14261421040E+03  0.12509154529E+03 0.  0.
          5    1    3    3  502    0 -0.36454463049E+02  0.35631369398E+02  0.37323336522E+02  0.63316871452E+02  0.41800000000E+01 0.  1.
         -5    1    3    3    0  502  0.37555436885E+02  0.27395212753E+02 -0.64106840845E+02  0.79297338950E+02  0.41800000000E+01 0.  1.
        -11    1    1    2    0    0 -0.13016099957E+02  0.22401115947E+02  0.18949911037E+01  0.25977294798E+02  0.00000000000E+00 0. -1.
         11    1    1    2    0    0  0.11915126121E+02 -0.85427698099E+02 -0.22654839467E+02  0.89180174839E+02  0.00000000000E+00 0.  1.
</event>
<event>
 7    1  0.2686828E-009  0.2508808E+03  0.7561462E-02  0.1112749E+00
          2   -1    0    0  501    0  0.00000000000E+00  0.00000000000E+00  0.18029834286E+03  0.18029834286E+03  0.00000000000E+00 0.  1.
         -2   -1    0    0    0  501 -0.00000000000E+00 -0.00000000000E+00 -0.40583694513E+03  0.40583694513E+03  0.00000000000E+00 0. -1.
         25    2    1    2    0    0  0.13885833469E+03 -0.19222843239E+03 -0.19253728487E+03  0.33007863327E+03  0.12509152945E+03 0.  0.
          5    1    3    3  502    0  0.73971846535E+02 -0.18479849452E+03 -0.12036640861E+03  0.23265395415E+03  0.41800000000E+01 0. -1.
         -5    1    3    3    0  502  0.64886488156E+02 -0.74299378720E+01 -0.72170876260E+02  0.97424679123E+02  0.41800000000E+01 0. -1.
        -11    1    1    2    0    0 -0.99255761133E+02  0.14219292270E+03 -0.64346400082E+02  0.18496213826E+03  0.00000000000E+00 0. -1.
         11    1    1    2    0    0 -0.39602573558E+02  0.50035509691E+02  0.31345082687E+02  0.71094516463E+02  0.00000000000E+00 0.  1.
</event>
<event>
 7    1  0.2686828E-009  0.1435956E+03  0.7561462E-02  0.1208571E+00
          1   -1    0    0  501    0  0.00000000000E+00  0.00000000000E+00  0.32542279010E+03  0.32542279010E+03  0.00000000000E+00 0. -1.
         -1   -1    0    0    0  501 -0.00000000000E+00 -0.00000000000E+00 -0.90912022030E+02  0.90912022030E+02  0.00000000000E+00 0.  1.
         25    2    1    2    0    0 -0.11441498259E+03 -0.33700793663E+02  0.19466522495E+03  0.26031598997E+03  0.12507331089E+03 0.  0.
          5    1    3    3  502    0 -0.33301235196E+02 -0.70729625389E+02  0.12319168108E+03  0.14596340247E+03  0.41800000000E+01 0. -1.
         -5    1    3    3    0  502 -0.81113747397E+02  0.37028831726E+02  0.71473543865E+02  0.11435258750E+03  0.41800000000E+01 0. -1.
        -11    1    1    2    0    0  0.95760537486E+02  0.31728738791E+02  0.68379576304E+02  0.12187107885E+03  0.00000000000E+00 0. -1.
         11    1    1    2    0    0  0.18654445107E+02  0.19720548719E+01 -0.28534033186E+02  0.34147743301E+02  0.00000000000E+00 0.  1.
</event>
<event>
 7    1  0.2686828E-009  0.1028610E+03  0.7561462E-02  0.1274392E+00
          4   -1    0    0  501    0  0.00000000000E+00  0.00000000000E+00  0.12045647020E+03  0.12045647020E+03  0.00000000000E+00 0. -1.
         -4   -1    0    0    0  501 -0.00000000000E+00 -0.00000000000E+00 -0.12213297492E+03  0.12213297492E+03  0.00000000000E+00 0.  1.
         25    2    1    2    0    0  0.44677338873E+02  0.26651489143E+02 -0.16241074221E+02  0.13644813984E+03  0.12509178986E+03 0.  0.
          5    1    3    3  502    0 -0.15398957345E+02  0.50272470866E+02  0.26388034912E+02  0.58976690318E+02  0.41800000000E+01 0.  1.
         -5    1    3    3    0  502  0.60076296218E+02 -0.23620981723E+02 -0.42629109133E+02  0.77471449518E+02  0.41800000000E+01 0.  1.
        -11    1    1    2    0    0  0.47653713010E+01  0.19850630960E+02  0.30234148415E+02  0.36480954532E+02  0.00000000000E+00 0. -1.
         11    1    1    2    0    0 -0.49442710174E+02 -0.46502120103E+02 -0.15669578911E+02  0.69660350751E+02  0.00000000000E+00 0.  1.
</event>
<event>
 7    1  0.2686828E-009  0.7902274E+02  0.7561462E-02  0.1331848E+00
         -2   -1    0    0    0  501 -0.00000000000E+00  0.00000000000E+00  0.65659580292E+02  0.65659580292E+02  0.00000000000E+00 0.  1.
          2   -1    0    0  501    0  0.00000000000E+00 -0.00000000000E+00 -0.20901264326E+03  0.20901264326E+03  0.00000000000E+00 0. -1.
         25    2    1    2    0    0  0.21752496367E+02  0.18599991020E+02 -0.41551148835E+02  0.13488625927E+03  0.12509466098E+03 0.  0.
          5    1    3    3  502    0  0.24543254058E+02  0.47298583946E+02  0.27376447834E+02  0.60053889625E+02  0.41800000000E+01 0. -1.
         -5    1    3    3    0  502 -0.27907576912E+01 -0.28698592926E+02 -0.68927596669E+02  0.74832369647E+02  0.41800000000E+01 0. -1.
        -11    1    1    2    0    0  0.17391990007E+02 -0.30010202111E+02 -0.53837420539E+01  0.35100971862E+02  0.00000000000E+00 0.  1.
         11    1    1    2    0    0 -0.39144486374E+02  0.11410211091E+02 -0.96418172082E+02  0.10468499242E+03  0.00000000000E+00 0. -1.
</event>
<event>
 7    1  0.2686828E-009  0.1009279E+03  0.7561462E-02  0.1278357E+00
         -2   -1    0    0    0  501 -0.00000000000E+00  0.00000000000E+00  0.28485929019E+02  0.28485929019E+02  0.00000000000E+00 0.  1.
          2   -1    0    0  501    0  0.00000000000E+00 -0.00000000000E+00 -0.66498593790E+03  0.66498593790E+03  0.00000000000E+00 0. -1.
         25    2    1    2    0    0 -0.66131972078E+02  0.26289791979E+02 -0.24140607845E+03  0.28105829291E+03  0.12510906604E+03 0.  0.
          5    1    3    3  502    0 -0.72173309123E+02  0.15046298653E+02 -0.49993531512E+02  0.89175126835E+02  0.41800000000E+01 0. -1.
         -5    1    3    3    0  502  0.60413370454E+01  0.11243493326E+02 -0.19141254694E+03  0.19188316607E+03  0.41800000000E+01 0. -1.
        -11    1    1    2    0    0  0.60521053431E+02 -0.57135196990E+02 -0.32737560066E+03  0.33778989409E+03  0.00000000000E+00 0. -1.
         11    1    1    2    0    0  0.56109186466E+01  0.30845405011E+02 -0.67718329773E+02  0.74623679926E+02  0.00000000000E+00 0.  1.
</event>
<event>
 7    1  0.2686828E-009  0.9903657E+02  0.7561462E-02  0.1282335E+00
          1   -1    0    0  501    0  0.00000000000E+00  0.00000000000E+00  0.44588333042E+03  0.44588333042E+03  0.00000000000E+00 0. -1.
         -1   -1    0    0    0  501 -0.00000000000E+00 -0.00000000000E+00 -0.35764537603E+02  0.35764537603E+02  0.00000000000E+00 0.  1.
         25    2    1    2    0    0  0.44979851952E+01 -0.10767072623E+02  0.35015009186E+03  0.37200790247E+03  0.12509448806E+03 0.  0.
          5    1    3    3  502    0  0.45185077533E+02  0.31601701680E+02  0.24807407761E+03  0.25416250542E+03  0.41800000000E+01 0.  1.
         -5    1    3    3    0  502 -0.40687092338E+02 -0.42368774303E+02  0.10207601425E+03  0.11784539704E+03  0.41800000000E+01 0.  1.
        -11    1    1    2    0    0 -0.29771294777E+02  0.36978984924E+02  0.55375428316E+02  0.72939792842E+02  0.00000000000E+00 0. -1.
         11    1    1    2    0    0  0.25273309582E+02 -0.26211912301E+02  0.45932726386E+01  0.36700172714E+02  0.00000000000E+00 0.  1.
</event>
<event>
 7    1  0.2686828E-009  0.9782178E+02  0.7561462E-02  0.1284944E+00
         -1   -1    0    0    0  501 -0.00000000000E+00  0.00000000000E+00  0.39116427443E+02  0.39116427443E+02  0.00000000000E+00 0.  1.
          1   -1    0    0  501    0  0.00000000000E+00 -0.00000000000E+00 -0.36465919560E+03  0.36465919560E+03  0.00000000000E+00 0. -1.
         25    2    1    2    0    0 -0.38366707644E+02 -0.27159240775E+02 -0.14569595264E+03  0.19769706892E+03  0.12508873581E+03 0.  0.
          5    1    3    3  502    0  0.28203270514E+02 -0.10484627210E+02  0.61649806578E+01  0.30997278299E+02  0.41800000000E+01 0.  1.
         -5    1    3    3    0  502 -0.66569978158E+02 -0.16674613565E+02 -0.15186093330E+03  0.16669979062E+03  0.41800000000E+01 0.  1.
        -11    1    1    2    0    0 -0.21371342174E+01  0.49977195168E+02 -0.12206249890E+03  0.13191490067E+03  0.00000000000E+00 0. -1.
         11    1    1    2    0    0  0.40503841861E+02 -0.22817954393E+02 -0.57784316613E+02  0.74163653461E+02  0.00000000000E+00 0.  1.
</event>
<event>
 7    1  0.2686828E-009  0.1066943E+03  0.7561462E-02  0.1266817E+00
          1   -1    0    0  501    0  0.00000000000E+00  0.00000000000E+00  0.38502858869E+03  0.38502858869E+03  0.00000000000E+00 0. -1.
         -1   -1    0    0    0  501 -0.00000000000E+00 -0.00000000000E+00 -0.50593402488E+02  0.50593402488E+02  0.00000000000E+00 0.  1.
         25    2    1    2    0    0 -0.36998654091E+02  0.77945760099E+02  0.20715417432E+03  0.25691456613E+03  0.12509116848E+03 0.  0.
          5    1    3    3  502    0 -0.43627590534E+02  0.50123315524E+02  0.21652304045E+03  0.22652905522E+03  0.41800000000E+01 0.  1.
         -5    1    3    3    0  502  0.66289364429E+01  0.27822444575E+02 -0.93688661323E+01  0.30385510907E+02  0.41800000000E+01 0.  1.
        -11    1    1    2    0    0  0.60503592744E+02 -0.37680835560E+02  0.45477086669E+02  0.84549958695E+02  0.00000000000E+00 0.  1.
         11    1    1    2    0    0 -0.23504938653E+02 -0.40264924539E+02  0.81803925214E+02  0.94157466351E+02  0.00000000000E+00 0. -1.
</event>
<event>
 7    1  0.2686828E-009  0.1039258E+03  0.7561462E-02  0.1272251E+00
         -1   -1    0    0    0  501 -0.00000000000E+00  0.00000000000E+00  0.25954999071E+03  0.25954999071E+03  0.00000000000E+00 0.  1.
          1   -1    0    0  501    0  0.00000000000E+00 -0.00000000000E+00 -0.62148913939E+02  0.62148913939E+02  0.00000000000E+00 0. -1.
         25    2    1    2    0    0 -0.60655844287E+01 -0.66528371460E+02  0.10438591207E+03  0.17608235168E+03  0.12508301408E+03 0.  0.
          5    1    3    3  502    0 -0.45709114031E+02 -0.38107703152E+02  0.11165031493E+03  0.12658904127E+03  0.41800000000E+01 0.  1.
         -5    1    3    3    0  502  0.39643529603E+02 -0.28420668308E+02 -0.72644028610E+01  0.49493310410E+02  0.41800000000E+01 0.  1.
        -11    1    1    2    0    0 -0.32125064089E+02  0.15970029765E+02  0.36394613060E+01  0.36059773599E+02  0.00000000000E+00 0. -1.
         11    1    1    2    0    0  0.38190648517E+02  0.50558341695E+02  0.89375703400E+02  0.10955677938E+03  0.00000000000E+00 0.  1.
</event>
<event>
 7    1  0.2686828E-009  0.1052347E+03  0.7561462E-02  0.1269658E+00
         -1   -1    0    0    0  501 -0.00000000000E+00  0.00000000000E+00  0.63578472183E+02  0.63578472183E+02  0.00000000000E+00 0.  1.
          1   -1    0    0  501    0  0.00000000000E+00 -0.00000000000E+00 -0.24727777889E+03  0.24727777889E+03  0.00000000000E+00 0. -1.
         25    2    1    2    0    0  0.36403268978E+01 -0.60398320533E+02 -0.99984551710E+02  0.17118738721E+03  0.12508797646E+03 0.  0.
          5    1    3    3  502    0  0.42791717046E+01 -0.79927409409E+02 -0.12099057270E+02  0.81059001179E+02  0.41800000000E+01 0.  1.
         -5    1    3    3    0  502 -0.63884480685E+00  0.19529088876E+02 -0.87885494440E+02  0.90128386028E+02  0.41800000000E+01 0.  1.
        -11    1    1    2    0    0 -0.22112205433E+02 -0.18793112014E+02 -0.32487004558E+02  0.43560718009E+02  0.00000000000E+00 0.  1.
         11    1    1    2    0    0  0.18471878535E+02  0.79191432547E+02 -0.51227750442E+02  0.96108145861E+02  0.00000000000E+00 0. -1.
</event>
<event>
 7    1  0.2686828E-009  0.1080329E+03  0.7561462E-02  0.1264257E+00
          1   -1    0    0  501    0  0.00000000000E+00  0.00000000000E+00  0.61609256639E+02  0.61609256639E+02  0.00000000000E+00 0. -1.
         -1   -1    0    0    0  501 -0.00000000000E+00 -0.00000000000E+00 -0.31475888064E+03  0.31475888064E+03  0.00000000000E+00 0.  1.
         25    2    1    2    0    0  0.76383495722E+02  0.38251237913E+02 -0.11843412038E+03  0.19227804093E+03  0.12508640427E+03 0.  0.
          5    1    3    3  502    0  0.76371686112E+02  0.59322471076E+02 -0.13431813567E+03  0.16556154138E+03  0.41800000000E+01 0.  1.
         -5    1    3    3    0  502  0.11809609308E-01 -0.21071233163E+02  0.15884015291E+02  0.26716499550E+02  0.41800000000E+01 0.  1.
        -11    1    1    2    0    0 -0.11480533205E+02 -0.30298463500E+02  0.20827972799E+01  0.32467484930E+02  0.00000000000E+00 0. -1.
         11    1    1    2    0    0 -0.64902962517E+02 -0.79527744124E+01 -0.13679830090E+03  0.15162261142E+03  0.00000000000E+00 0.  1.
</event>
<event>
 7    1  0.2686828E-009  0.9671648E+02  0.7561462E-02  0.1287356E+00
         -3   -1    0    0    0  501 -0.00000000000E+00  0.00000000000E+00  0.91080401511E+03  0.91080401511E+03  0.00000000000E+00 0.  1.
          3   -1    0    0  501    0  0.00000000000E+00 -0.00000000000E+00 -0.26644649430E+02  0.26644649430E+02  0.00000000000E+00 0. -1.
         25    2    1    2    0    0  0.36783221920E+02  0.21908333348E+02  0.77907595499E+03  0.79021439104E+03  0.12508580925E+03 0.  0.
          5    1    3    3  502    0 -0.14890726858E+02  0.52258930116E+02  0.57229022462E+03  0.57487938137E+03  0.41800000000E+01 0.  1.
         -5    1    3    3    0  502  0.51673948779E+02 -0.30350596768E+02  0.20678573036E+03  0.21533500967E+03  0.41800000000E+01 0.  1.
        -11    1    1    2    0    0 -0.61260448814E+01 -0.41844518635E+02  0.10213733184E+03  0.11054649122E+03  0.00000000000E+00 0.  1.
         11    1    1    2    0    0 -0.30657177039E+02  0.19936185287E+02  0.29460788448E+01  0.36687782276E+02  0.00000000000E+00 0. -1.
</event>
<event>
 7    1  0.2686828E-009  0.1823014E+03  0.7561462E-02  0.1165594E+00
          2   -1    0    0  501    0  0.00000000000E+00  0.00000000000E+00  0.45846123018E+03  0.45846123018E+03  0.00000000000E+00 0. -1.
         -2   -1    0    0    0  501 -0.00000000000E+00 -0.00000000000E+00 -0.88617589465E+02  0.88617589465E+02  0.00000000000E+00 0.  1.
         25    2    1    2    0    0  0.16212671028E+03  0.10740572608E+02  0.25688744879E+03  0.32869859622E+03  0.12510465910E+03 0.  0.
          5    1    3    3  502    0  0.15080055177E+03  0.48182806582E+02  0.23584995042E+03  0.28408636147E+03  0.41800000000E+01 0.  1.
         -5    1    3    3    0  502  0.11326158517E+02 -0.37442233974E+02  0.21037498369E+02  0.44612234749E+02  0.41800000000E+01 0.  1.
        -11    1    1    2    0    0 -0.15811819434E+02 -0.13143835324E+02 -0.13814087283E+02  0.24771012258E+02  0.00000000000E+00 0.  1.
         11    1    1    2    0    0 -0.14631489085E+03  0.24032627156E+01  0.12677027921E+03  0.19360921116E+03  0.00000000000E+00 0. -1.
</event>
<event>
 7    1  0.2686828E-009  0.1045473E+03  0.7561462E-02  0.1271014E+00
          2   -1    0    0  501    0  0.00000000000E+00  0.00000000000E+00  0.70202781113E+03  0.70202781113E+03  0.00000000000E+00 0. -1.
         -2   -1    0    0    0  501 -0.00000000000E+00 -0.00000000000E+00 -0.18201352711E+02  0.18201352711E+02  0.00000000000E+00 0.  1.
         25    2    1    2    0    0  0.10604817485E+02  0.29876090674E+02  0.38767281609E+03  0.40858656729E+03  0.12509087772E+03 0.  0.
          5    1    3    3  502    0 -0.46164735139E+02  0.45424310396E+02  0.25934161298E+03  0.26733891480E+03  0.41800000000E+01 0.  1.
         -5    1    3    3    0  502  0.56769552624E+02 -0.15548219723E+02  0.12833120311E+03  0.14124765248E+03  0.41800000000E+01 0.  1.
        -11    1    1    2    0    0 -0.35941618864E+02  0.10566077672E+02  0.20850507435E+03  0.21184382925E+03  0.00000000000E+00 0. -1.
         11    1    1    2    0    0  0.25336801380E+02 -0.40442168345E+02  0.87648567990E+02  0.99798767303E+02  0.00000000000E+00 0.  1.
</event>
<event>
 7    1  0.2686828E-009  0.7552947E+02  0.7561462E-02  0.1342239E+00
         -2   -1    0    0    0  501 -0.00000000000E+00  0.00000000000E+00  0.47168602526E+03  0.47168602526E+03  0.00000000000E+00 0.  1.
          2   -1    0    0  501    0  0.00000000000E+00 -0.00000000000E+00 -0.47643727583E+02  0.47643727583E+02  0.00000000000E+00 0. -1.
         25    2    1    2    0    0 -0.10571239534E+02  0.43144788902E+02  0.39052722913E+03  0.41246968266E+03  0.12508596446E+03 0.  0.
          5    1    3    3  502    0  0.28117778333E+02  0.71848648445E+01  0.14467778585E+02  0.32695882896E+02  0.41800000000E+01 0. -1.
         -5    1    3    3    0  502 -0.38689017867E+02  0.35959924057E+02  0.37605945055E+03  0.37977379976E+03  0.41800000000E+01 0. -1.
        -11    1    1    2    0    0  0.30019374498E+02 -0.12630890803E+02 -0.22917153374E+02  0.39823336958E+02  0.00000000000E+00 0. -1.
         11    1    1    2    0    0 -0.19448134964E+02 -0.30513898099E+02  0.56432221921E+02  0.67036733227E+02  0.00000000000E+00 0.  1.
</event>
<event>
 7    1  0.2686828E-009  0.1055376E+03  0.7561462E-02  0.1269064E+00
          1   -1    0    0  501    0  0.00000000000E+00  0.00000000000E+00  0.13560648123E+03  0.13560648123E+03  0.00000000000E+00 0. -1.
         -1   -1    0    0    0  501 -0.00000000000E+00 -0.00000000000E+00 -0.95661446883E+02  0.95661446883E+02  0.00000000000E+00 0.  1.
         25    2    1    2    0    0  0.90417310908E+01 -0.11409648172E+02  0.63470635814E+02  0.14102145485E+03  0.12508635476E+03 0.  0.
          5    1    3    3  502    0  0.63328793789E+02  0.12159965050E+02  0.20606240221E+02  0.67826915076E+02  0.41800000000E+01 0. -1.
         -5    1    3    3    0  502 -0.54287062698E+02 -0.23569613222E+02  0.42864395594E+02  0.73194539779E+02  0.41800000000E+01 0. -1.
        -11    1    1    2    0    0 -0.46579308619E+02 -0.35519049325E+01 -0.12938847931E+02  0.48473310242E+02  0.00000000000E+00 0.  1.
         11    1    1    2    0    0  0.37537577528E+02  0.14961553105E+02 -0.10586753535E+02  0.41773163016E+02  0.00000000000E+00 0. -1.
</event>
<event>
 7    1  0.2686828E-009  0.1002703E+03  0.7561462E-02  0.1279729E+00
         -2   -1    0    0    0  501 -0.00000000000E+00  0.00000000000E+00  0.27408581720E+03  0.27408581720E+03  0.00000000000E+00 0.  1.
          2   -1    0    0  501    0  0.00000000000E+00 -0.00000000000E+00 -0.81214999314E+02  0.81214999314E+02  0.00000000000E+00 0. -1.
         25    2    1    2    0    0 -0.74406932617E+02  0.42172602564E+02  0.17360460815E+03  0.23044143263E+03  0.12509905625E+03 0.  0.
          5    1    3    3  502    0 -0.28957745551E+02 -0.17851610934E+02  0.14627379318E+03  0.15023556840E+03  0.41800000000E+01 0.  1.
         -5    1    3    3    0  502 -0.45449187066E+02  0.60024213498E+02  0.27330814972E+02  0.80205864237E+02  0.41800000000E+01 0.  1.
        -11    1    1    2    0    0  0.11591393230E+02  0.46760535920E+01  0.41551118059E+02  0.43390336322E+02  0.00000000000E+00 0.  1.
         11    1    1    2    0    0  0.62815539387E+02 -0.46848656156E+02 -0.22284908320E+02  0.81469047563E+02  0.00000000000E+00 0. -1.
</event>
<event>
 7    1  0.2686828E-009  0.5634274E+02  0.7561462E-02  0.1413854E+00
         -1   -1    0    0    0  501 -0.00000000000E+00  0.00000000000E+00  0.55888716586E+03  0.55888716586E+03  0.00000000000E+00 0.  1.
          1   -1    0    0  501    0  0.00000000000E+00 -0.00000000000E+00 -0.18053690887E+02  0.18053690887E+02  0.00000000000E+00 0. -1.
         25    2    1    2    0    0  0.43774010142E+02 -0.14447494519E+02  0.41211510158E+03  0.43314094483E+03  0.12508927641E+03 0.  0.
          5    1    3    3  502    0 -0.38093044293E+00  0.15949601547E+01  0.36964670497E+03  0.36967397514E+03  0.41800000000E+01 0. -1.
         -5    1    3    3    0  502  0.44154940585E+02 -0.16042454674E+02  0.42468396618E+02  0.63466969688E+02  0.41800000000E+01 0. -1.
        -11    1    1    2    0    0 -0.14591015269E+02 -0.14039796267E+02  0.65588715856E+02  0.68643231665E+02  0.00000000000E+00 0.  1.
         11    1    1    2    0    0 -0.29182994873E+02  0.28487290787E+02  0.63129657531E+02  0.75156680249E+02  0.00000000000E+00 0. -1.
</event>
<event>
 7    1  0.2686828E-009  0.1293214E+03  0.7561462E-02  0.1228466E+00
          2   -1    0    0  501    0  0.00000000000E+00  0.00000000000E+00  0.66430794053E+03  0.66430794053E+03  0.00000000000E+00 0. -1.
         -2   -1    0    0    0  501 -0.00000000000E+00 -0.00000000000E+00 -0.43139671004E+02  0.43139671004E+02  0.00000000000E+00 0.  1.
         25    2    1    2    0    0 -0.99483838126E+02  0.50624113770E+02  0.47657078107E+03  0.50520031748E+03  0.12509123259E+03 0.  0.
          5    1    3    3  502    0 -0.89600851740E+02 -0.15523245468E+01  0.15370927212E+03  0.17797397304E+03  0.41800000000E+01 0. -1.
         -5    1    3    3    0  502 -0.98829863860E+01  0.52176438317E+02  0.32286150895E+03  0.32722634445E+03  0.41800000000E+01 0. -1.
        -11    1    1    2    0    0  0.14618929882E+02  0.34680314369E+01 -0.98063328154E+01  0.17941697697E+02  0.00000000000E+00 0.  1.
         11    1    1    2    0    0  0.84864908244E+02 -0.54092145207E+02  0.15440382127E+03  0.18430559635E+03  0.00000000000E+00 0. -1.
</event>
<event>
 7    1  0.2686828E-009  0.1652752E+03  0.7561462E-02  0.1182867E+00
          2   -1    0    0  501    0  0.00000000000E+00  0.00000000000E+00  0.73199042625E+02  0.73199042625E+02  0.00000000000E+00 0. -1.
         -2   -1    0    0    0  501 -0.00000000000E+00 -0.00000000000E+00 -0.51389784980E+03  0.51389784980E+03  0.00000000000E+00 0.  1.
         25    2    1    2    0    0  0.76579669496E+02  0.13314366266E+03 -0.16162986943E+03  0.25566324542E+03  0.12509116547E+03 0.  0.
          5    1    3    3  502    0  0.26087875309E+02 -0.74614033398E+01  0.89464176667E+01  0.28874912415E+02  0.41800000000E+01 0. -1.
         -5    1    3    3    0  502  0.50491794188E+02  0.14060506600E+03 -0.17057628710E+03  0.22678833301E+03  0.41800000000E+01 0. -1.
        -11    1    1    2    0    0 -0.26457556940E+02 -0.49630637667E+02 -0.19441706195E+03  0.20238872619E+03  0.00000000000E+00 0.  1.
         11    1    1    2    0    0 -0.50122112556E+02 -0.83513024998E+02 -0.84651875795E+02  0.12904492081E+03  0.00000000000E+00 0. -1.
</event>
<event>
 7    1  0.2686828E-009  0.9313816E+02  0.7561462E-02  0.1295425E+00
          2   -1    0    0  501    0  0.00000000000E+00  0.00000000000E+00  0.83486052883E+02  0.83486052883E+02  0.00000000000E+00 0. -1.
         -2   -1    0    0    0  501 -0.00000000000E+00 -0.00000000000E+00 -0.16978484522E+03  0.16978484522E+03  0.00000000000E+00 0.  1.
         25    2    1    2    0    0  0.63398384874E+01  0.39474247241E+02 -0.80128538740E+02  0.15383718622E+03  0.12508751894E+03 0.  0.
          5    1    3    3  502    0  0.14462089174E+02 -0.22767371681E+02  0.21205813496E+02  0.34563914167E+02  0.41800000000E+01 0.  1.
         -5    1    3    3    0  502 -0.81222506869E+01  0.62241618922E+02 -0.10133435224E+03  0.11927327205E+03  0.41800000000E+01 0.  1.
        -11    1    1    2    0    0  0.34350675301E+02  0.61970294773E+01  0.97232146890E+01  0.36234140970E+02  0.00000000000E+00 0. -1.
         11    1    1    2    0    0 -0.40690513788E+02 -0.45671276719E+02 -0.15893468281E+02  0.63199570912E+02  0.00000000000E+00 0.  1.
</event>
<event>
 7    1  0.2686828E-009  0.1022992E+03  0.7561462E-02  0.1275534E+00
         -2   -1    0    0    0  501 -0.00000000000E+00  0.00000000000E+00  0.19340163981E+02  0.19340163981E+02  0.00000000000E+00 0.  1.
          2   -1    0    0  501    0  0.00000000000E+00 -0.00000000000E+00 -0.64660128727E+03  0.64660128727E+03  0.00000000000E+00 0. -1.
         25    2    1    2    0    0  0.10055103867E+02 -0.11850648790E+02 -0.29435080531E+03  0.32020975349E+03  0.12510134552E+03 0.  0.
          5    1    3    3  502    0 -0.13399072558E+02 -0.64635947026E+02 -0.18503328949E+03  0.19649969825E+03  0.41800000000E+01 0.  1.
         -5    1    3    3    0  502  0.23454176425E+02  0.52785298235E+02 -0.10931751582E+03  0.12371005523E+03  0.41800000000E+01 0.  1.
        -11    1    1    2    0    0  0.25207443072E+02 -0.20651583702E+02 -0.56768683523E+02  0.65456753086E+02  0.00000000000E+00 0.  1.
         11    1    1    2    0    0 -0.35262546939E+02  0.32502232492E+02 -0.27614163445E+03  0.28027494467E+03  0.00000000000E+00 0. -1.
</event>
<event>
 7    1  0.2686828E-009  0.8842945E+02  0.7561462E-02  0.1306700E+00
         -2   -1    0    0    0  501 -0.00000000000E+00  0.00000000000E+00  0.91686612213E+02  0.91686612213E+02  0.00000000000E+00 0.  1.
          2   -1    0    0  501    0  0.00000000000E+00 -0.00000000000E+00 -0.16756112878E+03  0.16756112878E+03  0.00000000000E+00 0. -1.
         25    2    1    2    0    0 -0.33387484788E+02  0.44921518443E+02 -0.23297326841E+02  0.13901067656E+03  0.12509410778E+03 0.  0.
          5    1    3    3  502    0 -0.17985891229E+02 -0.76384215787E+01  0.46253100626E+02  0.50385111740E+02  0.41800000000E+01 0. -1.
         -5    1    3    3    0  502 -0.15401593559E+02  0.52559940022E+02 -0.69550427467E+02  0.88625564822E+02  0.41800000000E+01 0. -1.
        -11    1    1    2    0    0  0.49722930901E+00  0.24827262340E+02  0.32381163733E+01  0.25042475714E+02  0.00000000000E+00 0.  1.
         11    1    1    2    0    0  0.32890255479E+02 -0.69748780782E+02 -0.55815306099E+02  0.95194588717E+02  0.00000000000E+00 0. -1.
</event>
<event>
 7    1  0.2686828E-009  0.9944876E+02  0.7561462E-02  0.1281459E+00
         -3   -1    0    0    0  501 -0.00000000000E+00  0.00000000000E+00  0.15789286033E+02  0.15789286033E+02  0.00000000000E+00 0.  1.
          3   -1    0    0  501    0  0.00000000000E+00 -0.00000000000E+00 -0.94900405159E+03  0.94900405159E+03  0.00000000000E+00 0. -1.
         25    2    1    2    0    0 -0.93286787044E+01 -0.39550522960E+02 -0.67875141260E+03  0.69137682084E+03  0.12508860930E+03 0.  0.
          5    1    3    3  502    0 -0.48259614234E+02 -0.89811904420E+01 -0.56634145706E+03  0.56848022879E+03  0.41800000000E+01 0.  1.
         -5    1    3    3    0  502  0.38930935530E+02 -0.30569332518E+02 -0.11240995555E+03  0.12289659205E+03  0.41800000000E+01 0.  1.
        -11    1    1    2    0    0  0.31607572150E+02 -0.19297536139E+02 -0.99188294228E+02  0.10587611265E+03  0.00000000000E+00 0.  1.
         11    1    1    2    0    0 -0.22278893446E+02  0.58848059099E+02 -0.15527505873E+03  0.16754040413E+03  0.00000000000E+00 0. -1.
</event>
<event>
 7    1  0.2686828E-009  0.1572014E+03  0.7561462E-02  0.1191893E+00
         -2   -1    0    0    0  501 -0.00000000000E+00  0.00000000000E+00  0.12691417708E+03  0.12691417708E+03  0.00000000000E+00 0.  1.
          2   -1    0    0  501    0  0.00000000000E+00 -0.00000000000E+00 -0.66096066162E+03  0.66096066162E+03  0.00000000000E+00 0. -1.
         25    2    1    2    0    0 -0.81669819729E+02  0.10378538410E+03  0.44742936416E+02  0.18732362009E+03  0.12508734099E+03 0.  0.
          5    1    3    3  502    0  0.30051732567E+02  0.47515141041E+02  0.84494494209E+01  0.57005796670E+02  0.41800000000E+01 0.  1.
         -5    1    3    3    0  502 -0.11172155230E+03  0.56270243062E+02  0.36293486995E+02  0.13031782342E+03  0.41800000000E+01 0.  1.
        -11    1    1    2    0    0  0.78211921417E+01 -0.18282315059E+02 -0.13386903641E+02  0.23971301165E+02  0.00000000000E+00 0.  1.
         11    1    1    2    0    0  0.73848627587E+02 -0.85503069044E+02 -0.56540251732E+03  0.57657991745E+03  0.00000000000E+00 0. -1.
</event>
<event>
 7    1  0.2686828E-009  0.3087135E+03  0.7561462E-02  0.1080964E+00
         -1   -1    0    0    0  501 -0.00000000000E+00  0.00000000000E+00  0.22986306376E+03  0.22986306376E+03  0.00000000000E+00 0.  1.
          1   -1    0    0  501    0  0.00000000000E+00 -0.00000000000E+00 -0.46874436057E+03  0.46874436057E+03  0.00000000000E+00 0. -1.
         25    2    1    2    0    0  0.15947098083E+03  0.24993405976E+03 -0.21587742959E+03  0.38748947526E+03  0.12508797257E+03 0.  0.
          5    1    3    3  502    0  0.17898026820E+03  0.20783834288E+03 -0.17397035680E+03  0.32482898673E+03  0.41800000000E+01 0.  1.
         -5    1    3    3    0  502 -0.19509287373E+02  0.42095716881E+02 -0.41907072794E+02  0.62660488537E+02  0.41800000000E+01 0.  1.
        -11    1    1    2    0    0 -0.86276565308E+02 -0.13005318747E+03 -0.57773721626E+02  0.16641898991E+03  0.00000000000E+00 0.  1.
         11    1    1    2    0    0 -0.73194415519E+02 -0.11988087229E+03  0.34769854408E+02  0.14469895915E+03  0.00000000000E+00 0. -1.
</event>
<event>
 7    1  0.2686828E-009  0.1472365E+03  0.7561462E-02  0.1203910E+00
          1   -1    0    0  501    0  0.00000000000E+00  0.00000000000E+00  0.19042818917E+03  0.19042818917E+03  0.00000000000E+00 0. -1.
         -1   -1    0    0    0  501 -0.00000000000E+00 -0.00000000000E+00 -0.12618336661E+03  0.12618336661E+03  0.00000000000E+00 0.  1.
         25    2    1    2    0    0  0.81587477656E+02  0.72842789573E+02  0.12905324568E+02  0.16666761789E+03  0.12509579909E+03 0.  0.
          5    1    3    3  502    0  0.99453184857E+02  0.85621647057E+02 -0.13587399205E+02  0.13200034939E+03  0.41800000000E+01 0. -1.
         -5    1    3    3    0  502 -0.17865707201E+02 -0.12778857484E+02  0.26492723773E+02  0.34667268501E+02  0.41800000000E+01 0. -1.
        -11    1    1    2    0    0 -0.67363124227E+01 -0.65230004541E+02  0.26212229602E+02  0.70621614101E+02  0.00000000000E+00 0. -1.
         11    1    1    2    0    0 -0.74851165234E+02 -0.76127850312E+01  0.25127268392E+02  0.79322323778E+02  0.00000000000E+00 0.  1.
</event>
<event>
 7    1  0.2686828E-009  0.8672210E+02  0.7561462E-02  0.1310990E+00
          1   -1    0    0  501    0  0.00000000000E+00  0.00000000000E+00  0.40874968617E+03  0.40874968617E+03  0.00000000000E+00 0. -1.
         -1   -1    0    0    0  501 -0.00000000000E+00 -0.00000000000E+00 -0.32580618598E+02  0.32580618598E+02  0.00000000000E+00 0.  1.
         25    2    1    2    0    0  0.10771702599E+02  0.33098896746E+01  0.28422703030E+03  0.31073805107E+03  0.12508455814E+03 0.  0.
          5    1    3    3  502    0  0.44456746196E+02  0.20504660704E+02  0.26221632327E+03  0.26678027660E+03  0.41800000000E+01 0. -1.
         -5    1    3    3    0  502 -0.33685043597E+02 -0.17194771029E+02  0.22010707028E+02  0.43957774475E+02  0.41800000000E+01 0. -1.
        -11    1    1    2    0    0  0.16725508756E+02 -0.38278791189E+02  0.20746343681E+02  0.46641390140E+02  0.00000000000E+00 0.  1.
         11    1    1    2    0    0 -0.27497211355E+02  0.34968901515E+02  0.71195693589E+02  0.83950863552E+02  0.00000000000E+00 0. -1.
</event>
<event>
 7    1  0.2686828E-009  0.4846995E+03  0.7561462E-02  0.1017852E+00
          1   -1    0    0  501    0  0.00000000000E+00  0.00000000000E+00  0.78150620093E+03  0.78150620093E+03  0.00000000000E+00 0. -1.
         -1   -1    0    0    0  501 -0.00000000000E+00 -0.00000000000E+00 -0.34221285771E+03  0.34221285771E+03  0.00000000000E+00 0.  1.
         25    2    1    2    0    0  0.35619685774E+03  0.31202075108E+03  0.41281485664E+03  0.64054585417E+03  0.12509890031E+03 0.  0.
          5    1    3    3  502    0  0.99972255644E+02  0.24569768835E+02  0.10943586783E+03  0.15030571182E+03  0.41800000000E+01 0. -1.
         -5    1    3    3    0  502  0.25622460210E+03  0.28745098225E+03  0.30337898882E+03  0.49024014235E+03  0.41800000000E+01 0. -1.
        -11    1    1    2    0    0 -0.92748886278E+02 -0.13532132039E+03 -0.69202797672E+01  0.16420141878E+03  0.00000000000E+00 0.  1.
         11    1    1    2    0    0 -0.26344797147E+03 -0.17669943070E+03  0.33398766340E+02  0.31897178570E+03  0.00000000000E+00 0. -1.
</event>
<event>
 7    1  0.2686828E-009  0.1052514E+03  0.7561462E-02  0.1269625E+00
         -2   -1    0    0    0  501 -0.00000000000E+00  0.00000000000E+00  0.79981529418E+02  0.79981529418E+02  0.00000000000E+00 0.  1.
          2   -1    0    0  501    0  0.00000000000E+00 -0.00000000000E+00 -0.22197522508E+03  0.22197522508E+03  0.00000000000E+00 0. -1.
         25    2    1    2    0    0 -0.56414308295E+02  0.32732555777E+02 -0.28641400140E+02  0.14395029246E+03  0.12508941806E+03 0.  0.
          5    1    3    3  502    0  0.23169353077E+02 -0.59532311228E+01 -0.47527891487E+02  0.53372584273E+02  0.41800000000E+01 0. -1.
         -5    1    3    3    0  502 -0.79583661372E+02  0.38685786900E+02  0.18886491346E+02  0.90577708189E+02  0.41800000000E+01 0. -1.
        -11    1    1    2    0    0  0.70780793321E+02 -0.11074515718E+02 -0.44317152970E+02  0.84241175496E+02  0.00000000000E+00 0.  1.
         11    1    1    2    0    0 -0.14366485026E+02 -0.21658040059E+02 -0.69035142554E+02  0.73765286542E+02  0.00000000000E+00 0. -1.
</event>
<event>
 7    1  0.2686828E-009  0.1926537E+03  0.7561462E-02  0.1156089E+00
         -1   -1    0    0    0  501 -0.00000000000E+00  0.00000000000E+00  0.72932532554E+02  0.72932532554E+02  0.00000000000E+00 0.  1.
          1   -1    0    0  501    0  0.00000000000E+00 -0.00000000000E+00 -0.74112806875E+03  0.74112806875E+03  0.00000000000E+00 0. -1.
         25    2    1    2    0    0  0.30377354599E+02  0.15715663895E+03 -0.11971319237E+03  0.23579615210E+03  0.12509030370E+03 0.  0.
          5    1    3    3  502    0 -0.26728856497E+02 -0.80837738541E+01 -0.18083109475E+02  0.33529843686E+02  0.41800000000E+01 0.  1.
         -5    1    3    3    0  502  0.57106211096E+02  0.16524041280E+03 -0.10163008290E+03  0.20226630841E+03  0.41800000000E+01 0.  1.
        -11    1    1    2    0    0  0.23965214523E+02 -0.10194057407E+03 -0.28507251665E+03  0.30369812627E+03  0.00000000000E+00 0.  1.
         11    1    1    2    0    0 -0.54342569122E+02 -0.55216064880E+02 -0.26340982717E+03  0.27456632293E+03  0.00000000000E+00 0. -1.
</event>
<event>
 7    1  0.2686828E-009  0.3008452E+03  0.7561462E-02  0.1084819E+00
         -2   -1    0    0    0  501 -0.00000000000E+00  0.00000000000E+00  0.43392276355E+02  0.43392276355E+02  0.00000000000E+00 0.  1.
          2   -1    0    0  501    0  0.00000000000E+00 -0.00000000000E+00 -0.22690810828E+04  0.22690810828E+04  0.00000000000E+00 0. -1.
         25    2    1    2    0    0 -0.26975503305E+03 -0.11456525655E+03 -0.10505509931E+04  0.10978148736E+04  0.12508849542E+03 0.  0.
          5    1    3    3  502    0 -0.13242700336E+02  0.28837773672E+01 -0.22368760260E+03  0.22413679136E+03  0.41800000000E+01 0.  1.
         -5    1    3    3    0  502 -0.25651233271E+03 -0.11744903392E+03 -0.82686339047E+03  0.87367808219E+03  0.41800000000E+01 0.  1.
        -11    1    1    2    0    0  0.16475295156E+03  0.23610204624E+02 -0.57151577177E+03  0.59525730083E+03  0.00000000000E+00 0.  1.
         11    1    1    2    0    0  0.10500208148E+03  0.90955051931E+02 -0.60362204158E+03  0.61940118475E+03  0.00000000000E+00 0. -1.
</event>
<event>
 7    1  0.2686828E-009  0.8903192E+02  0.7561462E-02  0.1305213E+00
          2   -1    0    0  501    0  0.00000000000E+00  0.00000000000E+00  0.55611117836E+03  0.55611117836E+03  0.00000000000E+00 0. -1.
         -2   -1    0    0    0  501 -0.00000000000E+00 -0.00000000000E+00 -0.29097196527E+02  0.29097196527E+02  0.00000000000E+00 0.  1.
         25    2    1    2    0    0  0.34119514352E+02 -0.39872023500E+02  0.39460486992E+03  0.41726867146E+03  0.12508485640E+03 0.  0.
          5    1    3    3  502    0  0.42694642022E+02 -0.51097186664E+02  0.39680437743E+03  0.40237413099E+03  0.41800000000E+01 0. -1.
         -5    1    3    3    0  502 -0.85751276694E+01  0.11225163164E+02 -0.21995075080E+01  0.14894540472E+02  0.41800000000E+01 0. -1.
        -11    1    1    2    0    0 -0.20592894095E+01  0.59162789103E+02  0.50205797567E+02  0.77621507307E+02  0.00000000000E+00 0.  1.
         11    1    1    2    0    0 -0.32060224943E+02 -0.19290765603E+02  0.82203314348E+02  0.90318196122E+02  0.00000000000E+00 0. -1.
</event>
<event>
 7    1  0.2686828E-009  0.7995395E+02  0.7561462E-02  0.1329182E+00
         -2   -1    0    0    0  501 -0.00000000000E+00  0.00000000000E+00  0.15390074660E+03  0.15390074660E+03  0.00000000000E+00 0.  1.
          2   -1    0    0  501    0  0.00000000000E+00 -0.00000000000E+00 -0.11587190661E+03  0.11587190661E+03  0.00000000000E+00 0. -1.
         25    2    1    2    0    0 -0.19545375167E+02 -0.29594569445E+02  0.90246122740E+02  0.15827226702E+03  0.12509151693E+03 0.  0.
          5    1    3    3  502    0 -0.12280182885E+02 -0.56509818372E+02  0.10965979375E+03  0.12404396491E+03  0.41800000000E+01 0.  1.
         -5    1    3    3    0  502 -0.72651922815E+01  0.26915248927E+02 -0.19413671012E+02  0.34228302117E+02  0.41800000000E+01 0.  1.
        -11    1    1    2    0    0 -0.23801423939E+01 -0.19670682407E+02  0.15341914316E+02  0.25059432537E+02  0.00000000000E+00 0.  1.
         11    1    1    2    0    0  0.21925517561E+02  0.49265251852E+02 -0.67559197062E+02  0.86440953650E+02  0.00000000000E+00 0. -1.
</event>
<event>
 7    1  0.2686828E-009  0.7146818E+02  0.7561462E-02  0.1355170E+00
         -2   -1    0    0    0  501 -0.00000000000E+00  0.00000000000E+00  0.12933655131E+03  0.12933655131E+03  0.00000000000E+00 0.  1.
          2   -1    0    0  501    0  0.00000000000E+00 -0.00000000000E+00 -0.10262981536E+03  0.10262981536E+03  0.00000000000E+00 0. -1.
         25    2    1    2    0    0 -0.11942684966E+02  0.37384513619E+02  0.11332958824E+02  0.13158900073E+03  0.12508796735E+03 0.  0.
          5    1    3    3  502    0  0.45777944893E+01  0.10468123195E+02  0.66651658851E+02  0.67752888006E+02  0.41800000000E+01 0. -1.
         -5    1    3    3    0  502 -0.16520479456E+02  0.26916390425E+02 -0.55318700027E+02  0.63836112724E+02  0.41800000000E+01 0. -1.
        -11    1    1    2    0    0  0.19924328602E+02 -0.66137146090E+02  0.14179640535E+02  0.70513567268E+02  0.00000000000E+00 0.  1.
         11    1    1    2    0    0 -0.79816436358E+01  0.28752632471E+02  0.11941365872E+01  0.29863798675E+02  0.00000000000E+00 0. -1.
</event>
<event>
 7    1  0.2686828E-009  0.2238537E+03  0.7561462E-02  0.1131042E+00
          2   -1    0    0  501    0  0.00000000000E+00  0.00000000000E+00  0.45171726705E+03  0.45171726705E+03  0.00000000000E+00 0. -1.
         -2   -1    0    0    0  501 -0.00000000000E+00 -0.00000000000E+00 -0.11539656157E+03  0.11539656157E+03  0.00000000000E+00 0.  1.
         25    2    1    2    0    0 -0.11410921829E+03  0.16063819626E+03  0.12868131307E+03  0.26652027943E+03  0.12509450513E+03 0.  0.
          5    1    3    3  502    0 -0.12810354183E+03  0.85817610169E+02  0.10536859255E+03  0.18680254907E+03  0.41800000000E+01 0. -1.
         -5    1    3    3    0  502  0.13994323538E+02  0.74820586096E+02  0.23312720520E+02  0.79717730356E+02  0.41800000000E+01 0. -1.
        -11    1    1    2    0    0  0.11353885723E+03 -0.85614712984E+02  0.13100076989E+03  0.19334464796E+03  0.00000000000E+00 0.  1.
         11    1    1    2    0    0  0.57036105547E+00 -0.75023483281E+02  0.76638622517E+02  0.10724890124E+03  0.00000000000E+00 0. -1.
</event>
<event>
 7    1  0.2686828E-009  0.1007463E+03  0.7561462E-02  0.1278734E+00
          2   -1    0    0  501    0  0.00000000000E+00  0.00000000000E+00  0.12741009227E+03  0.12741009227E+03  0.00000000000E+00 0. -1.
         -2   -1    0    0    0  501 -0.00000000000E+00 -0.00000000000E+00 -0.17587456294E+03  0.17587456294E+03  0.00000000000E+00 0.  1.
         25    2    1    2    0    0  0.60506934861E+02 -0.86275900198E+01 -0.11024354944E+03  0.17758836433E+03  0.12509381469E+03 0.  0.
          5    1    3    3  502    0 -0.42633343885E+01 -0.57053191646E+02 -0.35997126222E+02  0.67723763875E+02  0.41800000000E+01 0.  1.
         -5    1    3    3    0  502  0.64770269250E+02  0.48425601626E+02 -0.74246423219E+02  0.10986460045E+03  0.41800000000E+01 0.  1.
        -11    1    1    2    0    0 -0.19303708313E+02  0.10360944639E+02 -0.22786954561E+02  0.31610561947E+02  0.00000000000E+00 0.  1.
         11    1    1    2    0    0 -0.41203226549E+02 -0.17333546194E+01  0.84566033334E+02  0.94085728940E+02  0.00000000000E+00 0. -1.
</event>
<event>
 7    1  0.2686828E-009  0.1069461E+03  0.7561462E-02  0.1266332E+00
          1   -1    0    0  501    0  0.00000000000E+00  0.00000000000E+00  0.12080110227E+03  0.12080110227E+03  0.00000000000E+00 0. -1.
         -1   -1    0    0    0  501 -0.00000000000E+00 -0.00000000000E+00 -0.14637231904E+03  0.14637231904E+03  0.00000000000E+00 0.  1.
         25    2    1    2    0    0  0.74261584101E+01  0.72443885544E+01  0.62658783655E+02  0.14029085242E+03  0.12509105128E+03 0.  0.
          5    1    3    3  502    0  0.64698912825E+02  0.77027608108E+01  0.18533777023E+02  0.67869397636E+02  0.41800000000E+01 0. -1.
         -5    1    3    3    0  502 -0.57272754414E+02 -0.45837225646E+00  0.44125006632E+02  0.72421454788E+02  0.41800000000E+01 0. -1.
        -11    1    1    2    0    0 -0.49567403281E+01  0.41788054078E+02 -0.39827007468E+02  0.57939634640E+02  0.00000000000E+00 0. -1.
         11    1    1    2    0    0 -0.24694180821E+01 -0.49032442632E+02 -0.48402992953E+02  0.68942934250E+02  0.00000000000E+00 0.  1.
</event>
<event>
 7    1  0.2686828E-009  0.8317841E+02  0.7561462E-02  0.1320266E+00
         -3   -1    0    0    0  501 -0.00000000000E+00  0.00000000000E+00  0.13173695342E+03  0.13173695342E+03  0.00000000000E+00 0.  1.
          3   -1    0    0  501    0  0.00000000000E+00 -0.00000000000E+00 -0.10150608642E+03  0.10150608642E+03  0.00000000000E+00 0. -1.
         25    2    1    2    0    0  0.27238811426E+02  0.26415855287E+02  0.70624948350E+01  0.13090592224E+03  0.12508689534E+03 0.  0.
          5    1    3    3  502    0 -0.23647702472E+02  0.36604063000E+02  0.47785185180E+02  0.64807156881E+02  0.41800000000E+01 0.  1.
         -5    1    3    3    0  502  0.50886513898E+02 -0.10188207713E+02 -0.40722690345E+02  0.66098765359E+02  0.41800000000E+01 0.  1.
        -11    1    1    2    0    0  0.53241380649E+01  0.16101912000E+02  0.42216633364E+02  0.45495737699E+02  0.00000000000E+00 0.  1.
         11    1    1    2    0    0 -0.32562949491E+02 -0.42517767287E+02 -0.19048261196E+02  0.56841379903E+02  0.00000000000E+00 0. -1.
</event>
<event>
 7    1  0.2686828E-009  0.1422011E+03  0.7561462E-02  0.1210398E+00
          2   -1    0    0  501    0  0.00000000000E+00  0.00000000000E+00  0.61408567292E+03  0.61408567292E+03  0.00000000000E+00 0. -1.
         -2   -1    0    0    0  501 -0.00000000000E+00 -0.00000000000E+00 -0.38763431885E+02  0.38763431885E+02  0.00000000000E+00 0.  1.
         25    2    1    2    0    0 -0.60257622597E+02 -0.88792795503E+02  0.30143447682E+03  0.34354552669E+03  0.12508254667E+03 0.  0.
          5    1    3    3  502    0 -0.82684186776E+02 -0.16263577832E+02  0.11876019494E+03  0.14567990599E+03  0.41800000000E+01 0.  1.
         -5    1    3    3    0  502  0.22426564179E+02 -0.72529217671E+02  0.18267428188E+03  0.19786562070E+03  0.41800000000E+01 0.  1.
        -11    1    1    2    0    0  0.43437591225E+02  0.11552901170E+02  0.32956071804E+02  0.55735056523E+02  0.00000000000E+00 0.  1.
         11    1    1    2    0    0  0.16820031372E+02  0.77239894333E+02  0.24093169241E+03  0.25356852159E+03  0.00000000000E+00 0. -1.
</event>
<event>
 7    1  0.2686828E-009  0.1314124E+03  0.7561462E-02  0.1225375E+00
          1   -1    0    0  501    0  0.00000000000E+00  0.00000000000E+00  0.15365649037E+03  0.15365649037E+03  0.00000000000E+00 0. -1.
         -1   -1    0    0    0  501 -0.00000000000E+00 -0.00000000000E+00 -0.12757455530E+03  0.12757455530E+03  0.00000000000E+00 0.  1.
         25    2    1    2    0    0  0.82453419057E+02  0.35397641073E+02  0.76568726738E+01  0.15413530829E+03  0.12508999263E+03 0.  0.
          5    1    3    3  502    0  0.66743648824E+02 -0.39108885444E+02  0.79305139946E+01  0.77875445625E+02  0.41800000000E+01 0.  1.
         -5    1    3    3    0  502  0.15709770232E+02  0.74506526517E+02 -0.27364132079E+00  0.76259862667E+02  0.41800000000E+01 0.  1.
        -11    1    1    2    0    0 -0.52707193027E+02 -0.52822370714E+02  0.41717626177E+02  0.85490416881E+02  0.00000000000E+00 0. -1.
         11    1    1    2    0    0 -0.29746226030E+02  0.17424729642E+02 -0.23292563788E+02  0.41605320500E+02  0.00000000000E+00 0.  1.
</event>
<event>
 7    1  0.2686828E-009  0.1067985E+03  0.7561462E-02  0.1266616E+00
          1   -1    0    0  501    0  0.00000000000E+00  0.00000000000E+00  0.74393894120E+02  0.74393894120E+02  0.00000000000E+00 0. -1.
         -1   -1    0    0    0  501 -0.00000000000E+00 -0.00000000000E+00 -0.20764270167E+03  0.20764270167E+03  0.00000000000E+00 0.  1.
         25    2    1    2    0    0  0.36135188323E+02 -0.46474459239E+02 -0.71419373863E+02  0.15560682658E+03  0.12508848995E+03 0.  0.
          5    1    3    3  502    0 -0.23523400611E+02  0.31746856774E+02 -0.18612616254E+02  0.43876134460E+02  0.41800000000E+01 0.  1.
         -5    1    3    3    0  502  0.59658588933E+02 -0.78221316014E+02 -0.52806757609E+02  0.11173069212E+03  0.41800000000E+01 0.  1.
        -11    1    1    2    0    0 -0.23558350844E+02  0.55250988764E+02 -0.81653754720E+02  0.10136569101E+03  0.00000000000E+00 0.  1.
         11    1    1    2    0    0 -0.12576837478E+02 -0.87765295244E+01  0.19824321035E+02  0.25064078199E+02  0.00000000000E+00 0. -1.
</event>
<event>
 7    1  0.2686828E-009  0.1208918E+03  0.7561462E-02  0.1241633E+00
         -2   -1    0    0    0  501 -0.00000000000E+00  0.00000000000E+00  0.40232437820E+02  0.40232437820E+02  0.00000000000E+00 0.  1.
          2   -1    0    0  501    0  0.00000000000E+00 -0.00000000000E+00 -0.56792971819E+03  0.56792971819E+03  0.00000000000E+00 0. -1.
         25    2    1    2    0    0 -0.67945189350E+02 -0.45972501625E+02 -0.41113407349E+03  0.43750197489E+03  0.12508689773E+03 0.  0.
          5    1    3    3  502    0 -0.62777521544E+02  0.14998093824E+02 -0.91592328150E+02  0.11212754793E+03  0.41800000000E+01 0.  1.
         -5    1    3    3    0  502 -0.51676678056E+01 -0.60970595449E+02 -0.31954174534E+03  0.32537442696E+03  0.41800000000E+01 0.  1.
        -11    1    1    2    0    0 -0.12456623877E+02  0.31771259728E+02 -0.84060972789E+01  0.35146022458E+02  0.00000000000E+00 0.  1.
         11    1    1    2    0    0  0.80401813227E+02  0.14201241897E+02 -0.10815710960E+03  0.13551415866E+03  0.00000000000E+00 0. -1.
</event>
<event>
 7    1  0.2686828E-009  0.1360415E+03  0.7561462E-02  0.1218757E+00
         -2   -1    0    0    0  501 -0.00000000000E+00  0.00000000000E+00  0.74551175938E+02  0.74551175938E+02  0.00000000000E+00 0.  1.
          2   -1    0    0  501    0  0.00000000000E+00 -0.00000000000E+00 -0.32521611327E+03  0.32521611327E+03  0.00000000000E+00 0. -1.
         25    2    1    2    0    0  0.74096336008E+02 -0.79408661990E+02 -0.16592818494E+03  0.23446360116E+03  0.12508003480E+03 0.  0.
          5    1    3    3  502    0  0.11927643243E+02 -0.91070392444E+02 -0.13649319117E+03  0.16457201672E+03  0.41800000000E+01 0. -1.
         -5    1    3    3    0  502  0.62168692765E+02  0.11661730453E+02 -0.29434993773E+02  0.69891584441E+02  0.41800000000E+01 0. -1.
        -11    1    1    2    0    0 -0.34146464043E+02  0.66518513894E+02 -0.46902536138E+01  0.74917902909E+02  0.00000000000E+00 0. -1.
         11    1    1    2    0    0 -0.39949871965E+02  0.12890148096E+02 -0.80046498782E+02  0.90385785139E+02  0.00000000000E+00 0.  1.
</event>
<event>
 7    1  0.2686828E-009  0.1232380E+03  0.7561462E-02  0.1237849E+00
         -2   -1    0    0    0  501 -0.00000000000E+00  0.00000000000E+00  0.27544267666E+02  0.27544267666E+02  0.00000000000E+00 0.  1.
          2   -1    0    0  501    0  0.00000000000E+00 -0.00000000000E+00 -0.56868777345E+03  0.56868777345E+03  0.00000000000E+00 0. -1.
         25    2    1    2    0    0 -0.44476112630E+02  0.40695466886E+02 -0.27948203565E+03  0.31208095803E+03  0.12510024177E+03 0.  0.
          5    1    3    3  502    0  0.31162909546E+02 -0.23634831830E+02 -0.85911804230E+02  0.94488320512E+02  0.41800000000E+01 0. -1.
         -5    1    3    3    0  502 -0.75639022176E+02  0.64330298715E+02 -0.19357023142E+03  0.21759263751E+03  0.41800000000E+01 0. -1.
        -11    1    1    2    0    0 -0.16672874967E+02 -0.43457880617E+02 -0.14672555410E+03  0.15393167436E+03  0.00000000000E+00 0. -1.
         11    1    1    2    0    0  0.61148987596E+02  0.27624137310E+01 -0.11493591604E+03  0.13021940873E+03  0.00000000000E+00 0.  1.
</event>
<event>
 7    1  0.2686828E-009  0.1276405E+03  0.7561462E-02  0.1230999E+00
          1   -1    0    0  501    0  0.00000000000E+00  0.00000000000E+00  0.14547828962E+04  0.14547828962E+04  0.00000000000E+00 0. -1.
         -1   -1    0    0    0  501 -0.00000000000E+00 -0.00000000000E+00 -0.14076584449E+02  0.14076584449E+02  0.00000000000E+00 0.  1.
         25    2    1    2    0    0 -0.53117187933E+02  0.53348268444E+02  0.10521057424E+04  0.10621862109E+04  0.12508229301E+03 0.  0.
          5    1    3    3  502    0  0.13958962741E+02  0.71587376370E+02  0.65029848336E+03  0.65438917699E+03  0.41800000000E+01 0. -1.
         -5    1    3    3    0  502 -0.67076150674E+02 -0.18239107926E+02  0.40180725905E+03  0.40779703392E+03  0.41800000000E+01 0. -1.
        -11    1    1    2    0    0  0.63997114078E+02 -0.63090959097E+01  0.28792726526E+03  0.29502126259E+03  0.00000000000E+00 0. -1.
         11    1    1    2    0    0 -0.10879926145E+02 -0.47039172534E+02  0.10067330404E+03  0.11165200711E+03  0.00000000000E+00 0.  1.
</event>
<event>
 7    1  0.2686828E-009  0.1883773E+03  0.7561462E-02  0.1159933E+00
         -2   -1    0    0    0  501 -0.00000000000E+00  0.00000000000E+00  0.13789903714E+03  0.13789903714E+03  0.00000000000E+00 0.  1.
          2   -1    0    0  501    0  0.00000000000E+00 -0.00000000000E+00 -0.39783962737E+03  0.39783962737E+03  0.00000000000E+00 0. -1.
         25    2    1    2    0    0  0.57446234283E+02  0.14481349081E+03 -0.28984847304E+03  0.35203818535E+03  0.12509088563E+03 0.  0.
          5    1    3    3  502    0  0.69273693602E+02  0.17225826211E+02 -0.10883503384E+03  0.13022331091E+03  0.41800000000E+01 0.  1.
         -5    1    3    3    0  502 -0.11827459319E+02  0.12758766460E+03 -0.18101343920E+03  0.22181487444E+03  0.41800000000E+01 0.  1.
        -11    1    1    2    0    0 -0.79529516037E+02 -0.10811197546E+03  0.39302352486E+02  0.13984926911E+03  0.00000000000E+00 0. -1.
         11    1    1    2    0    0  0.22083281754E+02 -0.36701515349E+02 -0.93944696803E+01  0.43851210047E+02  0.00000000000E+00 0.  1.
</event>
<event>
 7    1  0.2686828E-009  0.1224471E+03  0.7561462E-02  0.1239114E+00
         -1   -1    0    0    0  501 -0.00000000000E+00  0.00000000000E+00  0.18269526350E+03  0.18269526350E+03  0.00000000000E+00 0.  1.
          1   -1    0    0  501    0  0.00000000000E+00 -0.00000000000E+00 -0.98643962574E+02  0.98643962574E+02  0.00000000000E+00 0. -1.
         25    2    1    2    0    0  0.27184623021E+02 -0.72143527741E+02  0.59059734684E+02  0.15836348115E+03  0.12508895865E+03 0.  0.
          5    1    3    3  502    0  0.19903729019E+02 -0.98521053913E+02  0.75849039919E+02  0.12598851436E+03  0.41800000000E+01 0. -1.
         -5    1    3    3    0  502  0.72808940023E+01  0.26377526171E+02 -0.16789305235E+02  0.32374966790E+02  0.41800000000E+01 0. -1.
        -11    1    1    2    0    0  0.31620715444E+02  0.16548009338E+02  0.22142891717E+02  0.42000165617E+02  0.00000000000E+00 0.  1.
         11    1    1    2    0    0 -0.58805338465E+02  0.55595518403E+02  0.28486745268E+01  0.80975579313E+02  0.00000000000E+00 0. -1.
</event>
<event>
 7    1  0.2686828E-009  0.9552955E+02  0.7561462E-02  0.1289988E+00
          3   -1    0    0  501    0  0.00000000000E+00  0.00000000000E+00  0.17403990123E+03  0.17403990123E+03  0.00000000000E+00 0. -1.
         -3   -1    0    0    0  501 -0.00000000000E+00 -0.00000000000E+00 -0.89443778389E+02  0.89443778389E+02  0.00000000000E+00 0.  1.
         25    2    1    2    0    0  0.47570983592E+02  0.10716925375E+02  0.15417154444E+01  0.13427182952E+03  0.12509474948E+03 0.  0.
          5    1    3    3  502    0  0.74827369577E+02 -0.27847779572E+02  0.21564702047E+02  0.82807867013E+02  0.41800000000E+01 0.  1.
         -5    1    3    3    0  502 -0.27256385985E+02  0.38564704948E+02 -0.20022986602E+02  0.51463962509E+02  0.41800000000E+01 0.  1.
        -11    1    1    2    0    0 -0.14575021359E+02 -0.24041572954E+02 -0.97989679121E+01  0.29773280804E+02  0.00000000000E+00 0.  1.
         11    1    1    2    0    0 -0.32995962233E+02  0.13324647578E+02  0.92853375307E+02  0.99438569291E+02  0.00000000000E+00 0. -1.
</event>
<event>
 7    1  0.2686828E-009  0.8591070E+02  0.7561462E-02  0.1313068E+00
          2   -1    0    0  501    0  0.00000000000E+00  0.00000000000E+00  0.13534972194E+03  0.13534972194E+03  0.00000000000E+00 0. -1.
         -2   -1    0    0    0  501 -0.00000000000E+00 -0.00000000000E+00 -0.10984518736E+03  0.10984518736E+03  0.00000000000E+00 0.  1.
         25    2    1    2    0    0 -0.20897984685E+02  0.46810326337E+02  0.39853385018E+02  0.14094254804E+03  0.12509427299E+03 0.  0.
          5    1    3    3  502    0 -0.33782676266E+02  0.66122362099E+02 -0.19659916896E+02  0.76924773107E+02  0.41800000000E+01 0.  1.
         -5    1    3    3    0  502  0.12884691581E+02 -0.19312035762E+02  0.59513301914E+02  0.64017774931E+02  0.41800000000E+01 0.  1.
        -11    1    1    2    0    0  0.15743971163E+02 -0.58768420991E+02  0.22734186415E+02  0.64949543229E+02  0.00000000000E+00 0. -1.
         11    1    1    2    0    0  0.51540135222E+01  0.11958094654E+02 -0.37083036854E+02  0.39302818034E+02  0.00000000000E+00 0.  1.
</event>
<event>
 7    1  0.2686828E-009  0.1065965E+03  0.7561462E-02  0.1267006E+00
         -2   -1    0    0    0  501 -0.00000000000E+00  0.00000000000E+00  0.25161351235E+03  0.25161351235E+03  0.00000000000E+00 0. -1.
          2   -1    0    0  501    0  0.00000000000E+00 -0.00000000000E+00 -0.11995313860E+03  0.11995313860E+03  0.00000000000E+00 0.  1.
         25    2    1    2    0    0  0.17561730373E+02 -0.69054320087E+02 -0.52882081699E+02  0.15336518695E+03  0.12508977779E+03 0.  0.
          5    1    3    3  502    0 -0.33291947551E+02  0.13570181656E+02 -0.42314031297E+02  0.55681713754E+02  0.41800000000E+01 0. -1.
         -5    1    3    3    0  502  0.50853677924E+02 -0.82624501743E+02 -0.10568050402E+02  0.97683473198E+02  0.41800000000E+01 0. -1.
        -11    1    1    2    0    0 -0.27776757861E+02  0.37127516802E+02  0.17813829705E+03  0.18407404395E+03  0.00000000000E+00 0. -1.
         11    1    1    2    0    0  0.10215027488E+02  0.31926803285E+02  0.64041584017E+01  0.34127420052E+02  0.00000000000E+00 0.  1.
</event>
<event>
 7    1  0.2686828E-009  0.1462798E+03  0.7561462E-02  0.1205120E+00
          2   -1    0    0  501    0  0.00000000000E+00  0.00000000000E+00  0.42904007138E+03  0.42904007138E+03  0.00000000000E+00 0. -1.
         -2   -1    0    0    0  501 -0.00000000000E+00 -0.00000000000E+00 -0.76264289332E+02  0.76264289332E+02  0.00000000000E+00 0.  1.
         25    2    1    2    0    0  0.11086110965E+03  0.91676310203E+02  0.20823213809E+03  0.28231643361E+03  0.12508882392E+03 0.  0.
          5    1    3    3  502    0  0.21515738159E+01  0.11928091125E+01 -0.16250169059E+02  0.16958551174E+02  0.41800000000E+01 0.  1.
         -5    1    3    3    0  502  0.10870953583E+03  0.90483501091E+02  0.22448230715E+03  0.26535788244E+03  0.41800000000E+01 0.  1.
        -11    1    1    2    0    0 -0.87875515025E+02 -0.57479845702E+02  0.14819216604E+03  0.18162311769E+03  0.00000000000E+00 0. -1.
         11    1    1    2    0    0 -0.22985594622E+02 -0.34196464501E+02 -0.36485220787E+01  0.41364809414E+02  0.00000000000E+00 0.  1.
</event>
<event>
 7    1  0.2686828E-009  0.1369746E+03  0.7561462E-02  0.1217459E+00
          2   -1    0    0  501    0  0.00000000000E+00  0.00000000000E+00  0.15784007214E+03  0.15784007214E+03  0.00000000000E+00 0. -1.
         -2   -1    0    0    0  501 -0.00000000000E+00 -0.00000000000E+00 -0.14318320834E+03  0.14318320834E+03  0.00000000000E+00 0.  1.
         25    2    1    2    0    0  0.85506077711E+02  0.54803002630E+02 -0.11509350590E+02  0.16153722725E+03  0.12508857747E+03 0.  0.
          5    1    3    3  502    0  0.12230699692E+02  0.74806172711E+02  0.21067692652E+02  0.78783713827E+02  0.41800000000E+01 0. -1.
         -5    1    3    3    0  502  0.73275378019E+02 -0.20003170082E+02 -0.32577043242E+02  0.82753513421E+02  0.41800000000E+01 0. -1.
        -11    1    1    2    0    0 -0.67506931465E+02 -0.70841063036E+02 -0.74280938044E+01  0.98136734129E+02  0.00000000000E+00 0.  1.
         11    1    1    2    0    0 -0.17999146246E+02  0.16038060406E+02  0.33594308200E+02  0.41349319107E+02  0.00000000000E+00 0. -1.
</event>
<event>
 7    1  0.2686828E-009  0.1113311E+03  0.7561462E-02  0.1258125E+00
          1   -1    0    0  501    0  0.00000000000E+00  0.00000000000E+00  0.89012419005E+03  0.89012419005E+03  0.00000000000E+00 0. -1.
         -1   -1    0    0    0  501 -0.00000000000E+00 -0.00000000000E+00 -0.17839731016E+02  0.17839731016E+02  0.00000000000E+00 0.  1.
         25    2    1    2    0    0 -0.36155569761E+02 -0.34944740869E+02  0.60981549639E+03  0.62454060356E+03  0.12509063005E+03 0.  0.
          5    1    3    3  502    0  0.25793107105E+01  0.44900526981E+02  0.17445038118E+03  0.18020299126E+03  0.41800000000E+01 0.  1.
         -5    1    3    3    0  502 -0.38734880472E+02 -0.79845267850E+02  0.43536511521E+03  0.44433761230E+03  0.41800000000E+01 0.  1.
        -11    1    1    2    0    0  0.23133115698E+02  0.57849124927E+02  0.24246680726E+03  0.25034339400E+03  0.00000000000E+00 0. -1.
         11    1    1    2    0    0  0.13022454063E+02 -0.22904384059E+02  0.20002155390E+02  0.33079923506E+02  0.00000000000E+00 0.  1.
</event>
<event>
 7    1  0.2686828E-009  0.1227959E+03  0.7561462E-02  0.1238555E+00
          2   -1    0    0  501    0  0.00000000000E+00  0.00000000000E+00  0.38568347053E+03  0.38568347053E+03  0.00000000000E+00 0. -1.
         -2   -1    0    0    0  501 -0.00000000000E+00 -0.00000000000E+00 -0.40548699856E+02  0.40548699856E+02  0.00000000000E+00 0.  1.
         25    2    1    2    0    0 -0.15610649853E+02  0.57511465234E+02  0.15847693012E+03  0.21050664139E+03  0.12508736015E+03 0.  0.
          5    1    3    3  502    0  0.21560406257E+02  0.87206903215E+02  0.11440774235E+03  0.14552147262E+03  0.41800000000E+01 0. -1.
         -5    1    3    3    0  502 -0.37171056110E+02 -0.29695437981E+02  0.44069187771E+02  0.64985168769E+02  0.41800000000E+01 0. -1.
        -11    1    1    2    0    0  0.47486073110E+02 -0.67509820005E+01  0.75773740474E+02  0.89678105705E+02  0.00000000000E+00 0.  1.
         11    1    1    2    0    0 -0.31875423257E+02 -0.50760483233E+02  0.11088410008E+03  0.12604742329E+03  0.00000000000E+00 0. -1.
</event>
<event>
 7    1  0.2686828E-009  0.1312853E+03  0.7561462E-02  0.1225561E+00
          1   -1    0    0  501    0  0.00000000000E+00  0.00000000000E+00  0.10599091034E+03  0.10599091034E+03  0.00000000000E+00 0. -1.
         -1   -1    0    0    0  501 -0.00000000000E+00 -0.00000000000E+00 -0.24512969207E+03  0.24512969207E+03  0.00000000000E+00 0.  1.
         25    2    1    2    0    0  0.89819465231E+02 -0.22920462551E+02 -0.15601490034E+03  0.22041245477E+03  0.12509243442E+03 0.  0.
          5    1    3    3  502    0  0.19265447802E+02 -0.68298442099E+02 -0.61795708329E+02  0.94191383046E+02  0.41800000000E+01 0. -1.
         -5    1    3    3    0  502  0.70554017429E+02  0.45377979548E+02 -0.94219192010E+02  0.12622107172E+03  0.41800000000E+01 0. -1.
        -11    1    1    2    0    0 -0.38162545858E+02 -0.17420294453E+02 -0.28742777400E+02  0.50852667755E+02  0.00000000000E+00 0.  1.
         11    1    1    2    0    0 -0.51656919373E+02  0.40340757004E+02  0.45618896012E+02  0.79855479888E+02  0.00000000000E+00 0. -1.
</event>
<event>
 7    1  0.2686828E-009  0.1318532E+03  0.7561462E-02  0.1224732E+00
         -1   -1    0    0    0  501 -0.00000000000E+00  0.00000000000E+00  0.77296545277E+02  0.77296545277E+02  0.00000000000E+00 0.  1.
          1   -1    0    0  501    0  0.00000000000E+00 -0.00000000000E+00 -0.28485303151E+03  0.28485303151E+03  0.00000000000E+00 0. -1.
         25    2    1    2    0    0  0.83377145995E+02  0.54006171538E+02 -0.93958159932E+02  0.18532447443E+03  0.12509440422E+03 0.  0.
          5    1    3    3  502    0  0.50425087861E+02 -0.28142598576E+02 -0.24566579096E+01  0.57950003525E+02  0.41800000000E+01 0.  1.
         -5    1    3    3    0  502  0.32952058134E+02  0.82148770114E+02 -0.91501502022E+02  0.12737447091E+03  0.41800000000E+01 0.  1.
        -11    1    1    2    0    0  0.18031771932E+01 -0.28111382466E+02  0.49171099817E+01  0.28595091235E+02  0.00000000000E+00 0.  1.
         11    1    1    2    0    0 -0.85180323188E+02 -0.25894789072E+02 -0.11851543628E+03  0.14823001112E+03  0.00000000000E+00 0. -1.
</event>
<event>
 7    1  0.2686828E-009  0.1078968E+03  0.7561462E-02  0.1264515E+00
         -1   -1    0    0    0  501 -0.00000000000E+00  0.00000000000E+00  0.42960738830E+02  0.42960738830E+02  0.00000000000E+00 0.  1.
          1   -1    0    0  501    0  0.00000000000E+00 -0.00000000000E+00 -0.49434430978E+03  0.49434430978E+03  0.00000000000E+00 0. -1.
         25    2    1    2    0    0 -0.44872675910E+02 -0.93326111262E+01 -0.83513928412E+02  0.15723925329E+03  0.12509577076E+03 0.  0.
          5    1    3    3  502    0  0.19475423887E+02 -0.51243170489E+02 -0.45934388137E+02  0.71642131954E+02  0.41800000000E+01 0.  1.
         -5    1    3    3    0  502 -0.64348099796E+02  0.41910559362E+02 -0.37579540274E+02  0.85597121334E+02  0.41800000000E+01 0.  1.
        -11    1    1    2    0    0 -0.60631194054E+01  0.28761064281E+02 -0.53854249183E+02  0.61353405696E+02  0.00000000000E+00 0.  1.
         11    1    1    2    0    0  0.50935795315E+02 -0.19428453155E+02 -0.31401539336E+03  0.31871238963E+03  0.00000000000E+00 0. -1.
</event>
<event>
 7    1  0.4414407E-009  0.1252026E+03  0.7561462E-02  0.1234753E+00
         -2   -1    0    0    0  501 -0.00000000000E+00  0.00000000000E+00  0.27470095740E+03  0.27470095740E+03  0.00000000000E+00 0.  1.
          2   -1    0    0  501    0  0.00000000000E+00 -0.00000000000E+00 -0.78718657793E+02  0.78718657793E+02  0.00000000000E+00 0. -1.
         25    2    1    2    0    0  0.25567488636E+02 -0.95231141950E+02  0.96517140919E+02  0.18623887736E+03  0.12508674621E+03 0.  0.
          5    1    3    3  502    0  0.47434028788E+02  0.27450455118E+01  0.65617356208E+02  0.81121095886E+02  0.41800000000E+01 0. -1.
         -5    1    3    3    0  502 -0.21866540152E+02 -0.97976187461E+02  0.30899784711E+02  0.10511778148E+03  0.41800000000E+01 0. -1.
        -11    1    1    2    0    0 -0.27194448858E+02  0.49528793727E+02  0.10683753142E+03  0.12085899874E+03  0.00000000000E+00 0.  1.
         11    1    1    2    0    0  0.16269602216E+01  0.45702348223E+02 -0.73723727297E+01  0.46321739090E+02  0.00000000000E+00 0. -1.
</event>
<event>
 7    1  0.2686828E-009  0.5794610E+02  0.7561462E-02  0.1406659E+00
         -3   -1    0    0    0  501 -0.00000000000E+00  0.00000000000E+00  0.15117590293E+03  0.15117590293E+03  0.00000000000E+00 0.  1.
          3   -1    0    0  501    0  0.00000000000E+00 -0.00000000000E+00 -0.86901362837E+02  0.86901362837E+02  0.00000000000E+00 0. -1.
         25    2    1    2    0    0  0.22297644773E+02  0.12431081746E+02  0.66870272095E+02  0.14413201631E+03  0.12510271012E+03 0.  0.
          5    1    3    3  502    0 -0.54154729914E+01  0.11260882884E+02  0.99918827766E+02  0.10078382496E+03  0.41800000000E+01 0.  1.
         -5    1    3    3    0  502  0.27713117764E+02  0.11701988621E+01 -0.33048555671E+02  0.43348191352E+02  0.41800000000E+01 0.  1.
        -11    1    1    2    0    0 -0.41036731778E+02 -0.28514147311E+02  0.25862341940E+02  0.56266603617E+02  0.00000000000E+00 0.  1.
         11    1    1    2    0    0  0.18739087006E+02  0.16083065565E+02 -0.28458073943E+02  0.37678645839E+02  0.00000000000E+00 0. -1.
</event>
<event>
 7    1  0.2686828E-009  0.1039900E+03  0.7561462E-02  0.1272122E+00
         -2   -1    0    0    0  501 -0.00000000000E+00  0.00000000000E+00  0.33540379643E+02  0.33540379643E+02  0.00000000000E+00 0.  1.
          2   -1    0    0  501    0  0.00000000000E+00 -0.00000000000E+00 -0.49429708938E+03  0.49429708938E+03  0.00000000000E+00 0. -1.
         25    2    1    2    0    0 -0.14911116967E+02  0.68670908603E+02 -0.26970727241E+03  0.30550015474E+03  0.12510114570E+03 0.  0.
          5    1    3    3  502    0  0.31118649435E+02  0.72052438297E+02 -0.88056599377E+02  0.11803118783E+03  0.41800000000E+01 0. -1.
         -5    1    3    3    0  502 -0.46029766402E+02 -0.33815296948E+01 -0.18165067303E+03  0.18746896690E+03  0.41800000000E+01 0. -1.
        -11    1    1    2    0    0  0.30030363200E+02 -0.34910471248E+02 -0.25364134868E+02  0.52572835707E+02  0.00000000000E+00 0.  1.
         11    1    1    2    0    0 -0.15119246233E+02 -0.33760437355E+02 -0.16568530246E+03  0.16976447858E+03  0.00000000000E+00 0. -1.
</event>
<event>
 7    1  0.2686828E-009  0.6332927E+02  0.7561462E-02  0.1384369E+00
         -2   -1    0    0    0  501 -0.00000000000E+00  0.00000000000E+00  0.27849713198E+03  0.27849713198E+03  0.00000000000E+00 0.  1.
          2   -1    0    0  501    0  0.00000000000E+00 -0.00000000000E+00 -0.38324314987E+02  0.38324314987E+02  0.00000000000E+00 0. -1.
         25    2    1    2    0    0  0.52924976449E+01 -0.55460505906E+01  0.11769985351E+03  0.17192897421E+03  0.12509015728E+03 0.  0.
          5    1    3    3  502    0  0.70816445807E+01  0.28580952499E+02 -0.16066733032E+02  0.33802852631E+02  0.41800000000E+01 0. -1.
         -5    1    3    3    0  502 -0.17891469359E+01 -0.34127003089E+02  0.13376658655E+03  0.13812612158E+03  0.41800000000E+01 0. -1.
        -11    1    1    2    0    0  0.10001724563E+02  0.31121928014E+02  0.10582204471E+03  0.11075610161E+03  0.00000000000E+00 0.  1.
         11    1    1    2    0    0 -0.15294222208E+02 -0.25575877423E+02  0.16650918764E+02  0.34136371139E+02  0.00000000000E+00 0. -1.
</event>
<event>
 7    1  0.2686828E-009  0.1755627E+03  0.7561462E-02  0.1172168E+00
         -1   -1    0    0    0  501 -0.00000000000E+00  0.00000000000E+00  0.41322425721E+02  0.41322425721E+02  0.00000000000E+00 0.  1.
          1   -1    0    0  501    0  0.00000000000E+00 -0.00000000000E+00 -0.76924053295E+03  0.76924053295E+03  0.00000000000E+00 0. -1.
         25    2    1    2    0    0  0.10393962151E+03 -0.61039289425E+02 -0.37614479985E+03  0.41432000391E+03  0.12508763095E+03 0.  0.
          5    1    3    3  502    0  0.17429767930E+02 -0.80513742998E+02 -0.14667879345E+03  0.16828071925E+03  0.41800000000E+01 0. -1.
         -5    1    3    3    0  502  0.86509853581E+02  0.19474453573E+02 -0.22946600639E+03  0.24603928467E+03  0.41800000000E+01 0. -1.
        -11    1    1    2    0    0 -0.32326265457E+02 -0.42856893610E+02 -0.76832980434E+02  0.93728371642E+02  0.00000000000E+00 0. -1.
         11    1    1    2    0    0 -0.71613356054E+02  0.10389618304E+03 -0.27494032695E+03  0.30251458312E+03  0.00000000000E+00 0.  1.
</event>
<event>
 7    1  0.2686828E-009  0.1571885E+03  0.7561462E-02  0.1191908E+00
         -2   -1    0    0    0  501 -0.00000000000E+00  0.00000000000E+00  0.10757464713E+03  0.10757464713E+03  0.00000000000E+00 0. -1.
          2   -1    0    0  501    0  0.00000000000E+00 -0.00000000000E+00 -0.29912274129E+03  0.29912274129E+03  0.00000000000E+00 0.  1.
         25    2    1    2    0    0 -0.12886087750E+03 -0.60492091353E+02 -0.86150523055E+02  0.20817249133E+03  0.12509778038E+03 0.  0.
          5    1    3    3  502    0 -0.82774443098E+02 -0.10990640563E+02  0.16455802247E+02  0.85209556024E+02  0.41800000000E+01 0.  1.
         -5    1    3    3    0  502 -0.46086434400E+02 -0.49501450790E+02 -0.10260632530E+03  0.12296293530E+03  0.41800000000E+01 0.  1.
        -11    1    1    2    0    0  0.11619335026E+03  0.16658645399E+02 -0.52269345114E+02  0.12849314982E+03  0.00000000000E+00 0. -1.
         11    1    1    2    0    0  0.12667527234E+02  0.43833445953E+02 -0.53128225988E+02  0.70031747279E+02  0.00000000000E+00 0.  1.
</event>
<event>
 7    1  0.2686828E-009  0.9657297E+02  0.7561462E-02  0.1287672E+00
         -1   -1    0    0    0  501 -0.00000000000E+00  0.00000000000E+00  0.28597717019E+03  0.28597717019E+03  0.00000000000E+00 0.  1.
          1   -1    0    0  501    0  0.00000000000E+00 -0.00000000000E+00 -0.53952164061E+02  0.53952164061E+02  0.00000000000E+00 0. -1.
         25    2    1    2    0    0  0.45116239637E+02 -0.11894545885E+02  0.18346551708E+03  0.22690224382E+03  0.12509227392E+03 0.  0.
          5    1    3    3  502    0  0.31486145791E+01 -0.55728504872E+02  0.33897223995E+02  0.65437559731E+02  0.41800000000E+01 0. -1.
         -5    1    3    3    0  502  0.41967625057E+02  0.43833958987E+02  0.14956829308E+03  0.16146468409E+03  0.41800000000E+01 0. -1.
        -11    1    1    2    0    0 -0.45419438456E+02 -0.16218725231E+02 -0.89142327540E+01  0.49045244248E+02  0.00000000000E+00 0. -1.
         11    1    1    2    0    0  0.30319881917E+00  0.28113271116E+02  0.57473721802E+02  0.63981846176E+02  0.00000000000E+00 0.  1.
</event>
<event>
 7    1  0.2686828E-009  0.1215193E+03  0.7561462E-02  0.1240612E+00
          1   -1    0    0  501    0  0.00000000000E+00  0.00000000000E+00  0.14048870283E+03  0.14048870283E+03  0.00000000000E+00 0. -1.
         -1   -1    0    0    0  501 -0.00000000000E+00 -0.00000000000E+00 -0.16214444900E+03  0.16214444900E+03  0.00000000000E+00 0.  1.
         25    2    1    2    0    0  0.10085166104E+03 -0.37982680498E+01 -0.44906507903E+02  0.16688142254E+03  0.12508928955E+03 0.  0.
          5    1    3    3  502    0 -0.43090226539E+01 -0.31146845813E+02 -0.48650565081E+02  0.58077909424E+02  0.41800000000E+01 0. -1.
         -5    1    3    3    0  502  0.10516068370E+03  0.27348577764E+02  0.37440571784E+01  0.10880351311E+03  0.41800000000E+01 0. -1.
        -11    1    1    2    0    0 -0.74838756981E+02 -0.52876864365E+01 -0.25928618418E+02  0.79379420680E+02  0.00000000000E+00 0.  1.
         11    1    1    2    0    0 -0.26012904062E+02  0.90859544862E+01  0.49179380153E+02  0.56372308618E+02  0.00000000000E+00 0. -1.
</event>
<event>
 7    1  0.2686828E-009  0.8822549E+02  0.7561462E-02  0.1307207E+00
          1   -1    0    0  501    0  0.00000000000E+00  0.00000000000E+00  0.34657634005E+02  0.34657634005E+02  0.00000000000E+00 0. -1.
         -1   -1    0    0    0  501 -0.00000000000E+00 -0.00000000000E+00 -0.57520010461E+03  0.57520010461E+03  0.00000000000E+00 0.  1.
         25    2    1    2    0    0  0.74432436235E+02 -0.35793704989E+02 -0.37378901754E+03  0.40272302854E+03  0.12508489599E+03 0.  0.
          5    1    3    3  502    0  0.62522950924E+02 -0.10231616012E+02 -0.36824753581E+03  0.37368104767E+03  0.41800000000E+01 0. -1.
         -5    1    3    3    0  502  0.11909485311E+02 -0.25562088977E+02 -0.55414817330E+01  0.29041980874E+02  0.41800000000E+01 0. -1.
        -11    1    1    2    0    0 -0.32303862325E+02  0.25306283722E+02 -0.15748300356E+03  0.16274164779E+03  0.00000000000E+00 0.  1.
         11    1    1    2    0    0 -0.42128573911E+02  0.10487421267E+02 -0.92704495080E+01  0.44393062281E+02  0.00000000000E+00 0. -1.
</event>
<event>
 7    1  0.2686828E-009  0.4083861E+03  0.7561462E-02  0.1040914E+00
          2   -1    0    0  501    0  0.00000000000E+00  0.00000000000E+00  0.13617950280E+04  0.13617950280E+04  0.00000000000E+00 0. -1.
         -2   -1    0    0    0  501 -0.00000000000E+00 -0.00000000000E+00 -0.16301891039E+03  0.16301891039E+03  0.00000000000E+00 0.  1.
         25    2    1    2    0    0 -0.30880936630E+03  0.26437001199E+03  0.26211813591E+03  0.49960658475E+03  0.12508434914E+03 0.  0.
          5    1    3    3  502    0 -0.20608236882E+03  0.17240297376E+03  0.99949972808E+02  0.28670576828E+03  0.41800000000E+01 0. -1.
         -5    1    3    3    0  502 -0.10272699749E+03  0.91967038225E+02  0.16216816310E+03  0.21290081647E+03  0.41800000000E+01 0. -1.
        -11    1    1    2    0    0  0.98478895063E+02 -0.11883897586E+03  0.44491213935E+03  0.47092208135E+03  0.00000000000E+00 0.  1.
         11    1    1    2    0    0  0.21033047124E+03 -0.14553103613E+03  0.49174584230E+03  0.55428527225E+03  0.00000000000E+00 0. -1.
</event>
<event>
 7    1  0.2686828E-009  0.1954486E+03  0.7561462E-02  0.1153637E+00
          2   -1    0    0  501    0  0.00000000000E+00  0.00000000000E+00  0.44219694008E+03  0.44219694008E+03  0.00000000000E+00 0. -1.
         -2   -1    0    0    0  501 -0.00000000000E+00 -0.00000000000E+00 -0.14074125866E+03  0.14074125866E+03  0.00000000000E+00 0.  1.
         25    2    1    2    0    0 -0.10943808151E+03  0.15135397360E+03  0.10536651650E+02  0.22504516373E+03  0.12509830407E+03 0.  0.
          5    1    3    3  502    0 -0.54359860898E+02  0.13640675945E+03 -0.36048291109E+02  0.15125723186E+03  0.41800000000E+01 0.  1.
         -5    1    3    3    0  502 -0.55078220610E+02  0.14947214149E+02  0.46584942759E+02  0.73787931860E+02  0.41800000000E+01 0.  1.
        -11    1    1    2    0    0  0.44136656239E+02 -0.60625699653E+02  0.44239116009E+02  0.87066751792E+02  0.00000000000E+00 0.  1.
         11    1    1    2    0    0  0.65301425268E+02 -0.90728273943E+02  0.24667991376E+03  0.27082628323E+03  0.00000000000E+00 0. -1.
</event>
<event>
 7    1  0.2686828E-009  0.6246119E+02  0.7561462E-02  0.1387784E+00
         -4   -1    0    0    0  501 -0.00000000000E+00  0.00000000000E+00  0.38864204260E+02  0.38864204260E+02  0.00000000000E+00 0.  1.
          4   -1    0    0  501    0  0.00000000000E+00 -0.00000000000E+00 -0.33153864128E+03  0.33153864128E+03  0.00000000000E+00 0. -1.
         25    2    1    2    0    0 -0.24689886516E+02  0.72195537794E+01 -0.20244673222E+03  0.23935406669E+03  0.12507588657E+03 0.  0.
          5    1    3    3  502    0  0.69883444221E+01  0.85954169904E+01 -0.20674529540E+03  0.20708405956E+03  0.41800000000E+01 0.  1.
         -5    1    3    3    0  502 -0.31678230938E+02 -0.13758632110E+01  0.42985631839E+01  0.32270007133E+02  0.41800000000E+01 0.  1.
        -11    1    1    2    0    0  0.49478425009E+02 -0.19810259522E+02 -0.22528250898E+02  0.57862621892E+02  0.00000000000E+00 0.  1.
         11    1    1    2    0    0 -0.24788538493E+02  0.12590705743E+02 -0.67699453901E+02  0.73186156958E+02  0.00000000000E+00 0. -1.
</event>
<event>
 7    1  0.2686828E-009  0.1910178E+03  0.7561462E-02  0.1157546E+00
         -2   -1    0    0    0  501 -0.00000000000E+00  0.00000000000E+00  0.26709260221E+02  0.26709260221E+02  0.00000000000E+00 0.  1.
          2   -1    0    0  501    0  0.00000000000E+00 -0.00000000000E+00 -0.16852010477E+04  0.16852010477E+04  0.00000000000E+00 0. -1.
         25    2    1    2    0    0 -0.19369058768E+02  0.18024356673E+03 -0.86721339271E+03  0.89474543733E+03  0.12508966923E+03 0.  0.
          5    1    3    3  502    0 -0.45346519198E+02  0.72173639965E+02 -0.58853984037E+03  0.59469484377E+03  0.41800000000E+01 0. -1.
         -5    1    3    3    0  502  0.25977460430E+02  0.10806992677E+03 -0.27867355234E+03  0.30005059356E+03  0.41800000000E+01 0. -1.
        -11    1    1    2    0    0 -0.60189273648E+01 -0.11926700273E+03 -0.65411606942E+03  0.66492757327E+03  0.00000000000E+00 0. -1.
         11    1    1    2    0    0  0.25387986133E+02 -0.60976564006E+02 -0.13716232533E+03  0.15223729729E+03  0.00000000000E+00 0.  1.
</event>
<event>
 7    1  0.2686828E-009  0.6169060E+02  0.7561462E-02  0.1390871E+00
         -1   -1    0    0    0  501 -0.00000000000E+00  0.00000000000E+00  0.52183637476E+02  0.52183637476E+02  0.00000000000E+00 0.  1.
          1   -1    0    0  501    0  0.00000000000E+00 -0.00000000000E+00 -0.24453745248E+03  0.24453745248E+03  0.00000000000E+00 0. -1.
         25    2    1    2    0    0 -0.46676849210E+01 -0.27731926105E+02 -0.92053428722E+02  0.15784035752E+03  0.12509555434E+03 0.  0.
          5    1    3    3  502    0  0.27291541467E+02 -0.38306155915E+02  0.11729555392E+02  0.48654338823E+02  0.41800000000E+01 0.  1.
         -5    1    3    3    0  502 -0.31959226388E+02  0.10574229810E+02 -0.10378298411E+03  0.10918601870E+03  0.41800000000E+01 0.  1.
        -11    1    1    2    0    0 -0.70616870267E+01  0.29540000001E+02 -0.11559678892E+03  0.11952027708E+03  0.00000000000E+00 0. -1.
         11    1    1    2    0    0  0.11729371948E+02 -0.18080738959E+01  0.15296402646E+02  0.19360455352E+02  0.00000000000E+00 0.  1.
</event>
<event>
 7    1  0.2753213E-009  0.1626753E+03  0.7561462E-02  0.1185709E+00
         -2   -1    0    0    0  501 -0.00000000000E+00  0.00000000000E+00  0.12555944337E+03  0.12555944337E+03  0.00000000000E+00 0. -1.
          2   -1    0    0  501    0  0.00000000000E+00 -0.00000000000E+00 -0.22053980488E+03  0.22053980488E+03  0.00000000000E+00 0.  1.
         25    2    1    2    0    0 -0.93341041319E+02  0.84685291692E+02 -0.54386831721E+02  0.18571377579E+03  0.12509008926E+03 0.  0.
          5    1    3    3  502    0  0.23846796054E+02 -0.10221783676E+02 -0.12790645902E+02  0.29227171710E+02  0.41800000000E+01 0. -1.
         -5    1    3    3    0  502 -0.11718783737E+03  0.94907075367E+02 -0.41596185819E+02  0.15648660408E+03  0.41800000000E+01 0. -1.
        -11    1    1    2    0    0  0.34659439834E+02  0.10656169045E+02 -0.31554671288E+02  0.48067951780E+02  0.00000000000E+00 0.  1.
         11    1    1    2    0    0  0.58681601485E+02 -0.95341460736E+02 -0.90388584926E+01  0.11231752068E+03  0.00000000000E+00 0. -1.
</event>
<event>
 7    1  0.2686828E-009  0.9085603E+02  0.7561462E-02  0.1300792E+00
         -2   -1    0    0    0  501 -0.00000000000E+00  0.00000000000E+00  0.18901668533E+02  0.18901668533E+02  0.00000000000E+00 0.  1.
          2   -1    0    0  501    0  0.00000000000E+00 -0.00000000000E+00 -0.11897225632E+04  0.11897225632E+04  0.00000000000E+00 0. -1.
         25    2    1    2    0    0 -0.16690951303E+02 -0.29420574945E+02 -0.10275312601E+04  0.10356713726E+04  0.12510213185E+03 0.  0.
          5    1    3    3  502    0  0.41275365765E+02  0.81225455313E+01 -0.16358338620E+03  0.16895747455E+03  0.41800000000E+01 0.  1.
         -5    1    3    3    0  502 -0.57966317068E+02 -0.37543120476E+02 -0.86394787392E+03  0.86671389804E+03  0.41800000000E+01 0.  1.
        -11    1    1    2    0    0 -0.39235654280E+01 -0.18062912884E+02 -0.10969611600E+03  0.11124253257E+03  0.00000000000E+00 0. -1.
         11    1    1    2    0    0  0.20614516731E+02  0.47483487828E+02 -0.33593518535E+02  0.61710326559E+02  0.00000000000E+00 0.  1.
</event>
<event>
 7    1  0.2686828E-009  0.2399960E+03  0.7561462E-02  0.1119795E+00
         -1   -1    0    0    0  501 -0.00000000000E+00  0.00000000000E+00  0.26852071987E+03  0.26852071987E+03  0.00000000000E+00 0.  1.
          1   -1    0    0  501    0  0.00000000000E+00 -0.00000000000E+00 -0.38722802269E+03  0.38722802269E+03  0.00000000000E+00 0. -1.
         25    2    1    2    0    0 -0.22045426826E+03  0.71754217474E+02  0.13839277124E+03  0.29757032182E+03  0.12508711036E+03 0.  0.
          5    1    3    3  502    0 -0.53900609162E+02 -0.46101448242E+01 -0.17450205390E+02  0.56995711869E+02  0.41800000000E+01 0.  1.
         -5    1    3    3    0  502 -0.16655365909E+03  0.76364362298E+02  0.15584297663E+03  0.24057460995E+03  0.41800000000E+01 0.  1.
        -11    1    1    2    0    0  0.15501898052E+03 -0.83348880981E+02 -0.22109524878E+03  0.28259693791E+03  0.00000000000E+00 0. -1.
         11    1    1    2    0    0  0.65435287738E+02  0.11594663508E+02 -0.36004825285E+02  0.75581482831E+02  0.00000000000E+00 0.  1.
</event>
<event>
 7    1  0.2686828E-009  0.1195902E+03  0.7561462E-02  0.1243775E+00
          1   -1    0    0  501    0  0.00000000000E+00  0.00000000000E+00  0.24976553963E+02  0.24976553963E+02  0.00000000000E+00 0.  1.
         -1   -1    0    0    0  501 -0.00000000000E+00 -0.00000000000E+00 -0.74774671586E+03  0.74774671586E+03  0.00000000000E+00 0. -1.
         25    2    1    2    0    0 -0.20664986343E+02 -0.76087552295E+02 -0.45936491303E+03  0.48257475736E+03  0.12508363539E+03 0.  0.
          5    1    3    3  502    0  0.23436777988E+01 -0.91339552557E+02 -0.18084804396E+03  0.20266201936E+03  0.41800000000E+01 0. -1.
         -5    1    3    3    0  502 -0.23008664142E+02  0.15252000262E+02 -0.27851686907E+03  0.27991273800E+03  0.41800000000E+01 0. -1.
        -11    1    1    2    0    0  0.43229927131E+02  0.30336179132E+01 -0.12081529282E+03  0.12835250062E+03  0.00000000000E+00 0.  1.
         11    1    1    2    0    0 -0.22564940788E+02  0.73053934382E+02 -0.14258995605E+03  0.16179601184E+03  0.00000000000E+00 0. -1.
</event>
<event>
 7    1  0.2686828E-009  0.1158684E+03  0.7561462E-02  0.1250073E+00
         -1   -1    0    0    0  501 -0.00000000000E+00  0.00000000000E+00  0.58696780823E+03  0.58696780823E+03  0.00000000000E+00 0.  1.
          1   -1    0    0  501    0  0.00000000000E+00 -0.00000000000E+00 -0.25506210089E+02  0.25506210089E+02  0.00000000000E+00 0. -1.
         25    2    1    2    0    0 -0.29705498309E+02 -0.44785614096E+02  0.27266340262E+03  0.30475779174E+03  0.12507522791E+03 0.  0.
          5    1    3    3  502    0 -0.55145183914E+02 -0.71166873419E+02  0.13562203305E+03  0.16283894936E+03  0.41800000000E+01 0.  1.
         -5    1    3    3    0  502  0.25439685605E+02  0.26381259322E+02  0.13704136958E+03  0.14191884238E+03  0.41800000000E+01 0.  1.
        -11    1    1    2    0    0 -0.21064601547E+02 -0.15317553571E+02  0.96317607586E+02  0.99776883179E+02  0.00000000000E+00 0. -1.
         11    1    1    2    0    0  0.50770099856E+02  0.60103167667E+02  0.19248058793E+03  0.20793934339E+03  0.00000000000E+00 0.  1.
</event>
<event>
 7    1  0.2686828E-009  0.1125802E+03  0.7561462E-02  0.1255865E+00
         -2   -1    0    0    0  501 -0.00000000000E+00  0.00000000000E+00  0.35585374606E+03  0.35585374606E+03  0.00000000000E+00 0.  1.
          2   -1    0    0  501    0  0.00000000000E+00 -0.00000000000E+00 -0.62866143863E+02  0.62866143863E+02  0.00000000000E+00 0. -1.
         25    2    1    2    0    0  0.73923781163E+02  0.64113928443E+02  0.17551709547E+03  0.23670834116E+03  0.12509702926E+03 0.  0.
          5    1    3    3  502    0  0.74543344666E+02  0.48217015121E+02  0.35461345400E+02  0.95689969165E+02  0.41800000000E+01 0. -1.
         -5    1    3    3    0  502 -0.61956350260E+00  0.15896913322E+02  0.14005575007E+03  0.14101837200E+03  0.41800000000E+01 0. -1.
        -11    1    1    2    0    0 -0.83947987692E+02 -0.38551006089E+02  0.41573936851E+02  0.10130072524E+03  0.00000000000E+00 0. -1.
         11    1    1    2    0    0  0.10024206528E+02 -0.25562922354E+02  0.75896569873E+02  0.80710823526E+02  0.00000000000E+00 0.  1.
</event>
<event>
 7    1  0.2686828E-009  0.1051909E+03  0.7561462E-02  0.1269744E+00
          3   -1    0    0  501    0  0.00000000000E+00  0.00000000000E+00  0.19459646943E+03  0.19459646943E+03  0.00000000000E+00 0. -1.
         -3   -1    0    0    0  501 -0.00000000000E+00 -0.00000000000E+00 -0.93360612847E+02  0.93360612847E+02  0.00000000000E+00 0.  1.
         25    2    1    2    0    0 -0.17914536867E+02  0.42598807917E+00  0.13748152928E+03  0.18673603591E+03  0.12509222244E+03 0.  0.
          5    1    3    3  502    0 -0.40374686326E+02 -0.48886692779E+02  0.10694384017E+03  0.12439646851E+03  0.41800000000E+01 0.  1.
         -5    1    3    3    0  502  0.22460149459E+02  0.49312680858E+02  0.30537689106E+02  0.62339567396E+02  0.41800000000E+01 0.  1.
        -11    1    1    2    0    0 -0.24410182958E+02 -0.31597422408E+02 -0.26056349443E+02  0.47677955925E+02  0.00000000000E+00 0.  1.
         11    1    1    2    0    0  0.42324719826E+02  0.31171434329E+02 -0.10189323251E+02  0.53543090448E+02  0.00000000000E+00 0. -1.
</event>
<event>
 7    1  0.2686828E-009  0.9755092E+02  0.7561462E-02  0.1285532E+00
          2   -1    0    0  501    0  0.00000000000E+00  0.00000000000E+00  0.94429473300E+02  0.94429473300E+02  0.00000000000E+00 0.  1.
         -2   -1    0    0    0  501 -0.00000000000E+00 -0.00000000000E+00 -0.14197261081E+03  0.14197261081E+03  0.00000000000E+00 0. -1.
         25    2    1    2    0    0 -0.36631904565E+01 -0.11475804586E+02 -0.68607202116E+02  0.14318522573E+03  0.12509975072E+03 0.  0.
          5    1    3    3  502    0  0.19300115990E+02 -0.63743148756E+02 -0.48575461978E+02  0.82539271846E+02  0.41800000000E+01 0.  1.
         -5    1    3    3    0  502 -0.22963306446E+02  0.52267344170E+02 -0.20031740138E+02  0.60645953884E+02  0.41800000000E+01 0.  1.
        -11    1    1    2    0    0  0.55727744877E+01  0.41082890656E+02 -0.17125637701E+02  0.44856963638E+02  0.00000000000E+00 0. -1.
         11    1    1    2    0    0 -0.19095840312E+01 -0.29607086070E+02  0.38189702309E+02  0.48359894739E+02  0.00000000000E+00 0.  1.
</event>
<event>
 7    1  0.2686828E-009  0.9033092E+02  0.7561462E-02  0.1302052E+00
         -4   -1    0    0    0  501 -0.00000000000E+00  0.00000000000E+00  0.42190809853E+03  0.42190809853E+03  0.00000000000E+00 0.  1.
          4   -1    0    0  501    0  0.00000000000E+00 -0.00000000000E+00 -0.40311543794E+02  0.40311543794E+02  0.00000000000E+00 0. -1.
         25    2    1    2    0    0  0.25548537222E+02 -0.26138142462E+01  0.91270091741E+02  0.15696406116E+03  0.12509167466E+03 0.  0.
          5    1    3    3  502    0 -0.19849489391E+02  0.35342693565E+02  0.88668942141E+02  0.97584639764E+02  0.41800000000E+01 0. -1.
         -5    1    3    3    0  502  0.45398026612E+02 -0.37956507811E+02  0.26011496001E+01  0.59379421391E+02  0.41800000000E+01 0. -1.
        -11    1    1    2    0    0 -0.21764979639E+02 -0.35850031960E+02  0.22868865759E+03  0.23250256180E+03  0.00000000000E+00 0.  1.
         11    1    1    2    0    0 -0.37835575826E+01  0.38463846207E+02  0.61637805400E+02  0.72753019371E+02  0.00000000000E+00 0. -1.
</event>
<event>
 7    1  0.2686828E-009  0.1683555E+03  0.7561462E-02  0.1179574E+00
          1   -1    0    0  501    0  0.00000000000E+00  0.00000000000E+00  0.42762809167E+03  0.42762809167E+03  0.00000000000E+00 0. -1.
         -1   -1    0    0    0  501 -0.00000000000E+00 -0.00000000000E+00 -0.84214145793E+02  0.84214145793E+02  0.00000000000E+00 0.  1.
         25    2    1    2    0    0 -0.23032420213E+01  0.14840475787E+03  0.25489154250E+03  0.32038663922E+03  0.12509445659E+03 0.  0.
          5    1    3    3  502    0  0.33865420734E+02  0.13945788996E+03  0.14406576363E+03  0.20339072359E+03  0.41800000000E+01 0. -1.
         -5    1    3    3    0  502 -0.36168662755E+02  0.89468679122E+01  0.11082577888E+03  0.11699591563E+03  0.41800000000E+01 0. -1.
        -11    1    1    2    0    0  0.24488456097E+02 -0.69798798927E+02  0.42415934426E+01  0.74091483509E+02  0.00000000000E+00 0.  1.
         11    1    1    2    0    0 -0.22185214076E+02 -0.78605958940E+02  0.84280809928E+02  0.11736411473E+03  0.00000000000E+00 0. -1.
</event>
<event>
 7    1  0.2686828E-009  0.1601290E+03  0.7561462E-02  0.1188551E+00
          1   -1    0    0  501    0  0.00000000000E+00  0.00000000000E+00  0.60833611773E+03  0.60833611773E+03  0.00000000000E+00 0. -1.
         -1   -1    0    0    0  501 -0.00000000000E+00 -0.00000000000E+00 -0.82655265253E+02  0.82655265253E+02  0.00000000000E+00 0.  1.
         25    2    1    2    0    0  0.12988927884E+03  0.16111948740E+02  0.49550421305E+03  0.52754642002E+03  0.12509988201E+03 0.  0.
          5    1    3    3  502    0 -0.20740500155E+02  0.30865148526E+01  0.22902751269E+02  0.31332145415E+02  0.41800000000E+01 0.  1.
         -5    1    3    3    0  502  0.15062977900E+03  0.13025433887E+02  0.47260146178E+03  0.49621427461E+03  0.41800000000E+01 0.  1.
        -11    1    1    2    0    0  0.21088132300E+01  0.12405453001E+02  0.25366211314E+02  0.28315844219E+02  0.00000000000E+00 0. -1.
         11    1    1    2    0    0 -0.13199809207E+03 -0.28517401741E+02  0.48104281119E+01  0.13512911874E+03  0.00000000000E+00 0.  1.
</event>
<event>
 7    1  0.2686828E-009  0.1201307E+03  0.7561462E-02  0.1242882E+00
          2   -1    0    0  501    0  0.00000000000E+00  0.00000000000E+00  0.12187332300E+03  0.12187332300E+03  0.00000000000E+00 0. -1.
         -2   -1    0    0    0  501 -0.00000000000E+00 -0.00000000000E+00 -0.14777745705E+03  0.14777745705E+03  0.00000000000E+00 0.  1.
         25    2    1    2    0    0  0.14509851668E+02 -0.55685462482E+02  0.39216073358E+02  0.14316159253E+03  0.12508371053E+03 0.  0.
          5    1    3    3  502    0 -0.26656943796E+02  0.29684196486E+02  0.24909681779E+02  0.47219792671E+02  0.41800000000E+01 0. -1.
         -5    1    3    3    0  502  0.41166795464E+02 -0.85369658968E+02  0.14306391580E+02  0.95941799864E+02  0.41800000000E+01 0. -1.
        -11    1    1    2    0    0 -0.49451252098E+02  0.15062383763E+02 -0.16852712615E+02  0.54372011745E+02  0.00000000000E+00 0. -1.
         11    1    1    2    0    0  0.34941400430E+02  0.40623078719E+02 -0.48267494794E+02  0.72117175779E+02  0.00000000000E+00 0.  1.
</event>
<event>
 7    1  0.2686828E-009  0.1481016E+03  0.7561462E-02  0.1202825E+00
          1   -1    0    0  501    0  0.00000000000E+00  0.00000000000E+00  0.10045996311E+04  0.10045996311E+04  0.00000000000E+00 0. -1.
         -1   -1    0    0    0  501 -0.00000000000E+00 -0.00000000000E+00 -0.29895386761E+02  0.29895386761E+02  0.00000000000E+00 0.  1.
         25    2    1    2    0    0  0.88642965295E+02 -0.10105378855E+03  0.55357068062E+03  0.58322922632E+03  0.12508552482E+03 0.  0.
          5    1    3    3  502    0  0.14862524466E+02 -0.11232150788E+02  0.33580198295E+03  0.33634431762E+03  0.41800000000E+01 0.  1.
         -5    1    3    3    0  502  0.73780440830E+02 -0.89821637758E+02  0.21776869767E+03  0.24688490870E+03  0.41800000000E+01 0.  1.
        -11    1    1    2    0    0  0.15889348599E+02  0.72273170632E+00  0.26910980750E+02  0.31260112363E+02  0.00000000000E+00 0. -1.
         11    1    1    2    0    0 -0.10453231389E+03  0.10033105684E+03  0.39422258295E+03  0.42000567916E+03  0.00000000000E+00 0.  1.
</event>
<event>
 7    1  0.2686828E-009  0.1202163E+03  0.7561462E-02  0.1242741E+00
          1   -1    0    0  501    0  0.00000000000E+00  0.00000000000E+00  0.38140337624E+03  0.38140337624E+03  0.00000000000E+00 0. -1.
         -1   -1    0    0    0  501 -0.00000000000E+00 -0.00000000000E+00 -0.53487830519E+02  0.53487830519E+02  0.00000000000E+00 0.  1.
         25    2    1    2    0    0 -0.42013898358E+02  0.78267022091E+02  0.18359081081E+03  0.23925005503E+03  0.12507641109E+03 0.  0.
          5    1    3    3  502    0  0.25685407535E+02  0.72476287935E+02  0.58033974276E+02  0.96425966645E+02  0.41800000000E+01 0. -1.
         -5    1    3    3    0  502 -0.67699305893E+02  0.57907341565E+01  0.12555683654E+03  0.14282408838E+03  0.41800000000E+01 0. -1.
        -11    1    1    2    0    0  0.22236331720E+02 -0.70801471514E+02  0.31107519876E+02  0.80467264212E+02  0.00000000000E+00 0.  1.
         11    1    1    2    0    0  0.19777566638E+02 -0.74655505774E+01  0.11321721503E+03  0.11517388753E+03  0.00000000000E+00 0. -1.
</event>
<event>
 7    1  0.2686828E-009  0.1088686E+03  0.7561462E-02  0.1262680E+00
          2   -1    0    0  501    0  0.00000000000E+00  0.00000000000E+00  0.17483244103E+04  0.17483244103E+04  0.00000000000E+00 0. -1.
         -2   -1    0    0    0  501 -0.00000000000E+00 -0.00000000000E+00 -0.27180086165E+02  0.27180086165E+02  0.00000000000E+00 0.  1.
         25    2    1    2    0    0  0.10810062179E+02  0.10779882826E+01  0.16598742499E+04  0.16646164700E+04  0.12508975694E+03 0.  0.
          5    1    3    3  502    0  0.46905955775E+02 -0.46139081041E+02  0.89589499202E+03  0.89831747874E+03  0.41800000000E+01 0.  1.
         -5    1    3    3    0  502 -0.36095893595E+02  0.47217069323E+02  0.76397925790E+03  0.76629899130E+03  0.41800000000E+01 0.  1.
        -11    1    1    2    0    0 -0.36772307079E+02  0.32985969509E+02  0.36395825194E+02  0.61359048590E+02  0.00000000000E+00 0. -1.
         11    1    1    2    0    0  0.25962244899E+02 -0.34063957791E+02  0.24874249023E+02  0.49528977832E+02  0.00000000000E+00 0.  1.
</event>
<event>
 7    1  0.2686828E-009  0.1027092E+03  0.7561462E-02  0.1274700E+00
          2   -1    0    0  501    0  0.00000000000E+00  0.00000000000E+00  0.41476107694E+02  0.41476107694E+02  0.00000000000E+00 0. -1.
         -2   -1    0    0    0  501 -0.00000000000E+00 -0.00000000000E+00 -0.31718091029E+03  0.31718091029E+03  0.00000000000E+00 0.  1.
         25    2    1    2    0    0 -0.29269896507E+02  0.39076505991E+01 -0.19198670345E+03  0.23103650715E+03  0.12508787615E+03 0.  0.
          5    1    3    3  502    0  0.10485282874E+00  0.60412562263E+02 -0.64533180305E+02  0.88496849851E+02  0.41800000000E+01 0. -1.
         -5    1    3    3    0  502 -0.29374749336E+02 -0.56504911664E+02 -0.12745352314E+03  0.14253965730E+03  0.41800000000E+01 0. -1.
        -11    1    1    2    0    0 -0.18886958865E+02 -0.22537589781E+02 -0.17164324359E+00  0.29405605412E+02  0.00000000000E+00 0. -1.
         11    1    1    2    0    0  0.48156855371E+02  0.18629939182E+02 -0.83546455904E+02  0.98214905423E+02  0.00000000000E+00 0.  1.
</event>
<event>
 7    1  0.2686828E-009  0.4656840E+03  0.7561462E-02  0.1023145E+00
          2   -1    0    0  501    0  0.00000000000E+00  0.00000000000E+00  0.23185959548E+04  0.23185959548E+04  0.00000000000E+00 0. -1.
         -2   -1    0    0    0  501 -0.00000000000E+00 -0.00000000000E+00 -0.96243121555E+02  0.96243121555E+02  0.00000000000E+00 0.  1.
         25    2    1    2    0    0 -0.18337895000E+03 -0.41534129593E+03  0.93828524306E+03  0.10498397650E+04  0.12509237954E+03 0.  0.
          5    1    3    3  502    0 -0.19242555806E+03 -0.32234847297E+03  0.71031591026E+03  0.80343157654E+03  0.41800000000E+01 0.  1.
         -5    1    3    3    0  502  0.90466080593E+01 -0.92992822961E+02  0.22796933280E+03  0.24640818846E+03  0.41800000000E+01 0.  1.
        -11    1    1    2    0    0  0.70852566579E+02  0.26683647596E+03  0.80101209487E+03  0.84725566816E+03  0.00000000000E+00 0. -1.
         11    1    1    2    0    0  0.11252638342E+03  0.14850481997E+03  0.48305549529E+03  0.51774364318E+03  0.00000000000E+00 0.  1.
</event>
<event>
 7    1  0.2686828E-009  0.9989240E+02  0.7561462E-02  0.1280522E+00
         -2   -1    0    0    0  501 -0.00000000000E+00  0.00000000000E+00  0.32562061245E+02  0.32562061245E+02  0.00000000000E+00 0.  1.
          2   -1    0    0  501    0  0.00000000000E+00 -0.00000000000E+00 -0.51924234198E+03  0.51924234198E+03  0.00000000000E+00 0. -1.
         25    2    1    2    0    0 -0.16149946975E+02 -0.62917335731E+02 -0.33922504532E+03  0.36734312472E+03  0.12509167833E+03 0.  0.
          5    1    3    3  502    0  0.84556310978E-01 -0.95626045269E+02 -0.17930507479E+03  0.20325385587E+03  0.41800000000E+01 0. -1.
         -5    1    3    3    0  502 -0.16234503286E+02  0.32708709538E+02 -0.15991997053E+03  0.16408926885E+03  0.41800000000E+01 0. -1.
        -11    1    1    2    0    0 -0.91594674596E-01  0.35108328424E+02 -0.16557679976E+01  0.35147470492E+02  0.00000000000E+00 0.  1.
         11    1    1    2    0    0  0.16241541650E+02  0.27809007307E+02 -0.14579946742E+03  0.14931380801E+03  0.00000000000E+00 0. -1.
</event>
<event>
 7    1  0.2686828E-009  0.8203596E+02  0.7561462E-02  0.1323371E+00
         -2   -1    0    0    0  501 -0.00000000000E+00  0.00000000000E+00  0.25707239601E+02  0.25707239601E+02  0.00000000000E+00 0.  1.
          2   -1    0    0  501    0  0.00000000000E+00 -0.00000000000E+00 -0.53667073367E+03  0.53667073367E+03  0.00000000000E+00 0. -1.
         25    2    1    2    0    0  0.29653265683E+02  0.19441112414E+02 -0.37152404772E+03  0.39361900719E+03  0.12509409167E+03 0.  0.
          5    1    3    3  502    0  0.54229646855E+02  0.31705079241E+01 -0.35580963608E+03  0.35995676996E+03  0.41800000000E+01 0. -1.
         -5    1    3    3    0  502 -0.24576381172E+02  0.16270604489E+02 -0.15714411649E+02  0.33662237232E+02  0.41800000000E+01 0. -1.
        -11    1    1    2    0    0 -0.33109922565E+02 -0.43973700457E+02 -0.13180035000E+03  0.14283306887E+03  0.00000000000E+00 0. -1.
         11    1    1    2    0    0  0.34566568820E+01  0.24532588043E+02 -0.76390963496E+01  0.25925897206E+02  0.00000000000E+00 0.  1.
</event>
<event>
 7    1  0.2686828E-009  0.1026000E+03  0.7561462E-02  0.1274922E+00
         -3   -1    0    0    0  501 -0.00000000000E+00  0.00000000000E+00  0.75272160051E+02  0.75272160051E+02  0.00000000000E+00 0.  1.
          3   -1    0    0  501    0  0.00000000000E+00 -0.00000000000E+00 -0.20492117285E+03  0.20492117285E+03  0.00000000000E+00 0. -1.
         25    2    1    2    0    0 -0.54693317722E+02 -0.18737811851E+02 -0.93344321743E+02  0.16644380869E+03  0.12509162424E+03 0.  0.
          5    1    3    3  502    0  0.71658759488E+01  0.46693521154E+02 -0.36902292193E+02  0.60090650395E+02  0.41800000000E+01 0. -1.
         -5    1    3    3    0  502 -0.61859193671E+02 -0.65431333004E+02 -0.56442029550E+02  0.10635315830E+03  0.41800000000E+01 0. -1.
        -11    1    1    2    0    0 -0.12086651778E+01  0.11155728532E+02 -0.53585916012E+02  0.54748164768E+02  0.00000000000E+00 0. -1.
         11    1    1    2    0    0  0.55901982900E+02  0.75820833189E+01  0.17281224957E+02  0.59001359439E+02  0.00000000000E+00 0.  1.
</event>
<event>
 7    1  0.2686828E-009  0.1332903E+03  0.7561462E-02  0.1222654E+00
         -1   -1    0    0    0  501 -0.00000000000E+00  0.00000000000E+00  0.85587634686E+03  0.85587634686E+03  0.00000000000E+00 0.  1.
          1   -1    0    0  501    0  0.00000000000E+00 -0.00000000000E+00 -0.26803285229E+02  0.26803285229E+02  0.00000000000E+00 0. -1.
         25    2    1    2    0    0  0.86939039662E+02  0.38478963855E+02  0.58354295519E+03  0.60432548692E+03  0.12509151173E+03 0.  0.
          5    1    3    3  502    0  0.96691318967E+02  0.58296744263E+02  0.31152864601E+03  0.33138390311E+03  0.41800000000E+01 0. -1.
         -5    1    3    3    0  502 -0.97522793052E+01 -0.19817780409E+02  0.27201430919E+03  0.27294158381E+03  0.41800000000E+01 0. -1.
        -11    1    1    2    0    0 -0.43594064361E+02 -0.66492120146E+02  0.15096505413E+03  0.17062265986E+03  0.00000000000E+00 0. -1.
         11    1    1    2    0    0 -0.43344975301E+02  0.28013156291E+02  0.94565052308E+02  0.10773148531E+03  0.00000000000E+00 0.  1.
</event>
<event>
 7    1  0.3706886E-009  0.1877365E+03  0.7561462E-02  0.1160519E+00
         -2   -1    0    0    0  501 -0.00000000000E+00  0.00000000000E+00  0.31693278749E+02  0.31693278749E+02  0.00000000000E+00 0. -1.
          2   -1    0    0  501    0  0.00000000000E+00 -0.00000000000E+00 -0.13377744776E+04  0.13377744776E+04  0.00000000000E+00 0.  1.
         25    2    1    2    0    0 -0.11102156720E+03  0.13033146982E+03 -0.79469089786E+03  0.82249134064E+03  0.12508517846E+03 0.  0.
          5    1    3    3  502    0 -0.24263395876E+02  0.10732529847E+03 -0.29702125534E+03  0.31677520515E+03  0.41800000000E+01 0.  1.
         -5    1    3    3    0  502 -0.86758171328E+02  0.23006171358E+02 -0.49766964251E+03  0.50571613549E+03  0.41800000000E+01 0.  1.
        -11    1    1    2    0    0  0.80226728359E+02 -0.64903412597E+02 -0.40772844471E+03  0.42058443330E+03  0.00000000000E+00 0.  1.
         11    1    1    2    0    0  0.30794838845E+02 -0.65428057226E+02 -0.10366185632E+03  0.12639198245E+03  0.00000000000E+00 0. -1.
</event>
<event>
 7    1  0.2686828E-009  0.1155967E+03  0.7561462E-02  0.1250543E+00
          2   -1    0    0  501    0  0.00000000000E+00  0.00000000000E+00  0.20319626427E+03  0.20319626427E+03  0.00000000000E+00 0.  1.
         -2   -1    0    0    0  501 -0.00000000000E+00 -0.00000000000E+00 -0.10756101916E+03  0.10756101916E+03  0.00000000000E+00 0. -1.
         25    2    1    2    0    0  0.34209834036E+02 -0.88864394410E+02  0.80606480383E+02  0.17667344085E+03  0.12509559019E+03 0.  0.
          5    1    3    3  502    0  0.45463915086E+02 -0.23296143875E+02  0.95487436859E+02  0.10837435533E+03  0.41800000000E+01 0. -1.
         -5    1    3    3    0  502 -0.11254081050E+02 -0.65568250535E+02 -0.14880956476E+02  0.68299085529E+02  0.41800000000E+01 0. -1.
        -11    1    1    2    0    0 -0.49846269246E+02  0.82516600830E+02  0.39646090177E+02  0.10423748096E+03  0.00000000000E+00 0.  1.
         11    1    1    2    0    0  0.15636435210E+02  0.63477935794E+01 -0.24617325452E+02  0.29846361617E+02  0.00000000000E+00 0. -1.
</event>
<event>
 7    1  0.2686828E-009  0.1323592E+03  0.7561462E-02  0.1223997E+00
         -4   -1    0    0    0  501 -0.00000000000E+00  0.00000000000E+00  0.59674019111E+02  0.59674019111E+02  0.00000000000E+00 0.  1.
          4   -1    0    0  501    0  0.00000000000E+00 -0.00000000000E+00 -0.41633460641E+03  0.41633460641E+03  0.00000000000E+00 0. -1.
         25    2    1    2    0    0  0.74957894046E+02 -0.74085512867E+02 -0.27604897682E+03  0.32087039572E+03  0.12508966444E+03 0.  0.
          5    1    3    3  502    0  0.10436111141E+02 -0.66621291266E+02 -0.45861698579E+02  0.81658292060E+02  0.41800000000E+01 0. -1.
         -5    1    3    3    0  502  0.64521782905E+02 -0.74642216011E+01 -0.23018727824E+03  0.23921210366E+03  0.41800000000E+01 0. -1.
        -11    1    1    2    0    0 -0.58934018909E+02  0.27957365047E+01 -0.42613789501E+02  0.72780284301E+02  0.00000000000E+00 0. -1.
         11    1    1    2    0    0 -0.16023875137E+02  0.71289776362E+02 -0.37997820981E+02  0.82357945503E+02  0.00000000000E+00 0.  1.
</event>
<event>
 7    1  0.2686828E-009  0.1572546E+03  0.7561462E-02  0.1191832E+00
         -2   -1    0    0    0  501 -0.00000000000E+00  0.00000000000E+00  0.36529211126E+02  0.36529211126E+02  0.00000000000E+00 0. -1.
          2   -1    0    0  501    0  0.00000000000E+00 -0.00000000000E+00 -0.75863310491E+03  0.75863310491E+03  0.00000000000E+00 0.  1.
         25    2    1    2    0    0 -0.17163995168E+02 -0.12441935930E+03 -0.34759313185E+03  0.39018374551E+03  0.12509032838E+03 0.  0.
          5    1    3    3  502    0 -0.58686034598E+02 -0.46899058687E+02 -0.86486249162E+02  0.11463383469E+03  0.41800000000E+01 0.  1.
         -5    1    3    3    0  502  0.41522039431E+02 -0.77520300615E+02 -0.26110688269E+03  0.27554991082E+03  0.41800000000E+01 0.  1.
        -11    1    1    2    0    0  0.29378533119E+02  0.33762348519E+01 -0.46218266855E+02  0.54869165850E+02  0.00000000000E+00 0. -1.
         11    1    1    2    0    0 -0.12214537951E+02  0.12104312445E+03 -0.32829249508E+03  0.35010940467E+03  0.00000000000E+00 0.  1.
</event>
<event>
 7    1  0.2686828E-009  0.1128088E+03  0.7561462E-02  0.1255455E+00
         -2   -1    0    0    0  501 -0.00000000000E+00  0.00000000000E+00  0.15833864371E+03  0.15833864371E+03  0.00000000000E+00 0. -1.
          2   -1    0    0  501    0  0.00000000000E+00 -0.00000000000E+00 -0.11532637767E+03  0.11532637767E+03  0.00000000000E+00 0.  1.
         25    2    1    2    0    0 -0.31339666330E+01 -0.75580429045E+02  0.28088594799E+01  0.14620948301E+03  0.12508836968E+03 0.  0.
          5    1    3    3  502    0  0.34426932447E+02 -0.43794518980E+02  0.52135333552E+02  0.76411641620E+02  0.41800000000E+01 0. -1.
         -5    1    3    3    0  502 -0.37560899080E+02 -0.31785910065E+02 -0.49326474072E+02  0.69797841390E+02  0.41800000000E+01 0. -1.
        -11    1    1    2    0    0  0.12214095822E+02 -0.20500523836E+02  0.31169712475E+01  0.24065974405E+02  0.00000000000E+00 0.  1.
         11    1    1    2    0    0 -0.90801291890E+01  0.96080952881E+02  0.37086435311E+02  0.10338956396E+03  0.00000000000E+00 0. -1.
</event>
<event>
 7    1  0.2686828E-009  0.1498616E+03  0.7561462E-02  0.1200643E+00
          2   -1    0    0  501    0  0.00000000000E+00  0.00000000000E+00  0.49398984803E+03  0.49398984803E+03  0.00000000000E+00 0. -1.
         -2   -1    0    0    0  501 -0.00000000000E+00 -0.00000000000E+00 -0.72274391066E+02  0.72274391066E+02  0.00000000000E+00 0.  1.
         25    2    1    2    0    0  0.50032999509E+01 -0.12009535211E+03  0.36789009167E+03  0.40674051856E+03  0.12508718271E+03 0.  0.
          5    1    3    3  502    0  0.29194731571E+02 -0.13869007357E+03  0.28522010629E+03  0.31852040797E+03  0.41800000000E+01 0.  1.
         -5    1    3    3    0  502 -0.24191431621E+02  0.18594721459E+02  0.82669985378E+02  0.88220110589E+02  0.41800000000E+01 0.  1.
        -11    1    1    2    0    0 -0.22550959075E+02  0.84381810169E+02  0.74393016548E+02  0.11473080037E+03  0.00000000000E+00 0. -1.
         11    1    1    2    0    0  0.17547659124E+02  0.35713541943E+02 -0.20567651256E+02  0.44792920166E+02  0.00000000000E+00 0.  1.
</event>
<event>
 7    1  0.2686828E-009  0.1106873E+03  0.7561462E-02  0.1259302E+00
          2   -1    0    0  501    0  0.00000000000E+00  0.00000000000E+00  0.11939408763E+03  0.11939408763E+03  0.00000000000E+00 0. -1.
         -2   -1    0    0    0  501 -0.00000000000E+00 -0.00000000000E+00 -0.13738049786E+03  0.13738049786E+03  0.00000000000E+00 0.  1.
         25    2    1    2    0    0 -0.50995961921E+02  0.34303074712E+02 -0.38773251446E+02  0.14466141931E+03  0.12508505963E+03 0.  0.
          5    1    3    3  502    0 -0.75298153296E+02 -0.18730457134E+02 -0.67898971464E+01  0.78001391125E+02  0.41800000000E+01 0.  1.
         -5    1    3    3    0  502  0.24302191375E+02  0.53033531846E+02 -0.31983354300E+02  0.66660028188E+02  0.41800000000E+01 0.  1.
        -11    1    1    2    0    0  0.19423933565E+02 -0.47229329365E+02 -0.23495397282E+02  0.56213276376E+02  0.00000000000E+00 0.  1.
         11    1    1    2    0    0  0.31572028356E+02  0.12926254653E+02  0.44282238496E+02  0.55899889804E+02  0.00000000000E+00 0. -1.
</event>
<event>
 7    1  0.2686828E-009  0.7862175E+02  0.7561462E-02  0.1333009E+00
         -2   -1    0    0    0  501 -0.00000000000E+00  0.00000000000E+00  0.45539916756E+02  0.45539916756E+02  0.00000000000E+00 0.  1.
          2   -1    0    0  501    0  0.00000000000E+00 -0.00000000000E+00 -0.46903132030E+03  0.46903132030E+03  0.00000000000E+00 0. -1.
         25    2    1    2    0    0  0.56359246115E+02 -0.38315389481E+02 -0.36708507818E+03  0.39375517298E+03  0.12508896005E+03 0.  0.
          5    1    3    3  502    0 -0.65168280325E+00 -0.81311597225E+01  0.85882339754E+01  0.12560677200E+02  0.41800000000E+01 0.  1.
         -5    1    3    3    0  502  0.57010928919E+02 -0.30184229758E+02 -0.37567331216E+03  0.38119449578E+03  0.41800000000E+01 0.  1.
        -11    1    1    2    0    0 -0.41908774350E+02 -0.60962040334E+00  0.94482454041E+01  0.42964943218E+02  0.00000000000E+00 0.  1.
         11    1    1    2    0    0 -0.14450471765E+02  0.38925009884E+02 -0.65854570769E+02  0.77851120864E+02  0.00000000000E+00 0. -1.
</event>
<event>
 7    1  0.2686828E-009  0.1699942E+03  0.7561462E-02  0.1177854E+00
         -2   -1    0    0    0  501 -0.00000000000E+00  0.00000000000E+00  0.50032865014E+02  0.50032865014E+02  0.00000000000E+00 0.  1.
          2   -1    0    0  501    0  0.00000000000E+00 -0.00000000000E+00 -0.84256563802E+03  0.84256563802E+03  0.00000000000E+00 0. -1.
         25    2    1    2    0    0  0.14008412135E+02 -0.16120498487E+03 -0.54479972181E+03  0.58192517448E+03  0.12508752556E+03 0.  0.
          5    1    3    3  502    0 -0.21823985458E+02 -0.10132229599E+03 -0.46227093657E+03  0.47376617144E+03  0.41800000000E+01 0.  1.
         -5    1    3    3    0  502  0.35832397593E+02 -0.59882688878E+02 -0.82528785239E+02  0.10815900303E+03  0.41800000000E+01 0.  1.
        -11    1    1    2    0    0 -0.25719324689E+02  0.73604457472E+02 -0.46238505636E+02  0.90648216892E+02  0.00000000000E+00 0.  1.
         11    1    1    2    0    0  0.11710912554E+02  0.87600527393E+02 -0.20149454556E+03  0.22002511167E+03  0.00000000000E+00 0. -1.
</event>
<event>
 7    1  0.2686828E-009  0.1119715E+03  0.7561462E-02  0.1256962E+00
          1   -1    0    0  501    0  0.00000000000E+00  0.00000000000E+00  0.42559805512E+03  0.42559805512E+03  0.00000000000E+00 0. -1.
         -1   -1    0    0    0  501 -0.00000000000E+00 -0.00000000000E+00 -0.36805016210E+02  0.36805016210E+02  0.00000000000E+00 0.  1.
         25    2    1    2    0    0  0.51492842560E+02 -0.19560660084E+02  0.26659115265E+03  0.29958677934E+03  0.12508902200E+03 0.  0.
          5    1    3    3  502    0  0.78111261079E+02  0.15302373126E+02  0.10341700342E+03  0.13056829909E+03  0.41800000000E+01 0.  1.
         -5    1    3    3    0  502 -0.26618418519E+02 -0.34863033210E+02  0.16317414923E+03  0.16901848025E+03  0.41800000000E+01 0.  1.
        -11    1    1    2    0    0 -0.18137807657E+02  0.51128670664E+02  0.35892419008E+02  0.65049110468E+02  0.00000000000E+00 0.  1.
         11    1    1    2    0    0 -0.33355034903E+02 -0.31568010580E+02  0.86309467246E+02  0.97767181516E+02  0.00000000000E+00 0. -1.
</event>
<event>
 7    1  0.2686828E-009  0.1024100E+03  0.7561462E-02  0.1275308E+00
          1   -1    0    0  501    0  0.00000000000E+00  0.00000000000E+00  0.22283647615E+02  0.22283647615E+02  0.00000000000E+00 0. -1.
         -1   -1    0    0    0  501 -0.00000000000E+00 -0.00000000000E+00 -0.56190842096E+03  0.56190842096E+03  0.00000000000E+00 0.  1.
         25    2    1    2    0    0 -0.41999757420E+01 -0.26310104444E+02 -0.31038700730E+03  0.33570527769E+03  0.12509227706E+03 0.  0.
          5    1    3    3  502    0  0.31686650009E+02  0.36141510741E+02 -0.72245968945E+02  0.86874651172E+02  0.41800000000E+01 0.  1.
         -5    1    3    3    0  502 -0.35886625752E+02 -0.62451615185E+02 -0.23814103835E+03  0.24883062652E+03  0.41800000000E+01 0.  1.
        -11    1    1    2    0    0 -0.37772661867E+02  0.17048227659E+02 -0.54081927040E+02  0.68134212281E+02  0.00000000000E+00 0. -1.
         11    1    1    2    0    0  0.41972637609E+02  0.92618767849E+01 -0.17515583901E+03  0.18035257860E+03  0.00000000000E+00 0.  1.
</event>
<event>
 7    1  0.2686828E-009  0.1171591E+03  0.7561462E-02  0.1247859E+00
          2   -1    0    0  501    0  0.00000000000E+00  0.00000000000E+00  0.21235748984E+02  0.21235748984E+02  0.00000000000E+00 0. -1.
         -2   -1    0    0    0  501 -0.00000000000E+00 -0.00000000000E+00 -0.87753855113E+03  0.87753855113E+03  0.00000000000E+00 0.  1.
         25    2    1    2    0    0 -0.49727362066E+02 -0.37781724695E+02 -0.62995859763E+03  0.64528660784E+03  0.12508677899E+03 0.  0.
          5    1    3    3  502    0  0.33440162096E+02  0.19313999923E+02 -0.17631538242E+03  0.18054324001E+03  0.41800000000E+01 0.  1.
         -5    1    3    3    0  502 -0.83167524162E+02 -0.57095724618E+02 -0.45364321520E+03  0.46474336783E+03  0.41800000000E+01 0.  1.
        -11    1    1    2    0    0  0.52058343856E+02 -0.44176241755E+01 -0.19214230954E+03  0.19911869245E+03  0.00000000000E+00 0.  1.
         11    1    1    2    0    0 -0.23309817900E+01  0.42199348871E+02 -0.34201894979E+02  0.54368999820E+02  0.00000000000E+00 0. -1.
</event>
<event>
 7    1  0.2686828E-009  0.8350316E+02  0.7561462E-02  0.1319394E+00
          2   -1    0    0  501    0  0.00000000000E+00  0.00000000000E+00  0.11553293773E+03  0.11553293773E+03  0.00000000000E+00 0. -1.
         -2   -1    0    0    0  501 -0.00000000000E+00 -0.00000000000E+00 -0.11101823397E+03  0.11101823397E+03  0.00000000000E+00 0.  1.
         25    2    1    2    0    0  0.32292093646E+02 -0.49786922411E+01 -0.18648604810E+01  0.12930087668E+03  0.12509065639E+03 0.  0.
          5    1    3    3  502    0  0.52855703816E+02 -0.53397414211E+02 -0.99864784208E+01  0.75909231464E+02  0.41800000000E+01 0. -1.
         -5    1    3    3    0  502 -0.20563610170E+02  0.48418721970E+02  0.81216179398E+01  0.53391645211E+02  0.41800000000E+01 0. -1.
        -11    1    1    2    0    0 -0.14020058254E+02  0.12918161392E+02 -0.41348174389E+02  0.45531444657E+02  0.00000000000E+00 0.  1.
         11    1    1    2    0    0 -0.18272035391E+02 -0.79394691507E+01  0.47727738634E+02  0.51718850363E+02  0.00000000000E+00 0. -1.
</event>
<event>
 7    1  0.2686828E-009  0.9565380E+02  0.7561462E-02  0.1289710E+00
         -2   -1    0    0    0  501 -0.00000000000E+00  0.00000000000E+00  0.40439560739E+03  0.40439560739E+03  0.00000000000E+00 0.  1.
          2   -1    0    0  501    0  0.00000000000E+00 -0.00000000000E+00 -0.54008919109E+02  0.54008919109E+02  0.00000000000E+00 0. -1.
         25    2    1    2    0    0  0.23037225698E+02  0.70165534208E+02  0.29115847778E+03  0.32538392318E+03  0.12509005685E+03 0.  0.
          5    1    3    3  502    0 -0.88925550380E+01  0.64409414822E+01  0.23299948669E+03  0.23329551316E+03  0.41800000000E+01 0.  1.
         -5    1    3    3    0  502  0.31929780736E+02  0.63724592726E+02  0.58158991096E+02  0.92088410027E+02  0.41800000000E+01 0.  1.
        -11    1    1    2    0    0 -0.58885970645E+01 -0.85170195980E+02  0.20047478908E+02  0.87695719788E+02  0.00000000000E+00 0. -1.
         11    1    1    2    0    0 -0.17148628634E+02  0.15004661772E+02  0.39180731586E+02  0.45324883525E+02  0.00000000000E+00 0.  1.
</event>
<event>
 7    1  0.2686828E-009  0.1109039E+03  0.7561462E-02  0.1258905E+00
          1   -1    0    0  501    0  0.00000000000E+00  0.00000000000E+00  0.34419708389E+03  0.34419708389E+03  0.00000000000E+00 0. -1.
         -1   -1    0    0    0  501 -0.00000000000E+00 -0.00000000000E+00 -0.51991355899E+02  0.51991355899E+02  0.00000000000E+00 0.  1.
         25    2    1    2    0    0 -0.40154674994E+02  0.42503054178E+02  0.24648077049E+03  0.28252310421E+03  0.12509047386E+03 0.  0.
          5    1    3    3  502    0 -0.61142010077E+02  0.68983399867E+02  0.22251158905E+03  0.24088572916E+03  0.41800000000E+01 0.  1.
         -5    1    3    3    0  502  0.20987335083E+02 -0.26480345688E+02  0.23969181449E+02  0.41637375049E+02  0.41800000000E+01 0.  1.
        -11    1    1    2    0    0 -0.18668878411E+02  0.56097705846E+01  0.30444412670E+02  0.36150502209E+02  0.00000000000E+00 0. -1.
         11    1    1    2    0    0  0.58823553405E+02 -0.48112824763E+02  0.15280544822E+02  0.77514833367E+02  0.00000000000E+00 0.  1.
</event>
<event>
 7    1  0.2686828E-009  0.1657714E+03  0.7561462E-02  0.1182331E+00
          2   -1    0    0  501    0  0.00000000000E+00  0.00000000000E+00  0.33171512054E+03  0.33171512054E+03  0.00000000000E+00 0. -1.
         -2   -1    0    0    0  501 -0.00000000000E+00 -0.00000000000E+00 -0.13867608024E+03  0.13867608024E+03  0.00000000000E+00 0.  1.
         25    2    1    2    0    0 -0.31646981675E+02 -0.13855352141E+03  0.22875773525E+03  0.29694445403E+03  0.12508915859E+03 0.  0.
          5    1    3    3  502    0 -0.10515481403E+02  0.17288149260E+02  0.17307592154E+01  0.20734593833E+02  0.41800000000E+01 0. -1.
         -5    1    3    3    0  502 -0.21131500272E+02 -0.15584167067E+03  0.22702697604E+03  0.27620986020E+03  0.41800000000E+01 0. -1.
        -11    1    1    2    0    0  0.10104650139E+02  0.12997886964E+03  0.58291299180E+00  0.13037235250E+03  0.00000000000E+00 0. -1.
         11    1    1    2    0    0  0.21542331536E+02  0.85746517706E+01 -0.36301607941E+02  0.43074394251E+02  0.00000000000E+00 0.  1.
</event>
<event>
 7    1  0.2686828E-009  0.1088465E+03  0.7561462E-02  0.1262721E+00
         -2   -1    0    0    0  501 -0.00000000000E+00  0.00000000000E+00  0.20211138540E+02  0.20211138540E+02  0.00000000000E+00 0.  1.
          2   -1    0    0  501    0  0.00000000000E+00 -0.00000000000E+00 -0.77767293468E+03  0.77767293468E+03  0.00000000000E+00 0. -1.
         25    2    1    2    0    0  0.44679009341E+01 -0.58904611873E+02 -0.34020132124E+03  0.36725298473E+03  0.12509236740E+03 0.  0.
          5    1    3    3  502    0 -0.37951159404E+02  0.53878900067E+01 -0.33752729004E+02  0.51244892176E+02  0.41800000000E+01 0. -1.
         -5    1    3    3    0  502  0.42419060338E+02 -0.64292501880E+02 -0.30644859223E+03  0.31600809255E+03  0.41800000000E+01 0. -1.
        -11    1    1    2    0    0  0.36386317740E+02  0.89660682164E+01 -0.21763185731E+03  0.22083473417E+03  0.00000000000E+00 0. -1.
         11    1    1    2    0    0 -0.40854218674E+02  0.49938543657E+02 -0.19962861759E+03  0.20979635432E+03  0.00000000000E+00 0.  1.
</event>
<event>
 7    1  0.2686828E-009  0.2537585E+03  0.7561462E-02  0.1110952E+00
         -2   -1    0    0    0  501 -0.00000000000E+00  0.00000000000E+00  0.82411533783E+02  0.82411533783E+02  0.00000000000E+00 0.  1.
          2   -1    0    0  501    0  0.00000000000E+00 -0.00000000000E+00 -0.91378296708E+03  0.91378296708E+03  0.00000000000E+00 0. -1.
         25    2    1    2    0    0 -0.12500758638E+03  0.20232989892E+03 -0.27017030486E+03  0.38105621454E+03  0.12509020890E+03 0.  0.
          5    1    3    3  502    0 -0.99167098737E+02  0.56729000615E+02 -0.77382209779E+02  0.13804988871E+03  0.41800000000E+01 0.  1.
         -5    1    3    3    0  502 -0.25840487647E+02  0.14560089831E+03 -0.19278809508E+03  0.24300632583E+03  0.41800000000E+01 0.  1.
        -11    1    1    2    0    0  0.48472258594E+02 -0.30803607066E+02 -0.19914926168E+03  0.20726516950E+03  0.00000000000E+00 0. -1.
         11    1    1    2    0    0  0.76535327790E+02 -0.17152629186E+03 -0.36205186676E+03  0.40787311682E+03  0.00000000000E+00 0.  1.
</event>
<event>
 7    1  0.2686828E-009  0.2283916E+03  0.7561462E-02  0.1127777E+00
          2   -1    0    0  501    0  0.00000000000E+00  0.00000000000E+00  0.10164787150E+03  0.10164787150E+03  0.00000000000E+00 0. -1.
         -2   -1    0    0    0  501 -0.00000000000E+00 -0.00000000000E+00 -0.53172400820E+03  0.53172400820E+03  0.00000000000E+00 0.  1.
         25    2    1    2    0    0 -0.15152082079E+03  0.13787807352E+03 -0.23533117042E+03  0.33614772310E+03  0.12508241156E+03 0.  0.
          5    1    3    3  502    0 -0.15023999209E+03  0.15880493098E+03 -0.21435006910E+03  0.30619354312E+03  0.41800000000E+01 0. -1.
         -5    1    3    3    0  502 -0.12808286953E+01 -0.20926857458E+02 -0.20981101327E+02  0.29954179977E+02  0.41800000000E+01 0. -1.
        -11    1    1    2    0    0  0.64292979748E+02 -0.14927633285E+02 -0.97815732987E+02  0.11800143686E+03  0.00000000000E+00 0.  1.
         11    1    1    2    0    0  0.87227841042E+02 -0.12295044024E+03 -0.96929233280E+02  0.17922271974E+03  0.00000000000E+00 0. -1.
</event>
<event>
 7    1  0.2686828E-009  0.1229330E+03  0.7561462E-02  0.1238336E+00
         -1   -1    0    0    0  501 -0.00000000000E+00  0.00000000000E+00  0.22505574275E+02  0.22505574275E+02  0.00000000000E+00 0.  1.
          1   -1    0    0  501    0  0.00000000000E+00 -0.00000000000E+00 -0.81423490430E+03  0.81423490430E+03  0.00000000000E+00 0. -1.
         25    2    1    2    0    0  0.36437995396E+02 -0.64696210712E+02 -0.51842626220E+03  0.53844872640E+03  0.12509162418E+03 0.  0.
          5    1    3    3  502    0  0.31031672577E+02  0.25144300750E+02 -0.66954940920E+02  0.78074561009E+02  0.41800000000E+01 0.  1.
         -5    1    3    3    0  502  0.54063228189E+01 -0.89840511462E+02 -0.45147132128E+03  0.46037416539E+03  0.41800000000E+01 0.  1.
        -11    1    1    2    0    0 -0.66123954224E+02  0.44565192419E+02 -0.22035114217E+03  0.23433535703E+03  0.00000000000E+00 0. -1.
         11    1    1    2    0    0  0.29685958828E+02  0.20131018293E+02 -0.52951925653E+02  0.63956395141E+02  0.00000000000E+00 0.  1.
</event>
<event>
 7    1  0.2686828E-009  0.1078422E+03  0.7561462E-02  0.1264619E+00
         -2   -1    0    0    0  501 -0.00000000000E+00  0.00000000000E+00  0.16640979216E+03  0.16640979216E+03  0.00000000000E+00 0.  1.
          2   -1    0    0  501    0  0.00000000000E+00 -0.00000000000E+00 -0.17202120333E+03  0.17202120333E+03  0.00000000000E+00 0. -1.
         25    2    1    2    0    0  0.25067383373E+02 -0.59037682088E+02  0.10915186580E+03  0.17798045965E+03  0.12509633326E+03 0.  0.
          5    1    3    3  502    0  0.72648584718E+02 -0.45798267880E+02  0.91002390433E+02  0.12519666795E+03  0.41800000000E+01 0. -1.
         -5    1    3    3    0  502 -0.47581201345E+02 -0.13239414208E+02  0.18149475366E+02  0.52783791698E+02  0.41800000000E+01 0. -1.
        -11    1    1    2    0    0  0.32331457938E+01  0.50463534738E+02 -0.99381851694E+01  0.51534348685E+02  0.00000000000E+00 0.  1.
         11    1    1    2    0    0 -0.28300529167E+02  0.85741473501E+01 -0.10482509180E+03  0.10891618716E+03  0.00000000000E+00 0. -1.
</event>
<event>
 7    1  0.2686828E-009  0.2059243E+03  0.7561462E-02  0.1144835E+00
          2   -1    0    0  501    0  0.00000000000E+00  0.00000000000E+00  0.28413196710E+04  0.28413196710E+04  0.00000000000E+00 0. -1.
         -2   -1    0    0    0  501 -0.00000000000E+00 -0.00000000000E+00 -0.19571941533E+02  0.19571941533E+02  0.00000000000E+00 0.  1.
         25    2    1    2    0    0  0.12864798695E+03  0.14760414810E+03  0.19072648618E+04  0.19213641787E+04  0.12507503649E+03 0.  0.
          5    1    3    3  502    0  0.99658193382E+02  0.12123283060E+03  0.91894876177E+03  0.93226254558E+03  0.41800000000E+01 0.  1.
         -5    1    3    3    0  502  0.28989793572E+02  0.26371317499E+02  0.98831610007E+03  0.98910163309E+03  0.41800000000E+01 0.  1.
        -11    1    1    2    0    0 -0.10394873917E+03 -0.51101196844E+02  0.48274220507E+03  0.49644406458E+03  0.00000000000E+00 0.  1.
         11    1    1    2    0    0 -0.24699247782E+02 -0.96502951256E+02  0.43174066256E+03  0.44308336929E+03  0.00000000000E+00 0. -1.
</event>
<event>
 7    1  0.2686828E-009  0.1217248E+03  0.7561462E-02  0.1240279E+00
         -1   -1    0    0    0  501 -0.00000000000E+00  0.00000000000E+00  0.47150196004E+02  0.47150196004E+02  0.00000000000E+00 0.  1.
          1   -1    0    0  501    0  0.00000000000E+00 -0.00000000000E+00 -0.43371398880E+03  0.43371398880E+03  0.00000000000E+00 0. -1.
         25    2    1    2    0    0 -0.57058558240E+02 -0.29548331387E+02 -0.32193860511E+03  0.35131424579E+03  0.12509376834E+03 0.  0.
          5    1    3    3  502    0 -0.91373010298E+02  0.46834437613E+01 -0.22248800533E+03  0.24060205022E+03  0.41800000000E+01 0.  1.
         -5    1    3    3    0  502  0.34314452058E+02 -0.34231775148E+02 -0.99450599783E+02  0.11071219557E+03  0.41800000000E+01 0.  1.
        -11    1    1    2    0    0 -0.16680822630E+02  0.24048706021E+02  0.29028239166E+01  0.29411162704E+02  0.00000000000E+00 0.  1.
         11    1    1    2    0    0  0.73739380870E+02  0.54996253659E+01 -0.67528011602E+02  0.10013877631E+03  0.00000000000E+00 0. -1.
</event>
<event>
 7    1  0.3480544E-009  0.1389151E+03  0.7561462E-02  0.1214796E+00
         -2   -1    0    0    0  501 -0.00000000000E+00  0.00000000000E+00  0.42338890645E+02  0.42338890645E+02  0.00000000000E+00 0. -1.
          2   -1    0    0  501    0  0.00000000000E+00 -0.00000000000E+00 -0.68169670823E+03  0.68169670823E+03  0.00000000000E+00 0.  1.
         25    2    1    2    0    0 -0.11928559498E+03 -0.48645640372E+02 -0.29711899841E+03  0.34716519589E+03  0.12509405470E+03 0.  0.
          5    1    3    3  502    0 -0.45353553010E+02 -0.24139422309E+02 -0.13881300293E+02  0.53383699552E+02  0.41800000000E+01 0. -1.
         -5    1    3    3    0  502 -0.73932041967E+02 -0.24506218064E+02 -0.28323769812E+03  0.29378149634E+03  0.41800000000E+01 0. -1.
        -11    1    1    2    0    0  0.46510921388E+02  0.58617438510E+02 -0.10804115150E+03  0.13142359120E+03  0.00000000000E+00 0. -1.
         11    1    1    2    0    0  0.72774673589E+02 -0.99717981375E+01 -0.23419766767E+03  0.24544681179E+03  0.00000000000E+00 0.  1.
</event>
<event>
 7    1  0.2686828E-009  0.9852962E+02  0.7561462E-02  0.1283419E+00
          2   -1    0    0  501    0  0.00000000000E+00  0.00000000000E+00  0.11267311870E+03  0.11267311870E+03  0.00000000000E+00 0. -1.
         -2   -1    0    0    0  501 -0.00000000000E+00 -0.00000000000E+00 -0.12503777052E+03  0.12503777052E+03  0.00000000000E+00 0.  1.
         25    2    1    2    0    0 -0.13691558755E+02  0.40149913684E+02 -0.29967475786E+02  0.13544365033E+03  0.12508980158E+03 0.  0.
          5    1    3    3  502    0 -0.19614731839E+02  0.72887781490E+02 -0.55094452171E+02  0.93542703915E+02  0.41800000000E+01 0. -1.
         -5    1    3    3    0  502  0.59231730844E+01 -0.32737867806E+02  0.25126976385E+02  0.41900946411E+02  0.41800000000E+01 0. -1.
        -11    1    1    2    0    0 -0.15367367341E+02  0.17550209087E+02 -0.17108165522E+02  0.28928448723E+02  0.00000000000E+00 0.  1.
         11    1    1    2    0    0  0.29058926096E+02 -0.57700122771E+02  0.34710989486E+02  0.73338790178E+02  0.00000000000E+00 0. -1.
</event>
<event>
 7    1  0.2686828E-009  0.1181213E+03  0.7561462E-02  0.1246229E+00
          4   -1    0    0  501    0  0.00000000000E+00  0.00000000000E+00  0.43621053890E+02  0.43621053890E+02  0.00000000000E+00 0.  1.
         -4   -1    0    0    0  501 -0.00000000000E+00 -0.00000000000E+00 -0.49484076988E+03  0.49484076988E+03  0.00000000000E+00 0. -1.
         25    2    1    2    0    0  0.35771534973E+02  0.85331116561E+02 -0.18057067996E+03  0.23835933039E+03  0.12509355601E+03 0.  0.
          5    1    3    3  502    0 -0.14881111270E+02  0.40065308233E-01 -0.12222563054E+03  0.12319913246E+03  0.41800000000E+01 0.  1.
         -5    1    3    3    0  502  0.50652646243E+02  0.85291051253E+02 -0.58345049416E+02  0.11516019793E+03  0.41800000000E+01 0.  1.
        -11    1    1    2    0    0 -0.57680073974E+02 -0.80555057835E+02 -0.16805049862E+03  0.19508223487E+03  0.00000000000E+00 0.  1.
         11    1    1    2    0    0  0.21908539001E+02 -0.47760587259E+01 -0.10259853742E+03  0.10502025852E+03  0.00000000000E+00 0. -1.
</event>
<event>
 7    1  0.2686828E-009  0.1044461E+03  0.7561462E-02  0.1271215E+00
          1   -1    0    0  501    0  0.00000000000E+00  0.00000000000E+00  0.11712655156E+03  0.11712655156E+03  0.00000000000E+00 0. -1.
         -1   -1    0    0    0  501 -0.00000000000E+00 -0.00000000000E+00 -0.13891418887E+03  0.13891418887E+03  0.00000000000E+00 0.  1.
         25    2    1    2    0    0 -0.34822481599E+02  0.17638734099E+02  0.42029932771E+02  0.13761736996E+03  0.12509314570E+03 0.  0.
          5    1    3    3  502    0  0.14826386033E+02  0.60777287631E+02  0.33718729737E+02  0.71190768711E+02  0.41800000000E+01 0.  1.
         -5    1    3    3    0  502 -0.49648867631E+02 -0.43138553532E+02  0.83112030342E+01  0.66426601251E+02  0.41800000000E+01 0.  1.
        -11    1    1    2    0    0  0.53450855782E+02 -0.26500588142E+02 -0.74296922024E+02  0.95285401704E+02  0.00000000000E+00 0.  1.
         11    1    1    2    0    0 -0.18628374183E+02  0.88618540429E+01  0.10479351943E+02  0.23137968773E+02  0.00000000000E+00 0. -1.
</event>
<event>
 7    1  0.2686828E-009  0.1202792E+03  0.7561462E-02  0.1242637E+00
          2   -1    0    0  501    0  0.00000000000E+00  0.00000000000E+00  0.91381362484E+02  0.91381362484E+02  0.00000000000E+00 0. -1.
         -2   -1    0    0    0  501 -0.00000000000E+00 -0.00000000000E+00 -0.22277598069E+03  0.22277598069E+03  0.00000000000E+00 0.  1.
         25    2    1    2    0    0  0.93273226077E+01 -0.89412687852E+02 -0.43251082512E+02  0.16000309063E+03  0.12509478476E+03 0.  0.
          5    1    3    3  502    0  0.16050528524E+02  0.10733259720E+02  0.29827003170E+02  0.35776316862E+02  0.41800000000E+01 0. -1.
         -5    1    3    3    0  502 -0.67232059167E+01 -0.10014594757E+03 -0.73078085681E+02  0.12422677376E+03  0.41800000000E+01 0. -1.
        -11    1    1    2    0    0 -0.42501692825E+02  0.29098254804E+02 -0.61797311023E+02  0.80448803442E+02  0.00000000000E+00 0. -1.
         11    1    1    2    0    0  0.33174370217E+02  0.60314433049E+02 -0.26346224671E+02  0.73705449105E+02  0.00000000000E+00 0.  1.
</event>
<event>
 7    1  0.2686828E-009  0.9142159E+02  0.7561462E-02  0.1299445E+00
          1   -1    0    0  501    0  0.00000000000E+00  0.00000000000E+00  0.46186056949E+03  0.46186056949E+03  0.00000000000E+00 0. -1.
         -1   -1    0    0    0  501 -0.00000000000E+00 -0.00000000000E+00 -0.53228570744E+02  0.53228570744E+02  0.00000000000E+00 0.  1.
         25    2    1    2    0    0  0.94178679545E+01  0.57758137644E+02  0.38145828094E+03  0.40568823814E+03  0.12509127775E+03 0.  0.
          5    1    3    3  502    0 -0.11800615235E+01  0.86161365856E+02  0.15689567744E+03  0.17904999165E+03  0.41800000000E+01 0.  1.
         -5    1    3    3    0  502  0.10597929478E+02 -0.28403228211E+02  0.22456260349E+03  0.22663824648E+03  0.41800000000E+01 0.  1.
        -11    1    1    2    0    0 -0.19103979834E+02 -0.50109702307E+02  0.56308523563E+02  0.77759849130E+02  0.00000000000E+00 0. -1.
         11    1    1    2    0    0  0.96861118799E+01 -0.76484353371E+01 -0.29134805753E+02  0.31641052965E+02  0.00000000000E+00 0.  1.
</event>
<event>
 7    1  0.2686828E-009  0.1054679E+03  0.7561462E-02  0.1269201E+00
         -1   -1    0    0    0  501 -0.00000000000E+00  0.00000000000E+00  0.10438726133E+02  0.10438726133E+02  0.00000000000E+00 0.  1.
          1   -1    0    0  501    0  0.00000000000E+00 -0.00000000000E+00 -0.12088383262E+04  0.12088383262E+04  0.00000000000E+00 0. -1.
         25    2    1    2    0    0 -0.68518882423E+01  0.27953670173E+02 -0.79876845719E+03  0.80901605370E+03  0.12509025093E+03 0.  0.
          5    1    3    3  502    0  0.25318143445E+02 -0.38944216671E+02 -0.45003993603E+03  0.45245008213E+03  0.41800000000E+01 0.  1.
         -5    1    3    3    0  502 -0.32170031687E+02  0.66897886844E+02 -0.34872852117E+03  0.35656597156E+03  0.41800000000E+01 0.  1.
        -11    1    1    2    0    0 -0.39267705509E+02 -0.10608752754E+02 -0.13175349369E+03  0.13788938114E+03  0.00000000000E+00 0.  1.
         11    1    1    2    0    0  0.46119593751E+02 -0.17344917419E+02 -0.26787764915E+03  0.27237161747E+03  0.00000000000E+00 0. -1.
</event>
<event>
 7    1  0.2686828E-009  0.1482874E+03  0.7561462E-02  0.1202593E+00
         -2   -1    0    0    0  501 -0.00000000000E+00  0.00000000000E+00  0.34568673207E+03  0.34568673207E+03  0.00000000000E+00 0.  1.
          2   -1    0    0  501    0  0.00000000000E+00 -0.00000000000E+00 -0.69345703425E+02  0.69345703425E+02  0.00000000000E+00 0. -1.
         25    2    1    2    0    0  0.10033864490E+03 -0.32070525828E+02  0.18783372722E+03  0.24904578472E+03  0.12508369804E+03 0.  0.
          5    1    3    3  502    0 -0.41499537287E+01 -0.55588139141E+02  0.73284126582E+02  0.92169945959E+02  0.41800000000E+01 0. -1.
         -5    1    3    3    0  502  0.10448859863E+03  0.23517613314E+02  0.11454960064E+03  0.15687583876E+03  0.41800000000E+01 0. -1.
        -11    1    1    2    0    0 -0.30427414186E+02  0.52479332887E+02  0.14956008142E+02  0.62478717127E+02  0.00000000000E+00 0.  1.
         11    1    1    2    0    0 -0.69911230713E+02 -0.20408807060E+02  0.73551293281E+02  0.10350793365E+03  0.00000000000E+00 0. -1.
</event>
<event>
 7    1  0.2686828E-009  0.5166278E+02  0.7561462E-02  0.1436574E+00
          2   -1    0    0  501    0  0.00000000000E+00  0.00000000000E+00  0.16532687364E+03  0.16532687364E+03  0.00000000000E+00 0.  1.
         -2   -1    0    0    0  501 -0.00000000000E+00 -0.00000000000E+00 -0.87677836183E+02  0.87677836183E+02  0.00000000000E+00 0. -1.
         25    2    1    2    0    0  0.10214147939E+02 -0.66695174151E+01  0.11350162677E+03  0.16935618750E+03  0.12510031049E+03 0.  0.
          5    1    3    3  502    0  0.18409083413E+02 -0.60490966292E+01 -0.24235933552E+02  0.31310362459E+02  0.41800000000E+01 0. -1.
         -5    1    3    3    0  502 -0.81949354744E+01 -0.62042078588E+00  0.13773756032E+03  0.13804582504E+03  0.41800000000E+01 0. -1.
        -11    1    1    2    0    0 -0.23246535965E+02  0.35619392212E+02 -0.12814802556E+02  0.44422535953E+02  0.00000000000E+00 0.  1.
         11    1    1    2    0    0  0.13032388026E+02 -0.28949874797E+02 -0.23037786751E+02  0.39225986372E+02  0.00000000000E+00 0. -1.
</event>
<event>
 7    1  0.2686828E-009  0.9826370E+02  0.7561462E-02  0.1283990E+00
         -1   -1    0    0    0  501 -0.00000000000E+00  0.00000000000E+00  0.52406610636E+02  0.52406610636E+02  0.00000000000E+00 0.  1.
          1   -1    0    0  501    0  0.00000000000E+00 -0.00000000000E+00 -0.23779233829E+03  0.23779233829E+03  0.00000000000E+00 0. -1.
         25    2    1    2    0    0  0.67877508247E+01  0.41203350558E+02 -0.11214205728E+03  0.17311045149E+03  0.12509035832E+03 0.  0.
          5    1    3    3  502    0 -0.50151821150E+02  0.43263489251E+02 -0.29459201713E+02  0.72610272223E+02  0.41800000000E+01 0. -1.
         -5    1    3    3    0  502  0.56939571974E+02 -0.20601386921E+01 -0.82682855564E+02  0.10050017926E+03  0.41800000000E+01 0. -1.
        -11    1    1    2    0    0 -0.26922941417E+02 -0.45098241665E+02 -0.13944167905E+02  0.54342763956E+02  0.00000000000E+00 0.  1.
         11    1    1    2    0    0  0.20135190592E+02  0.38948911065E+01 -0.59299502475E+02  0.62745733486E+02  0.00000000000E+00 0. -1.
</event>
<event>
 7    1  0.2686828E-009  0.9046813E+02  0.7561462E-02  0.1301722E+00
         -2   -1    0    0    0  501 -0.00000000000E+00  0.00000000000E+00  0.21784252584E+02  0.21784252584E+02  0.00000000000E+00 0.  1.
          2   -1    0    0  501    0  0.00000000000E+00 -0.00000000000E+00 -0.61676501331E+03  0.61676501331E+03  0.00000000000E+00 0. -1.
         25    2    1    2    0    0 -0.25749949447E+01 -0.19351516234E+02 -0.43714178629E+03  0.45510697910E+03  0.12509320257E+03 0.  0.
          5    1    3    3  502    0  0.45995355392E+02 -0.40752355246E+02 -0.32726630294E+03  0.33301206077E+03  0.41800000000E+01 0. -1.
         -5    1    3    3    0  502 -0.48570350337E+02  0.21400839012E+02 -0.10987548335E+03  0.12209491833E+03  0.41800000000E+01 0. -1.
        -11    1    1    2    0    0  0.32757708166E+02  0.13091959623E+02 -0.16798147129E+02  0.39072299626E+02  0.00000000000E+00 0.  1.
         11    1    1    2    0    0 -0.30182713222E+02  0.62595566109E+01 -0.14104082731E+03  0.14436998716E+03  0.00000000000E+00 0. -1.
</event>
<event>
 7    1  0.2686828E-009  0.4095498E+03  0.7561462E-02  0.1040522E+00
          2   -1    0    0  501    0  0.00000000000E+00  0.00000000000E+00  0.20905860588E+04  0.20905860588E+04  0.00000000000E+00 0. -1.
         -2   -1    0    0    0  501 -0.00000000000E+00 -0.00000000000E+00 -0.83144843848E+02  0.83144843848E+02  0.00000000000E+00 0.  1.
         25    2    1    2    0    0  0.38352683952E+03  0.11073362932E+03  0.11451733498E+04  0.12191913383E+04  0.12510293720E+03 0.  0.
          5    1    3    3  502    0  0.36253719850E+03  0.13339073968E+03  0.10371971055E+04  0.11068069469E+04  0.41800000000E+01 0. -1.
         -5    1    3    3    0  502  0.20989641019E+02 -0.22657110350E+02  0.10797624433E+03  0.11238439135E+03  0.41800000000E+01 0. -1.
        -11    1    1    2    0    0 -0.91474693709E+02 -0.46348737355E+02  0.30963479410E+03  0.32617408045E+03  0.00000000000E+00 0. -1.
         11    1    1    2    0    0 -0.29205214581E+03 -0.64384891969E+02  0.55263307106E+03  0.62836548395E+03  0.00000000000E+00 0.  1.
</event>
<event>
 7    1  0.2686828E-009  0.1069441E+03  0.7561462E-02  0.1266336E+00
         -1   -1    0    0    0  501 -0.00000000000E+00  0.00000000000E+00  0.83932786224E+02  0.83932786224E+02  0.00000000000E+00 0.  1.
          1   -1    0    0  501    0  0.00000000000E+00 -0.00000000000E+00 -0.16427709478E+03  0.16427709478E+03  0.00000000000E+00 0. -1.
         25    2    1    2    0    0  0.14560378830E+02  0.21693406374E+02 -0.11437623859E+02  0.12829716696E+03  0.12508691098E+03 0.  0.
          5    1    3    3  502    0 -0.52727585362E+02 -0.90913365411E+01 -0.53025902265E+01  0.53929959404E+02  0.41800000000E+01 0. -1.
         -5    1    3    3    0  502  0.67287964192E+02  0.30784742915E+02 -0.61350336322E+01  0.74367207553E+02  0.41800000000E+01 0. -1.
        -11    1    1    2    0    0  0.33474260146E+02 -0.17802744458E+02 -0.26811378016E+01  0.38008581958E+02  0.00000000000E+00 0.  1.
         11    1    1    2    0    0 -0.48034638976E+02 -0.38906619162E+01 -0.66225546898E+02  0.81904132092E+02  0.00000000000E+00 0. -1.
</event>
<event>
 7    1  0.2686828E-009  0.1036351E+03  0.7561462E-02  0.1272832E+00
         -1   -1    0    0    0  501 -0.00000000000E+00  0.00000000000E+00  0.59572450928E+03  0.59572450928E+03  0.00000000000E+00 0.  1.
          1   -1    0    0  501    0  0.00000000000E+00 -0.00000000000E+00 -0.27442125887E+02  0.27442125887E+02  0.00000000000E+00 0. -1.
         25    2    1    2    0    0  0.29782414252E+02  0.46839854859E+01  0.16582391553E+03  0.20988802110E+03  0.12508588457E+03 0.  0.
          5    1    3    3  502    0  0.46264688178E+02 -0.46298801135E+02  0.12907332153E+03  0.14478050659E+03  0.41800000000E+01 0.  1.
         -5    1    3    3    0  502 -0.16482273926E+02  0.50982786621E+02  0.36750594004E+02  0.65107514505E+02  0.41800000000E+01 0.  1.
        -11    1    1    2    0    0  0.17734658355E+02 -0.29434484080E+02  0.91537621918E+02  0.97775473338E+02  0.00000000000E+00 0. -1.
         11    1    1    2    0    0 -0.47517072608E+02  0.24750498594E+02  0.31092084595E+03  0.31550314073E+03  0.00000000000E+00 0.  1.
</event>
<event>
 7    1  0.2686828E-009  0.4131591E+03  0.7561462E-02  0.1039316E+00
         -2   -1    0    0    0  501 -0.00000000000E+00  0.00000000000E+00  0.22122190704E+03  0.22122190704E+03  0.00000000000E+00 0.  1.
          2   -1    0    0  501    0  0.00000000000E+00 -0.00000000000E+00 -0.88910859625E+03  0.88910859625E+03  0.00000000000E+00 0. -1.
         25    2    1    2    0    0  0.11727451162E+03  0.39390007813E+03 -0.17962269789E+03  0.46564242475E+03  0.12509185227E+03 0.  0.
          5    1    3    3  502    0  0.37889295203E+02  0.19445454449E+03 -0.15080289108E+03  0.24901235495E+03  0.41800000000E+01 0. -1.
         -5    1    3    3    0  502  0.79385216417E+02  0.19944553364E+03 -0.28819806813E+02  0.21663006980E+03  0.41800000000E+01 0. -1.
        -11    1    1    2    0    0 -0.35686848337E+02 -0.19893001600E+03 -0.17823265411E+03  0.26946907318E+03  0.00000000000E+00 0.  1.
         11    1    1    2    0    0 -0.81587663283E+02 -0.19497006213E+03 -0.31003133722E+03  0.37521900536E+03  0.00000000000E+00 0. -1.
</event>
<event>
 7    1  0.2686828E-009  0.1580168E+03  0.7561462E-02  0.1190954E+00
         -1   -1    0    0    0  501 -0.00000000000E+00  0.00000000000E+00  0.35390247729E+02  0.35390247729E+02  0.00000000000E+00 0.  1.
          1   -1    0    0  501    0  0.00000000000E+00 -0.00000000000E+00 -0.94852786203E+03  0.94852786203E+03  0.00000000000E+00 0. -1.
         25    2    1    2    0    0  0.10909308759E+03  0.30609398493E+02 -0.70091538918E+03  0.72094938746E+03  0.12508956570E+03 0.  0.
          5    1    3    3  502    0  0.93627951905E+02 -0.35870214612E+02 -0.42482927371E+03  0.43652061793E+03  0.41800000000E+01 0. -1.
         -5    1    3    3    0  502  0.15465135684E+02  0.66479613105E+02 -0.27608611547E+03  0.28442876953E+03  0.41800000000E+01 0. -1.
        -11    1    1    2    0    0  0.37172149144E+00  0.24667334570E+02 -0.10317107265E+02  0.26740573554E+02  0.00000000000E+00 0.  1.
         11    1    1    2    0    0 -0.10946480908E+03 -0.55276733063E+02 -0.20190511786E+03  0.23622814875E+03  0.00000000000E+00 0. -1.
</event>
<event>
 7    1  0.2686828E-009  0.8546162E+02  0.7561462E-02  0.1314230E+00
          1   -1    0    0  501    0  0.00000000000E+00  0.00000000000E+00  0.11204956231E+03  0.11204956231E+03  0.00000000000E+00 0. -1.
         -1   -1    0    0    0  501 -0.00000000000E+00 -0.00000000000E+00 -0.12145600406E+03  0.12145600406E+03  0.00000000000E+00 0.  1.
         25    2    1    2    0    0  0.23915937190E+02  0.42235024777E+01  0.32570009389E+02  0.13152252246E+03  0.12509020096E+03 0.  0.
          5    1    3    3  502    0  0.63804272840E+02 -0.20822303566E+02  0.47048727157E+02  0.82070754143E+02  0.41800000000E+01 0.  1.
         -5    1    3    3    0  502 -0.39888335651E+02  0.25045806044E+02 -0.14478717767E+02  0.49451768316E+02  0.41800000000E+01 0.  1.
        -11    1    1    2    0    0  0.15757987888E+02 -0.55215546720E+01 -0.57110047414E+02  0.59500918177E+02  0.00000000000E+00 0.  1.
         11    1    1    2    0    0 -0.39673925078E+02  0.12980521943E+01  0.15133596271E+02  0.42482125732E+02  0.00000000000E+00 0. -1.
</event>
<event>
 7    1  0.2686828E-009  0.9518617E+02  0.7561462E-02  0.1290757E+00
         -2   -1    0    0    0  501 -0.00000000000E+00  0.00000000000E+00  0.56956883897E+02  0.56956883897E+02  0.00000000000E+00 0.  1.
          2   -1    0    0  501    0  0.00000000000E+00 -0.00000000000E+00 -0.25940964842E+03  0.25940964842E+03  0.00000000000E+00 0. -1.
         25    2    1    2    0    0 -0.44759380953E+01  0.43822830165E+02 -0.16224180527E+03  0.20954877271E+03  0.12509120793E+03 0.  0.
          5    1    3    3  502    0 -0.22149139498E+02  0.63101832746E+02 -0.16935110182E+03  0.18212548906E+03  0.41800000000E+01 0. -1.
         -5    1    3    3    0  502  0.17673201403E+02 -0.19279002581E+02  0.71092965584E+01  0.27423283645E+02  0.41800000000E+01 0. -1.
        -11    1    1    2    0    0  0.45357850172E+02 -0.20083020053E+02 -0.31459330318E+02  0.58739694677E+02  0.00000000000E+00 0. -1.
         11    1    1    2    0    0 -0.40881912077E+02 -0.23739810112E+02 -0.87516289442E+01  0.48078064940E+02  0.00000000000E+00 0.  1.
</event>
<event>
 7    1  0.2686828E-009  0.9635268E+02  0.7561462E-02  0.1288158E+00
          3   -1    0    0  501    0  0.00000000000E+00  0.00000000000E+00  0.37515194722E+03  0.37515194722E+03  0.00000000000E+00 0. -1.
         -3   -1    0    0    0  501 -0.00000000000E+00 -0.00000000000E+00 -0.36994097387E+02  0.36994097387E+02  0.00000000000E+00 0.  1.
         25    2    1    2    0    0  0.35016065156E+02  0.67661233154E+01  0.13832577053E+03  0.18987996746E+03  0.12509387678E+03 0.  0.
          5    1    3    3  502    0 -0.87305381921E+01  0.51082811728E+02  0.19252936631E+02  0.55442077163E+02  0.41800000000E+01 0. -1.
         -5    1    3    3    0  502  0.43746603348E+02 -0.44316688413E+02  0.11907283390E+03  0.13443789030E+03  0.41800000000E+01 0. -1.
        -11    1    1    2    0    0  0.20682501109E+02  0.52139224810E+01  0.90696736649E+01  0.23177787214E+02  0.00000000000E+00 0.  1.
         11    1    1    2    0    0 -0.55698566265E+02 -0.11980045796E+02  0.19076240564E+03  0.19908828993E+03  0.00000000000E+00 0. -1.
</event>
<event>
 7    1  0.2686828E-009  0.1025559E+03  0.7561462E-02  0.1275011E+00
          2   -1    0    0  501    0  0.00000000000E+00  0.00000000000E+00  0.48485936085E+03  0.48485936085E+03  0.00000000000E+00 0. -1.
         -2   -1    0    0    0  501 -0.00000000000E+00 -0.00000000000E+00 -0.33366526934E+02  0.33366526934E+02  0.00000000000E+00 0.  1.
         25    2    1    2    0    0 -0.35582145779E+02 -0.12331974628E+02  0.35606706328E+03  0.37927514478E+03  0.12509082780E+03 0.  0.
          5    1    3    3  502    0 -0.82018666156E+02  0.66557878643E+00  0.23135723359E+03  0.24550182592E+03  0.41800000000E+01 0.  1.
         -5    1    3    3    0  502  0.46436520376E+02 -0.12997553415E+02  0.12470982969E+03  0.13377331887E+03  0.41800000000E+01 0.  1.
        -11    1    1    2    0    0  0.93831761916E+00  0.33808254226E+02 -0.14467137667E+01  0.33852200438E+02  0.00000000000E+00 0.  1.
         11    1    1    2    0    0  0.34643828160E+02 -0.21476279598E+02  0.96872484401E+02  0.10509854256E+03  0.00000000000E+00 0. -1.
</event>
<event>
 7    1  0.2686828E-009  0.1476445E+03  0.7561462E-02  0.1203398E+00
          2   -1    0    0  501    0  0.00000000000E+00  0.00000000000E+00  0.85971199063E+03  0.85971199063E+03  0.00000000000E+00 0. -1.
         -2   -1    0    0    0  501 -0.00000000000E+00 -0.00000000000E+00 -0.33384038947E+02  0.33384038947E+02  0.00000000000E+00 0.  1.
         25    2    1    2    0    0 -0.43864675255E+02  0.99829721601E+02  0.62663509298E+03  0.64823596396E+03  0.12509293412E+03 0.  0.
          5    1    3    3  502    0  0.17378771531E+02 -0.15489480233E+02  0.21671934142E+03  0.21800617203E+03  0.41800000000E+01 0.  1.
         -5    1    3    3    0  502 -0.61243446786E+02  0.11531920183E+03  0.40991575156E+03  0.43022979193E+03  0.41800000000E+01 0.  1.
        -11    1    1    2    0    0 -0.10234666236E+02 -0.84011640457E+02  0.10772276423E+03  0.13699232847E+03  0.00000000000E+00 0. -1.
         11    1    1    2    0    0  0.54099341491E+02 -0.15818081144E+02  0.91970094472E+02  0.10786773715E+03  0.00000000000E+00 0.  1.
</event>
<event>
 7    1  0.2686828E-009  0.2024101E+03  0.7561462E-02  0.1147721E+00
         -2   -1    0    0    0  501 -0.00000000000E+00  0.00000000000E+00  0.12820198123E+03  0.12820198123E+03  0.00000000000E+00 0.  1.
          2   -1    0    0  501    0  0.00000000000E+00 -0.00000000000E+00 -0.36108219294E+03  0.36108219294E+03  0.00000000000E+00 0. -1.
         25    2    1    2    0    0  0.22425489903E+02  0.16918102148E+03 -0.19898799796E+03  0.29046259846E+03  0.12508867713E+03 0.  0.
          5    1    3    3  502    0  0.17216404567E+02 -0.16419679461E+02 -0.36069032183E+02  0.43410343726E+02  0.41800000000E+01 0.  1.
         -5    1    3    3    0  502  0.52090853357E+01  0.18560070094E+03 -0.16291896578E+03  0.24705225473E+03  0.41800000000E+01 0.  1.
        -11    1    1    2    0    0 -0.47180555933E+02 -0.35642582302E+02 -0.19426644085E+02  0.62239802632E+02  0.00000000000E+00 0.  1.
         11    1    1    2    0    0  0.24755066029E+02 -0.13353843917E+03 -0.14465569663E+02  0.13658177308E+03  0.00000000000E+00 0. -1.
</event>
<event>
 7    1  0.2686828E-009  0.1125589E+03  0.7561462E-02  0.1255903E+00
         -1   -1    0    0    0  501 -0.00000000000E+00  0.00000000000E+00  0.51047644878E+03  0.51047644878E+03  0.00000000000E+00 0.  1.
          1   -1    0    0  501    0  0.00000000000E+00 -0.00000000000E+00 -0.31984381447E+02  0.31984381447E+02  0.00000000000E+00 0. -1.
         25    2    1    2    0    0  0.19766142200E+02 -0.63906985500E+02  0.25523039478E+03  0.29200347285E+03  0.12509464641E+03 0.  0.
          5    1    3    3  502    0  0.47137225671E+02  0.13861635471E+01  0.30424415493E+02  0.56275722576E+02  0.41800000000E+01 0. -1.
         -5    1    3    3    0  502 -0.27371083472E+02 -0.65293149047E+02  0.22480597929E+03  0.23572775027E+03  0.41800000000E+01 0. -1.
        -11    1    1    2    0    0 -0.23967944586E+02  0.83470935107E+02  0.13937462547E+03  0.16421676407E+03  0.00000000000E+00 0.  1.
         11    1    1    2    0    0  0.42018023858E+01 -0.19563949606E+02  0.83887047074E+02  0.86240593309E+02  0.00000000000E+00 0. -1.
</event>
<event>
 7    1  0.2686828E-009  0.1872430E+03  0.7561462E-02  0.1160972E+00
          1   -1    0    0  501    0  0.00000000000E+00  0.00000000000E+00  0.79663150886E+03  0.79663150886E+03  0.00000000000E+00 0. -1.
         -1   -1    0    0    0  501 -0.00000000000E+00 -0.00000000000E+00 -0.54966311911E+02  0.54966311911E+02  0.00000000000E+00 0.  1.
         25    2    1    2    0    0 -0.15551972141E+03 -0.58979242272E+02  0.25479646128E+03  0.32898999210E+03  0.12509293928E+03 0.  0.
          5    1    3    3  502    0 -0.12851891396E+03  0.14804832098E+02  0.15787466641E+03  0.20415233771E+03  0.41800000000E+01 0.  1.
         -5    1    3    3    0  502 -0.27000807450E+02 -0.73784074370E+02  0.96921794867E+02  0.12483765439E+03  0.41800000000E+01 0.  1.
        -11    1    1    2    0    0  0.72971892369E+02  0.25691338081E+02  0.10452132437E+03  0.13003710692E+03  0.00000000000E+00 0.  1.
         11    1    1    2    0    0  0.82547829041E+02  0.33287904191E+02  0.38234741130E+03  0.39257072175E+03  0.00000000000E+00 0. -1.
</event>
<event>
 7    1  0.2686828E-009  0.1388989E+03  0.7561462E-02  0.1214818E+00
         -1   -1    0    0    0  501 -0.00000000000E+00  0.00000000000E+00  0.80381889707E+03  0.80381889707E+03  0.00000000000E+00 0.  1.
          1   -1    0    0  501    0  0.00000000000E+00 -0.00000000000E+00 -0.34737462940E+02  0.34737462940E+02  0.00000000000E+00 0. -1.
         25    2    1    2    0    0 -0.52321401739E+02  0.10117729114E+03  0.31581572055E+03  0.35827596225E+03  0.12509085683E+03 0.  0.
          5    1    3    3  502    0  0.22918124456E+02  0.33004339175E+02  0.19184230510E+02  0.44721738934E+02  0.41800000000E+01 0. -1.
         -5    1    3    3    0  502 -0.75239526195E+02  0.68172951964E+02  0.29663149003E+03  0.31355422332E+03  0.41800000000E+01 0. -1.
        -11    1    1    2    0    0  0.49316760557E+02 -0.17920341909E+02  0.66838437204E+02  0.84974456244E+02  0.00000000000E+00 0. -1.
         11    1    1    2    0    0  0.30046411820E+01 -0.83256949230E+02  0.38642727638E+03  0.39530594151E+03  0.00000000000E+00 0.  1.
</event>
<event>
 7    1  0.3732438E-009  0.1974805E+03  0.7561462E-02  0.1151882E+00
         -2   -1    0    0    0  501 -0.00000000000E+00  0.00000000000E+00  0.25589127165E+02  0.25589127165E+02  0.00000000000E+00 0.  1.
          2   -1    0    0  501    0  0.00000000000E+00 -0.00000000000E+00 -0.20395140679E+04  0.20395140679E+04  0.00000000000E+00 0. -1.
         25    2    1    2    0    0  0.17937605301E+03  0.80050694457E+02 -0.12265724747E+04  0.12484840955E+04  0.12509444045E+03 0.  0.
          5    1    3    3  502    0  0.90326965768E+02  0.30874186844E+02 -0.26806713110E+03  0.28458677997E+03  0.41800000000E+01 0.  1.
         -5    1    3    3    0  502  0.89049087239E+02  0.49176507613E+02 -0.95850534358E+03  0.96389731554E+03  0.41800000000E+01 0.  1.
        -11    1    1    2    0    0 -0.10974594980E+03 -0.37387243036E+02 -0.61583931288E+03  0.62665783225E+03  0.00000000000E+00 0. -1.
         11    1    1    2    0    0 -0.69630103206E+02 -0.42663451421E+02 -0.17151315315E+03  0.18996126727E+03  0.00000000000E+00 0.  1.
</event>
<event>
 7    1  0.2686828E-009  0.1080453E+03  0.7561462E-02  0.1264233E+00
          3   -1    0    0  501    0  0.00000000000E+00  0.00000000000E+00  0.22745461161E+02  0.22745461161E+02  0.00000000000E+00 0. -1.
         -3   -1    0    0    0  501 -0.00000000000E+00 -0.00000000000E+00 -0.59970910736E+03  0.59970910736E+03  0.00000000000E+00 0.  1.
         25    2    1    2    0    0  0.36034851699E+02  0.21232598283E+02 -0.34541059015E+03  0.36973661621E+03  0.12508939128E+03 0.  0.
          5    1    3    3  502    0  0.18858514956E+02  0.71275818499E+02 -0.14920792798E+03  0.16648232357E+03  0.41800000000E+01 0.  1.
         -5    1    3    3    0  502  0.17176336744E+02 -0.50043220216E+02 -0.19620266218E+03  0.20325429265E+03  0.41800000000E+01 0.  1.
        -11    1    1    2    0    0 -0.22570391073E+02  0.29236867937E+02 -0.15951398062E+03  0.16373431837E+03  0.00000000000E+00 0.  1.
         11    1    1    2    0    0 -0.13464460626E+02 -0.50469466220E+02 -0.72039075429E+02  0.88983633940E+02  0.00000000000E+00 0. -1.
</event>
<event>
 7    1  0.2686828E-009  0.1437174E+03  0.7561462E-02  0.1208413E+00
          2   -1    0    0  501    0  0.00000000000E+00  0.00000000000E+00  0.33797418842E+03  0.33797418842E+03  0.00000000000E+00 0. -1.
         -2   -1    0    0    0  501 -0.00000000000E+00 -0.00000000000E+00 -0.14197302160E+03  0.14197302160E+03  0.00000000000E+00 0.  1.
         25    2    1    2    0    0 -0.88166405851E+02  0.55368792808E+02 -0.71788245262E+02  0.17787760852E+03  0.12509145900E+03 0.  0.
          5    1    3    3  502    0 -0.68233671763E+02  0.95558740367E+02 -0.47918759425E+02  0.12688966360E+03  0.41800000000E+01 0. -1.
         -5    1    3    3    0  502 -0.19932734088E+02 -0.40189947559E+02 -0.23869485837E+02  0.50987944920E+02  0.41800000000E+01 0. -1.
        -11    1    1    2    0    0  0.86226252216E+02 -0.69421567330E+02  0.26556061908E+03  0.28770951146E+03  0.00000000000E+00 0. -1.
         11    1    1    2    0    0  0.19401536350E+01  0.14052774522E+02  0.22287930095E+01  0.14360090048E+02  0.00000000000E+00 0.  1.
</event>
<event>
 7    1  0.2686828E-009  0.1161953E+03  0.7561462E-02  0.1249509E+00
          1   -1    0    0  501    0  0.00000000000E+00  0.00000000000E+00  0.91352704559E+02  0.91352704559E+02  0.00000000000E+00 0. -1.
         -1   -1    0    0    0  501 -0.00000000000E+00 -0.00000000000E+00 -0.17080620297E+03  0.17080620297E+03  0.00000000000E+00 0.  1.
         25    2    1    2    0    0  0.40175395352E+02 -0.31785960499E+01 -0.86690887603E+02  0.15744059552E+03  0.12509222701E+03 0.  0.
          5    1    3    3  502    0  0.23782907864E+02  0.60530170391E+02 -0.48743939178E+02  0.81381645600E+02  0.41800000000E+01 0.  1.
         -5    1    3    3    0  502  0.16392487488E+02 -0.63708766441E+02 -0.37946948426E+02  0.76058949916E+02  0.41800000000E+01 0.  1.
        -11    1    1    2    0    0 -0.78880580575E+01  0.46562060736E+02  0.16147220736E+02  0.49909715461E+02  0.00000000000E+00 0.  1.
         11    1    1    2    0    0 -0.32287337294E+02 -0.43383464686E+02 -0.89098315409E+01  0.54808596550E+02  0.00000000000E+00 0. -1.
</event>
<event>
 7    1  0.2686828E-009  0.9738140E+02  0.7561462E-02  0.1285901E+00
          2   -1    0    0  501    0  0.00000000000E+00  0.00000000000E+00  0.14555025831E+03  0.14555025831E+03  0.00000000000E+00 0. -1.
         -2   -1    0    0    0  501 -0.00000000000E+00 -0.00000000000E+00 -0.12443155356E+03  0.12443155356E+03  0.00000000000E+00 0.  1.
         25    2    1    2    0    0  0.77972280691E+02 -0.86765694927E+01  0.28699980014E+02  0.15040873690E+03  0.12507653604E+03 0.  0.
          5    1    3    3  502    0  0.20677004560E+02 -0.10659237521E+02 -0.48621392757E+02  0.54061724868E+02  0.41800000000E+01 0.  1.
         -5    1    3    3    0  502  0.57295276131E+02  0.19826680280E+01  0.77321372771E+02  0.96347012027E+02  0.41800000000E+01 0.  1.
        -11    1    1    2    0    0 -0.53858602879E+02  0.44907117382E+02 -0.22372799891E+02  0.73606660504E+02  0.00000000000E+00 0.  1.
         11    1    1    2    0    0 -0.24113677812E+02 -0.36230547890E+02  0.14791524629E+02  0.45966414466E+02  0.00000000000E+00 0. -1.
</event>
<event>
 7    1  0.2686828E-009  0.1616022E+03  0.7561462E-02  0.1186900E+00
         -2   -1    0    0    0  501 -0.00000000000E+00  0.00000000000E+00  0.13016020130E+03  0.13016020130E+03  0.00000000000E+00 0.  1.
          2   -1    0    0  501    0  0.00000000000E+00 -0.00000000000E+00 -0.24036006396E+03  0.24036006396E+03  0.00000000000E+00 0. -1.
         25    2    1    2    0    0  0.52888196067E+02 -0.11996292719E+03 -0.92747322264E+01  0.18144497272E+03  0.12509193532E+03 0.  0.
          5    1    3    3  502    0 -0.28191258806E+02  0.34282026392E+01 -0.17312560646E+02  0.33521587113E+02  0.41800000000E+01 0.  1.
         -5    1    3    3    0  502  0.81079454873E+02 -0.12339112983E+03  0.80378284200E+01  0.14792338560E+03  0.41800000000E+01 0.  1.
        -11    1    1    2    0    0 -0.93850883274E+01  0.97282628454E+02 -0.10025424991E+03  0.14001037214E+03  0.00000000000E+00 0. -1.
         11    1    1    2    0    0 -0.43503107739E+02  0.22680298735E+02 -0.67088052056E+00  0.49064920405E+02  0.00000000000E+00 0.  1.
</event>
<event>
 7    1  0.2686828E-009  0.8316615E+02  0.7561462E-02  0.1320299E+00
         -3   -1    0    0    0  501 -0.00000000000E+00  0.00000000000E+00  0.43092420441E+03  0.43092420441E+03  0.00000000000E+00 0.  1.
          3   -1    0    0  501    0  0.00000000000E+00 -0.00000000000E+00 -0.33703595378E+02  0.33703595378E+02  0.00000000000E+00 0. -1.
         25    2    1    2    0    0  0.14219370413E+02 -0.12171662616E+02  0.12563165620E+03  0.17826920625E+03  0.12508499908E+03 0.  0.
          5    1    3    3  502    0  0.29804331266E+02  0.30006108277E+02 -0.23403321964E+01  0.42563062048E+02  0.41800000000E+01 0. -1.
         -5    1    3    3    0  502 -0.15584960853E+02 -0.42177770893E+02  0.12797198839E+03  0.13570614421E+03  0.41800000000E+01 0. -1.
        -11    1    1    2    0    0 -0.24024540266E+02  0.41388806153E+02  0.22804315014E+03  0.23301049362E+03  0.00000000000E+00 0. -1.
         11    1    1    2    0    0  0.98051698532E+01 -0.29217143537E+02  0.43545802696E+02  0.53348099917E+02  0.00000000000E+00 0.  1.
</event>
<event>
 7    1  0.2686828E-009  0.1230480E+03  0.7561462E-02  0.1238152E+00
         -1   -1    0    0    0  501 -0.00000000000E+00  0.00000000000E+00  0.34380995299E+02  0.34380995299E+02  0.00000000000E+00 0.  1.
          1   -1    0    0  501    0  0.00000000000E+00 -0.00000000000E+00 -0.61765809495E+03  0.61765809495E+03  0.00000000000E+00 0. -1.
         25    2    1    2    0    0  0.26346766085E+02 -0.94065753388E+02 -0.30437568893E+03  0.34327077941E+03  0.12509096669E+03 0.  0.
          5    1    3    3  502    0 -0.18617818751E+02 -0.39906500618E+02 -0.17029507317E+02  0.47398612702E+02  0.41800000000E+01 0.  1.
         -5    1    3    3    0  502  0.44964584835E+02 -0.54159252770E+02 -0.28734618161E+03  0.29587216671E+03  0.41800000000E+01 0.  1.
        -11    1    1    2    0    0 -0.53835306801E+02  0.29994344208E+02 -0.11085939012E+03  0.12683731832E+03  0.00000000000E+00 0.  1.
         11    1    1    2    0    0  0.27488540716E+02  0.64071409181E+02 -0.16804202060E+03  0.18193099251E+03  0.00000000000E+00 0. -1.
</event>
<event>
 7    1  0.2686828E-009  0.1153820E+03  0.7561462E-02  0.1250916E+00
         -2   -1    0    0    0  501 -0.00000000000E+00  0.00000000000E+00  0.20091612614E+03  0.20091612614E+03  0.00000000000E+00 0.  1.
          2   -1    0    0  501    0  0.00000000000E+00 -0.00000000000E+00 -0.13220852387E+03  0.13220852387E+03  0.00000000000E+00 0. -1.
         25    2    1    2    0    0  0.63263087227E+02  0.81353990095E+02  0.10138842606E+03  0.19117367624E+03  0.12508825540E+03 0.  0.
          5    1    3    3  502    0  0.11024334303E+02  0.58790139614E+02  0.11747484132E+03  0.13189248351E+03  0.41800000000E+01 0.  1.
         -5    1    3    3    0  502  0.52238752924E+02  0.22563850481E+02 -0.16086415259E+02  0.59281192730E+02  0.41800000000E+01 0.  1.
        -11    1    1    2    0    0 -0.40053713140E+01 -0.42941039886E+02 -0.53130110955E+02  0.68430874582E+02  0.00000000000E+00 0. -1.
         11    1    1    2    0    0 -0.59257715913E+02 -0.38412950208E+02  0.20449287167E+02  0.73520099188E+02  0.00000000000E+00 0.  1.
</event>
<event>
 7    1  0.2686828E-009  0.1345614E+03  0.7561462E-02  0.1220840E+00
         -2   -1    0    0    0  501 -0.00000000000E+00  0.00000000000E+00  0.66747456112E+03  0.66747456112E+03  0.00000000000E+00 0.  1.
          2   -1    0    0  501    0  0.00000000000E+00 -0.00000000000E+00 -0.44610171746E+02  0.44610171746E+02  0.00000000000E+00 0. -1.
         25    2    1    2    0    0 -0.70724597714E+02 -0.24826080760E+02  0.13755671190E+03  0.20046795177E+03  0.12508895910E+03 0.  0.
          5    1    3    3  502    0 -0.64872014264E+02  0.32625332934E+02  0.30730186397E+02  0.78959529758E+02  0.41800000000E+01 0.  1.
         -5    1    3    3    0  502 -0.58525834503E+01 -0.57451413694E+02  0.10682652550E+03  0.12150842201E+03  0.41800000000E+01 0.  1.
        -11    1    1    2    0    0 -0.98935671799E+01 -0.36104360356E+02  0.39187837373E+02  0.54194963846E+02  0.00000000000E+00 0. -1.
         11    1    1    2    0    0  0.80618164894E+02  0.60930441116E+02  0.44611984011E+03  0.45742181726E+03  0.00000000000E+00 0.  1.
</event>
<event>
 7    1  0.2686828E-009  0.9071430E+02  0.7561462E-02  0.1301131E+00
          2   -1    0    0  501    0  0.00000000000E+00  0.00000000000E+00  0.75333831345E+03  0.75333831345E+03  0.00000000000E+00 0. -1.
         -2   -1    0    0    0  501 -0.00000000000E+00 -0.00000000000E+00 -0.22934260274E+02  0.22934260274E+02  0.00000000000E+00 0.  1.
         25    2    1    2    0    0  0.73523055628E+02  0.49954362334E+00  0.43064512268E+03  0.45442801640E+03  0.12507482220E+03 0.  0.
          5    1    3    3  502    0  0.32801788929E+02 -0.32077906812E+02  0.42201152910E+02  0.62476869074E+02  0.41800000000E+01 0. -1.
         -5    1    3    3    0  502  0.40721266699E+02  0.32577450435E+02  0.38844396977E+03  0.39195114733E+03  0.41800000000E+01 0. -1.
        -11    1    1    2    0    0 -0.19033471709E+02  0.17298651835E+02  0.11910411713E+02  0.28343858379E+02  0.00000000000E+00 0.  1.
         11    1    1    2    0    0 -0.54489583918E+02 -0.17798195459E+02  0.28784851878E+03  0.29350069895E+03  0.00000000000E+00 0. -1.
</event>
<event>
 7    1  0.2686828E-009  0.1390805E+03  0.7561462E-02  0.1214572E+00
         -1   -1    0    0    0  501 -0.00000000000E+00  0.00000000000E+00  0.29686347137E+02  0.29686347137E+02  0.00000000000E+00 0.  1.
          1   -1    0    0  501    0  0.00000000000E+00 -0.00000000000E+00 -0.88561069403E+03  0.88561069403E+03  0.00000000000E+00 0. -1.
         25    2    1    2    0    0  0.10876153518E+03  0.46257463035E+02 -0.52057695438E+03  0.54828478156E+03  0.12508801633E+03 0.  0.
          5    1    3    3  502    0  0.60462697029E+02 -0.17231781528E+02 -0.39114041972E+03  0.39618300363E+03  0.41800000000E+01 0.  1.
         -5    1    3    3    0  502  0.48298838154E+02  0.63489244563E+02 -0.12943653466E+03  0.15210177792E+03  0.41800000000E+01 0.  1.
        -11    1    1    2    0    0 -0.64358537175E+02 -0.60809851719E+02 -0.28447915366E+03  0.29794000779E+03  0.00000000000E+00 0. -1.
         11    1    1    2    0    0 -0.44402998009E+02  0.14552388683E+02 -0.50868238851E+02  0.69072251826E+02  0.00000000000E+00 0.  1.
</event>
<event>
 7    1  0.2686828E-009  0.1448008E+03  0.7561462E-02  0.1207011E+00
          1   -1    0    0  501    0  0.00000000000E+00  0.00000000000E+00  0.14249512377E+03  0.14249512377E+03  0.00000000000E+00 0. -1.
         -1   -1    0    0    0  501 -0.00000000000E+00 -0.00000000000E+00 -0.18231416536E+03  0.18231416536E+03  0.00000000000E+00 0.  1.
         25    2    1    2    0    0 -0.11663815060E+03 -0.22312489153E+02 -0.17198571766E+02  0.17333868367E+03  0.12509277772E+03 0.  0.
          5    1    3    3  502    0 -0.14024704918E+03 -0.27162035445E+02 -0.29547465396E+02  0.14593675371E+03  0.41800000000E+01 0. -1.
         -5    1    3    3    0  502  0.23608898580E+02  0.48495462920E+01  0.12348893630E+02  0.27401929955E+02  0.41800000000E+01 0. -1.
        -11    1    1    2    0    0  0.50075462778E+02  0.24242696759E+02 -0.54288350780E+02  0.77733424915E+02  0.00000000000E+00 0.  1.
         11    1    1    2    0    0  0.66562687819E+02 -0.19302076064E+01  0.31667880954E+02  0.73737180549E+02  0.00000000000E+00 0. -1.
</event>
<event>
 7    1  0.2686828E-009  0.1111381E+03  0.7561462E-02  0.1258477E+00
          2   -1    0    0  501    0  0.00000000000E+00  0.00000000000E+00  0.12793796739E+04  0.12793796739E+04  0.00000000000E+00 0. -1.
         -2   -1    0    0    0  501 -0.00000000000E+00 -0.00000000000E+00 -0.15217404772E+02  0.15217404772E+02  0.00000000000E+00 0.  1.
         25    2    1    2    0    0  0.18064456780E+02  0.43165222808E+02  0.10181463461E+04  0.10268678304E+04  0.12508396386E+03 0.  0.
          5    1    3    3  502    0 -0.49485764737E+02  0.24543267026E+01  0.26785631431E+03  0.27243227075E+03  0.41800000000E+01 0.  1.
         -5    1    3    3    0  502  0.67550221517E+02  0.40710896105E+02  0.75029003182E+03  0.75443555969E+03  0.41800000000E+01 0.  1.
        -11    1    1    2    0    0  0.32057312719E+02 -0.10441592147E+02  0.15618100016E+03  0.15977860606E+03  0.00000000000E+00 0. -1.
         11    1    1    2    0    0 -0.50121769500E+02 -0.32723630661E+02  0.89834922856E+02  0.10795064217E+03  0.00000000000E+00 0.  1.
</event>
<event>
 7    1  0.2686828E-009  0.1713644E+03  0.7561462E-02  0.1176432E+00
          1   -1    0    0  501    0  0.00000000000E+00  0.00000000000E+00  0.14831722494E+04  0.14831722494E+04  0.00000000000E+00 0. -1.
         -1   -1    0    0    0  501 -0.00000000000E+00 -0.00000000000E+00 -0.28135650990E+02  0.28135650990E+02  0.00000000000E+00 0.  1.
         25    2    1    2    0    0  0.14568260221E+03 -0.27198217888E+02  0.10899773685E+04  0.11070957451E+04  0.12508861409E+03 0.  0.
          5    1    3    3  502    0  0.10275865228E+03 -0.73020715400E+02  0.83477223172E+03  0.84424730781E+03  0.41800000000E+01 0.  1.
         -5    1    3    3    0  502  0.42923949929E+02  0.45822497511E+02  0.25520513675E+03  0.26284843728E+03  0.41800000000E+01 0.  1.
        -11    1    1    2    0    0 -0.90965268913E+02 -0.33092396199E+01  0.11630499555E+03  0.14769049802E+03  0.00000000000E+00 0.  1.
         11    1    1    2    0    0 -0.54717333300E+02  0.30507457508E+02  0.24875423441E+03  0.25652165730E+03  0.00000000000E+00 0. -1.
</event>
<event>
 7    1  0.2686828E-009  0.8742126E+02  0.7561462E-02  0.1309219E+00
          2   -1    0    0  501    0  0.00000000000E+00  0.00000000000E+00  0.58583057630E+02  0.58583057630E+02  0.00000000000E+00 0. -1.
         -2   -1    0    0    0  501 -0.00000000000E+00 -0.00000000000E+00 -0.26203041577E+03  0.26203041577E+03  0.00000000000E+00 0.  1.
         25    2    1    2    0    0  0.58833796412E+02 -0.11069034900E+02 -0.13991129544E+03  0.19698905615E+03  0.12508228698E+03 0.  0.
          5    1    3    3  502    0  0.18674414042E+02 -0.19771646298E+02  0.18581767659E+02  0.33202503316E+02  0.41800000000E+01 0. -1.
         -5    1    3    3    0  502  0.40159382371E+02  0.87026113972E+01 -0.15849306310E+03  0.16378655283E+03  0.41800000000E+01 0. -1.
        -11    1    1    2    0    0 -0.19681182482E+02  0.48200116981E+02 -0.29862062143E+02  0.60019521627E+02  0.00000000000E+00 0. -1.
         11    1    1    2    0    0 -0.39152613930E+02 -0.37131082080E+02 -0.33674000556E+02  0.63604895625E+02  0.00000000000E+00 0.  1.
</event>
<event>
 7    1  0.2686828E-009  0.9465732E+02  0.7561462E-02  0.1291950E+00
          4   -1    0    0  501    0  0.00000000000E+00  0.00000000000E+00  0.12498644470E+03  0.12498644470E+03  0.00000000000E+00 0.  1.
         -4   -1    0    0    0  501 -0.00000000000E+00 -0.00000000000E+00 -0.15536092624E+03  0.15536092624E+03  0.00000000000E+00 0. -1.
         25    2    1    2    0    0  0.46539679059E+02  0.69653749197E+02  0.67758772745E+01  0.15070569919E+03  0.12509479906E+03 0.  0.
          5    1    3    3  502    0 -0.44417769134E+01  0.13637368192E+02 -0.52405436452E+02  0.54493204742E+02  0.41800000000E+01 0. -1.
         -5    1    3    3    0  502  0.50981455972E+02  0.56016381005E+02  0.59181313726E+02  0.96212494450E+02  0.41800000000E+01 0. -1.
        -11    1    1    2    0    0 -0.54791237597E+02 -0.40272626513E+02 -0.60655547096E+02  0.91121125746E+02  0.00000000000E+00 0.  1.
         11    1    1    2    0    0  0.82515585379E+01 -0.29381122684E+02  0.23505188276E+02  0.38520546003E+02  0.00000000000E+00 0. -1.
</event>
<event>
 7    1  0.2686828E-009  0.1157582E+03  0.7561462E-02  0.1250263E+00
         -1   -1    0    0    0  501 -0.00000000000E+00  0.00000000000E+00  0.82834508985E+02  0.82834508985E+02  0.00000000000E+00 0.  1.
          1   -1    0    0  501    0  0.00000000000E+00 -0.00000000000E+00 -0.33763599951E+03  0.33763599951E+03  0.00000000000E+00 0. -1.
         25    2    1    2    0    0 -0.10059267835E+03  0.53322524602E+01 -0.23507007156E+03  0.28469234927E+03  0.12507787707E+03 0.  0.
          5    1    3    3  502    0 -0.52081256906E+01 -0.28198832969E+02 -0.14916288857E+03  0.15195176367E+03  0.41800000000E+01 0.  1.
         -5    1    3    3    0  502 -0.95384552661E+02  0.33531085429E+02 -0.85907182989E+02  0.13274058560E+03  0.41800000000E+01 0.  1.
        -11    1    1    2    0    0  0.20077944256E+02  0.33779831660E+01 -0.46273863000E+02  0.50554970208E+02  0.00000000000E+00 0. -1.
         11    1    1    2    0    0  0.80514734095E+02 -0.87102356262E+01  0.26542444037E+02  0.85223189019E+02  0.00000000000E+00 0.  1.
</event>
<event>
 7    1  0.2686828E-009  0.1223548E+03  0.7561462E-02  0.1239262E+00
          1   -1    0    0  501    0  0.00000000000E+00  0.00000000000E+00  0.72961383239E+02  0.72961383239E+02  0.00000000000E+00 0. -1.
         -1   -1    0    0    0  501 -0.00000000000E+00 -0.00000000000E+00 -0.26625178515E+03  0.26625178515E+03  0.00000000000E+00 0.  1.
         25    2    1    2    0    0  0.18878779498E+02  0.82967579569E+02 -0.11980176088E+03  0.19297889527E+03  0.12509342323E+03 0.  0.
          5    1    3    3  502    0 -0.25057446709E+02  0.67679053447E+02 -0.91417596343E+01  0.72865451898E+02  0.41800000000E+01 0. -1.
         -5    1    3    3    0  502  0.43936226207E+02  0.15288526122E+02 -0.11066000124E+03  0.12011344338E+03  0.41800000000E+01 0. -1.
        -11    1    1    2    0    0  0.24228277904E+02 -0.78757728258E+02 -0.55425516259E+02  0.99306480469E+02  0.00000000000E+00 0.  1.
         11    1    1    2    0    0 -0.43107057401E+02 -0.42098513105E+01 -0.18063124771E+02  0.46927792643E+02  0.00000000000E+00 0. -1.
</event>
<event>
 7    1  0.2686828E-009  0.9801587E+02  0.7561462E-02  0.1284524E+00
          3   -1    0    0  501    0  0.00000000000E+00  0.00000000000E+00  0.42568686259E+03  0.42568686259E+03  0.00000000000E+00 0. -1.
         -3   -1    0    0    0  501 -0.00000000000E+00 -0.00000000000E+00 -0.49091264791E+02  0.49091264791E+02  0.00000000000E+00 0.  1.
         25    2    1    2    0    0 -0.52883612979E+02 -0.21237904905E+02  0.82679561298E+02  0.16041560473E+03  0.12509808655E+03 0.  0.
          5    1    3    3  502    0  0.13607784212E+02 -0.24890558555E+02 -0.22095324138E+02  0.36199274096E+02  0.41800000000E+01 0. -1.
         -5    1    3    3    0  502 -0.66491397191E+02  0.36526536505E+01  0.10477488544E+03  0.12421633064E+03  0.41800000000E+01 0. -1.
        -11    1    1    2    0    0 -0.11619392357E+02  0.33073686189E+02  0.17581009306E+03  0.17927093411E+03  0.00000000000E+00 0.  1.
         11    1    1    2    0    0  0.64503005336E+02 -0.11835781285E+02  0.11810594344E+03  0.13509158853E+03  0.00000000000E+00 0. -1.
</event>
<event>
 7    1  0.2686828E-009  0.5416868E+02  0.7561462E-02  0.1424072E+00
         -2   -1    0    0    0  501 -0.00000000000E+00  0.00000000000E+00  0.92419088796E+02  0.92419088796E+02  0.00000000000E+00 0.  1.
          2   -1    0    0  501    0  0.00000000000E+00 -0.00000000000E+00 -0.14034276806E+03  0.14034276806E+03  0.00000000000E+00 0. -1.
         25    2    1    2    0    0  0.11749381046E+02  0.14370916298E+02 -0.55909724949E+02  0.13826837180E+03  0.12509066354E+03 0.  0.
          5    1    3    3  502    0  0.93522704570E+01  0.28743158597E+02 -0.93171650999E+02  0.98041129526E+02  0.41800000000E+01 0.  1.
         -5    1    3    3    0  502  0.23971105895E+01 -0.14372242299E+02  0.37261926050E+02  0.40227242272E+02  0.41800000000E+01 0.  1.
        -11    1    1    2    0    0 -0.23555477881E+02  0.17063493620E+02  0.39088981716E+02  0.48723421927E+02  0.00000000000E+00 0.  1.
         11    1    1    2    0    0  0.11806096835E+02 -0.31434409918E+02 -0.31102936036E+02  0.45770063135E+02  0.00000000000E+00 0. -1.
</event>
<event>
 7    1  0.2686828E-009  0.1151382E+03  0.7561462E-02  0.1251340E+00
         -3   -1    0    0    0  501 -0.00000000000E+00  0.00000000000E+00  0.39355490374E+02  0.39355490374E+02  0.00000000000E+00 0.  1.
          3   -1    0    0  501    0  0.00000000000E+00 -0.00000000000E+00 -0.49127067620E+03  0.49127067620E+03  0.00000000000E+00 0. -1.
         25    2    1    2    0    0 -0.33101896821E+02 -0.74214748062E+02 -0.30859935016E+03  0.34275938057E+03  0.12508744801E+03 0.  0.
          5    1    3    3  502    0  0.41890017584E+02 -0.93280996744E+01 -0.14624197358E+03  0.15246630530E+03  0.41800000000E+01 0.  1.
         -5    1    3    3    0  502 -0.74991914405E+02 -0.64886648388E+02 -0.16235737658E+03  0.19029307527E+03  0.41800000000E+01 0.  1.
        -11    1    1    2    0    0  0.38400727934E+02  0.49621948218E+02 -0.14935092642E+03  0.16199584215E+03  0.00000000000E+00 0. -1.
         11    1    1    2    0    0 -0.52988311132E+01  0.24592799844E+02  0.60350907559E+01  0.25870943851E+02  0.00000000000E+00 0.  1.
</event>
<event>
 7    1  0.2686828E-009  0.9485582E+02  0.7561462E-02  0.1291501E+00
          1   -1    0    0  501    0  0.00000000000E+00  0.00000000000E+00  0.19372672213E+03  0.19372672213E+03  0.00000000000E+00 0. -1.
         -1   -1    0    0    0  501 -0.00000000000E+00 -0.00000000000E+00 -0.64560469589E+02  0.64560469589E+02  0.00000000000E+00 0.  1.
         25    2    1    2    0    0 -0.15396413333E+02 -0.23719311571E+02  0.68075311231E+02  0.14519926676E+03  0.12509565854E+03 0.  0.
          5    1    3    3  502    0 -0.59804985762E+02 -0.15189603984E+02  0.77160117318E+02  0.98886381751E+02  0.41800000000E+01 0. -1.
         -5    1    3    3    0  502  0.44408572429E+02 -0.85297075869E+01 -0.90848060872E+01  0.46312885014E+02  0.41800000000E+01 0. -1.
        -11    1    1    2    0    0  0.36571656526E+02 -0.14030007466E+02  0.57610224957E+02  0.69665380140E+02  0.00000000000E+00 0. -1.
         11    1    1    2    0    0 -0.21175243192E+02  0.37749319037E+02  0.34807163572E+01  0.43422544817E+02  0.00000000000E+00 0.  1.
</event>
<event>
 7    1  0.2686828E-009  0.2027960E+03  0.7561462E-02  0.1147401E+00
          2   -1    0    0  501    0  0.00000000000E+00  0.00000000000E+00  0.32217881120E+03  0.32217881120E+03  0.00000000000E+00 0. -1.
         -2   -1    0    0    0  501 -0.00000000000E+00 -0.00000000000E+00 -0.16508963119E+03  0.16508963119E+03  0.00000000000E+00 0.  1.
         25    2    1    2    0    0  0.47078586897E+02 -0.18698855041E+03  0.15225437072E+03  0.27569924380E+03  0.12509024062E+03 0.  0.
          5    1    3    3  502    0 -0.20484446825E+02 -0.37640862415E+02  0.90976030278E+02  0.10065067099E+03  0.41800000000E+01 0. -1.
         -5    1    3    3    0  502  0.67563033722E+02 -0.14934768799E+03  0.61278340440E+02  0.17504857281E+03  0.41800000000E+01 0. -1.
        -11    1    1    2    0    0 -0.56690457573E+02  0.16748088831E+03  0.28868991450E+02  0.17915656448E+03  0.00000000000E+00 0. -1.
         11    1    1    2    0    0  0.96118706760E+01  0.19507662101E+02 -0.24034182156E+02  0.32412634118E+02  0.00000000000E+00 0.  1.
</event>
<event>
 7    1  0.2686828E-009  0.1540801E+03  0.7561462E-02  0.1195547E+00
          1   -1    0    0  501    0  0.00000000000E+00  0.00000000000E+00  0.75628241660E+03  0.75628241660E+03  0.00000000000E+00 0. -1.
         -1   -1    0    0    0  501 -0.00000000000E+00 -0.00000000000E+00 -0.55004624552E+02  0.55004624552E+02  0.00000000000E+00 0.  1.
         25    2    1    2    0    0  0.11146564846E+03  0.36980347359E+02  0.11573124062E+03  0.20696320926E+03  0.12509161865E+03 0.  0.
          5    1    3    3  502    0  0.62422637013E+02  0.80780410317E+02  0.49471422049E+02  0.11352072191E+03  0.41800000000E+01 0.  1.
         -5    1    3    3    0  502  0.49043011444E+02 -0.43800062958E+02  0.66259818567E+02  0.93442487356E+02  0.41800000000E+01 0.  1.
        -11    1    1    2    0    0 -0.58023000757E+02  0.20569918642E+02  0.36625461721E+03  0.37139229232E+03  0.00000000000E+00 0.  1.
         11    1    1    2    0    0 -0.53442647700E+02 -0.57550266001E+02  0.21929193422E+03  0.23293153957E+03  0.00000000000E+00 0. -1.
</event>
<event>
 7    1  0.2686828E-009  0.1229739E+03  0.7561462E-02  0.1238270E+00
         -1   -1    0    0    0  501 -0.00000000000E+00  0.00000000000E+00  0.19010715916E+03  0.19010715916E+03  0.00000000000E+00 0.  1.
          1   -1    0    0  501    0  0.00000000000E+00 -0.00000000000E+00 -0.10818977376E+03  0.10818977376E+03  0.00000000000E+00 0. -1.
         25    2    1    2    0    0 -0.45411322664E+02 -0.77391508959E+02  0.72212632258E+02  0.17004527126E+03  0.12509634742E+03 0.  0.
          5    1    3    3  502    0  0.80940702906E+01 -0.62027909788E+02  0.91556904172E+02  0.11096447480E+03  0.41800000000E+01 0.  1.
         -5    1    3    3    0  502 -0.53505392955E+02 -0.15363599171E+02 -0.19344271914E+02  0.59080796463E+02  0.41800000000E+01 0.  1.
        -11    1    1    2    0    0  0.27906297063E+02 -0.16165159297E+02  0.71704798032E+01  0.33037699246E+02  0.00000000000E+00 0.  1.
         11    1    1    2    0    0  0.17505025601E+02  0.93556668256E+02  0.25342733316E+01  0.95213962410E+02  0.00000000000E+00 0. -1.
</event>
<event>
 7    1  0.2686828E-009  0.1062213E+03  0.7561462E-02  0.1267732E+00
          1   -1    0    0  501    0  0.00000000000E+00  0.00000000000E+00  0.46911846128E+03  0.46911846128E+03  0.00000000000E+00 0.  1.
         -1   -1    0    0    0  501 -0.00000000000E+00 -0.00000000000E+00 -0.25511089641E+02  0.25511089641E+02  0.00000000000E+00 0. -1.
         25    2    1    2    0    0 -0.15898641345E+02  0.55548084159E+01  0.26158477984E+03  0.29044313979E+03  0.12508795990E+03 0.  0.
          5    1    3    3  502    0  0.50551917134E+02 -0.10231476346E+02  0.70326841448E+02  0.87312750857E+02  0.41800000000E+01 0.  1.
         -5    1    3    3    0  502 -0.66450558479E+02  0.15786284762E+02  0.19125793840E+03  0.20313038893E+03  0.41800000000E+01 0.  1.
        -11    1    1    2    0    0  0.32763734096E+02  0.35244577687E+02  0.87405568785E+02  0.99776630445E+02  0.00000000000E+00 0.  1.
         11    1    1    2    0    0 -0.16865092751E+02 -0.40799386103E+02  0.94617023013E+02  0.10440978069E+03  0.00000000000E+00 0. -1.
</event>
<event>
 7    1  0.2686828E-009  0.9363105E+02  0.7561462E-02  0.1294289E+00
          2   -1    0    0  501    0  0.00000000000E+00  0.00000000000E+00  0.42008454237E+03  0.42008454237E+03  0.00000000000E+00 0. -1.
         -2   -1    0    0    0  501 -0.00000000000E+00 -0.00000000000E+00 -0.43974790018E+02  0.43974790018E+02  0.00000000000E+00 0.  1.
         25    2    1    2    0    0 -0.36845459938E+02 -0.42116321902E+02  0.29657070117E+03  0.32670050021E+03  0.12509062138E+03 0.  0.
          5    1    3    3  502    0 -0.78379296688E+02 -0.24934872474E+02  0.12812239823E+03  0.15230851370E+03  0.41800000000E+01 0.  1.
         -5    1    3    3    0  502  0.41533836750E+02 -0.17181449428E+02  0.16844830294E+03  0.17439198652E+03  0.41800000000E+01 0.  1.
        -11    1    1    2    0    0  0.86943008254E+01  0.25802930953E+02  0.96779618163E+02  0.10053694149E+03  0.00000000000E+00 0. -1.
         11    1    1    2    0    0  0.28151159113E+02  0.16313390949E+02 -0.17240566982E+02  0.36821890683E+02  0.00000000000E+00 0.  1.
</event>
<event>
 7    1  0.2686828E-009  0.1356734E+03  0.7561462E-02  0.1219272E+00
         -2   -1    0    0    0  501 -0.00000000000E+00  0.00000000000E+00  0.25171574240E+02  0.25171574240E+02  0.00000000000E+00 0.  1.
          2   -1    0    0  501    0  0.00000000000E+00 -0.00000000000E+00 -0.11014532783E+04  0.11014532783E+04  0.00000000000E+00 0. -1.
         25    2    1    2    0    0  0.76415289085E+02 -0.99271784744E+02 -0.52263805599E+03  0.55180957359E+03  0.12509630003E+03 0.  0.
          5    1    3    3  502    0  0.52622806318E+02 -0.62086699746E+02 -0.49004964686E+03  0.49677967633E+03  0.41800000000E+01 0.  1.
         -5    1    3    3    0  502  0.23792482768E+02 -0.37185084997E+02 -0.32588409135E+02  0.55029897260E+02  0.41800000000E+01 0.  1.
        -11    1    1    2    0    0  0.14519972418E+02  0.76132457497E+01 -0.20444492899E+02  0.26206266422E+02  0.00000000000E+00 0.  1.
         11    1    1    2    0    0 -0.90935261504E+02  0.91658538994E+02 -0.53319915519E+03  0.54860901255E+03  0.00000000000E+00 0. -1.
</event>
<event>
 7    1  0.2686828E-009  0.8780148E+02  0.7561462E-02  0.1308265E+00
         -1   -1    0    0    0  501 -0.00000000000E+00  0.00000000000E+00  0.12160075824E+03  0.12160075824E+03  0.00000000000E+00 0.  1.
          1   -1    0    0  501    0  0.00000000000E+00 -0.00000000000E+00 -0.13511946386E+03  0.13511946386E+03  0.00000000000E+00 0. -1.
         25    2    1    2    0    0  0.21398727359E+01 -0.50617645298E+02 -0.52655496017E+02  0.14486717864E+03  0.12508866102E+03 0.  0.
          5    1    3    3  502    0  0.37789494754E+02 -0.63150850173E+02  0.70877722927E+01  0.74052580694E+02  0.41800000000E+01 0. -1.
         -5    1    3    3    0  502 -0.35649622018E+02  0.12533204875E+02 -0.59743268309E+02  0.70814597949E+02  0.41800000000E+01 0. -1.
        -11    1    1    2    0    0 -0.20406543154E+02  0.22868936529E+02  0.63597516988E+02  0.70597871275E+02  0.00000000000E+00 0.  1.
         11    1    1    2    0    0  0.18266670418E+02  0.27748708769E+02 -0.24460726590E+02  0.41255172183E+02  0.00000000000E+00 0. -1.
</event>
<event>
 7    1  0.2686828E-009  0.9957145E+02  0.7561462E-02  0.1281200E+00
          1   -1    0    0  501    0  0.00000000000E+00  0.00000000000E+00  0.87842266905E+02  0.87842266905E+02  0.00000000000E+00 0. -1.
         -1   -1    0    0    0  501 -0.00000000000E+00 -0.00000000000E+00 -0.15114966942E+03  0.15114966942E+03  0.00000000000E+00 0.  1.
         25    2    1    2    0    0  0.24852922153E+02 -0.97942057170E+01 -0.67932348094E+02  0.14482406313E+03  0.12508241739E+03 0.  0.
          5    1    3    3  502    0 -0.43891703025E+02 -0.11189201851E+02 -0.60276396184E+02  0.75514211705E+02  0.41800000000E+01 0.  1.
         -5    1    3    3    0  502  0.68744625178E+02  0.13949961337E+01 -0.76559519094E+01  0.69309851426E+02  0.41800000000E+01 0.  1.
        -11    1    1    2    0    0 -0.74411487018E+01 -0.35485434038E+02 -0.18183651276E+02  0.40561458265E+02  0.00000000000E+00 0.  1.
         11    1    1    2    0    0 -0.17411773451E+02  0.45279639755E+02  0.22808596854E+02  0.53606414929E+02  0.00000000000E+00 0. -1.
</event>
<event>
 7    1  0.2810341E-009  0.7222689E+02  0.7561462E-02  0.1352680E+00
         -3   -1    0    0    0  501 -0.00000000000E+00  0.00000000000E+00  0.72635277448E+02  0.72635277448E+02  0.00000000000E+00 0.  1.
          3   -1    0    0  501    0  0.00000000000E+00 -0.00000000000E+00 -0.20862012505E+03  0.20862012505E+03  0.00000000000E+00 0. -1.
         25    2    1    2    0    0  0.12147743969E+02  0.41880672547E+02 -0.12047973088E+03  0.17906339317E+03  0.12508706889E+03 0.  0.
          5    1    3    3  502    0  0.35128791778E+02  0.34330092265E+02 -0.13953544184E+03  0.14798715882E+03  0.41800000000E+01 0. -1.
         -5    1    3    3    0  502 -0.22981047808E+02  0.75505802819E+01  0.19055710960E+02  0.31076234346E+02  0.41800000000E+01 0. -1.
        -11    1    1    2    0    0  0.11502424858E+02 -0.45278773783E+02  0.26615399407E+02  0.53766649686E+02  0.00000000000E+00 0.  1.
         11    1    1    2    0    0 -0.23650168828E+02  0.33981012362E+01 -0.42120516129E+02  0.48425359643E+02  0.00000000000E+00 0. -1.
</event>
<event>
 7    1  0.2686828E-009  0.1196656E+03  0.7561462E-02  0.1243650E+00
         -1   -1    0    0    0  501 -0.00000000000E+00  0.00000000000E+00  0.39031579783E+03  0.39031579783E+03  0.00000000000E+00 0. -1.
          1   -1    0    0  501    0  0.00000000000E+00 -0.00000000000E+00 -0.68130378232E+02  0.68130378232E+02  0.00000000000E+00 0.  1.
         25    2    1    2    0    0  0.80549481498E+02 -0.37035270865E+01  0.45366726626E+02  0.15558929182E+03  0.12509177736E+03 0.  0.
          5    1    3    3  502    0  0.93135924935E+02  0.14085641071E+02  0.73648322591E+02  0.11964218996E+03  0.41800000000E+01 0. -1.
         -5    1    3    3    0  502 -0.12586443437E+02 -0.17789168157E+02 -0.28281595966E+02  0.35947101865E+02  0.41800000000E+01 0. -1.
        -11    1    1    2    0    0  0.72369853136E+01 -0.28456861747E+02  0.65472517600E+02  0.71755261116E+02  0.00000000000E+00 0.  1.
         11    1    1    2    0    0 -0.87786466812E+02  0.32160388834E+02  0.21134617537E+03  0.23110162312E+03  0.00000000000E+00 0. -1.
</event>
<event>
 7    1  0.2686828E-009  0.1315525E+03  0.7561462E-02  0.1225170E+00
         -1   -1    0    0    0  501 -0.00000000000E+00  0.00000000000E+00  0.68239897868E+02  0.68239897868E+02  0.00000000000E+00 0.  1.
          1   -1    0    0  501    0  0.00000000000E+00 -0.00000000000E+00 -0.50902943837E+03  0.50902943837E+03  0.00000000000E+00 0. -1.
         25    2    1    2    0    0  0.12551465533E+03  0.21771275350E+02 -0.10212263870E+03  0.20568567841E+03  0.12509855249E+03 0.  0.
          5    1    3    3  502    0  0.27570315309E+02  0.25127328393E+02 -0.10082563643E+03  0.10758618071E+03  0.41800000000E+01 0. -1.
         -5    1    3    3    0  502  0.97944340023E+02 -0.33560530430E+01 -0.12970022702E+01  0.98099497703E+02  0.41800000000E+01 0. -1.
        -11    1    1    2    0    0 -0.66449506293E+02 -0.91144437841E+01 -0.27798248224E+03  0.28595956079E+03  0.00000000000E+00 0. -1.
         11    1    1    2    0    0 -0.59065149039E+02 -0.12656831566E+02 -0.60684419563E+02  0.85624097040E+02  0.00000000000E+00 0.  1.
</event>
<event>
 7    1  0.2686828E-009  0.1027784E+03  0.7561462E-02  0.1274559E+00
         -1   -1    0    0    0  501 -0.00000000000E+00  0.00000000000E+00  0.47098631340E+02  0.47098631340E+02  0.00000000000E+00 0.  1.
          1   -1    0    0  501    0  0.00000000000E+00 -0.00000000000E+00 -0.31118596577E+03  0.31118596577E+03  0.00000000000E+00 0. -1.
         25    2    1    2    0    0  0.98772276139E+00  0.62120975745E+01 -0.70547717003E+02  0.14375001030E+03  0.12509004490E+03 0.  0.
          5    1    3    3  502    0  0.30920948157E+01  0.61812378151E+02 -0.61267508394E+02  0.87186645353E+02  0.41800000000E+01 0. -1.
         -5    1    3    3    0  502 -0.21043720543E+01 -0.55600280577E+02 -0.92802086092E+01  0.56563364944E+02  0.41800000000E+01 0. -1.
        -11    1    1    2    0    0  0.27585948574E+02  0.30554432367E+02 -0.57274574403E+02  0.70533217487E+02  0.00000000000E+00 0.  1.
         11    1    1    2    0    0 -0.28573671336E+02 -0.36766529941E+02 -0.13626504302E+03  0.14400136933E+03  0.00000000000E+00 0. -1.
</event>
<event>
 7    1  0.2686828E-009  0.1407209E+03  0.7561462E-02  0.1212362E+00
         -1   -1    0    0    0  501 -0.00000000000E+00  0.00000000000E+00  0.21737572844E+03  0.21737572844E+03  0.00000000000E+00 0.  1.
          1   -1    0    0  501    0  0.00000000000E+00 -0.00000000000E+00 -0.17947178940E+03  0.17947178940E+03  0.00000000000E+00 0. -1.
         25    2    1    2    0    0 -0.80873160901E+02 -0.87189675831E+02  0.13453846596E+03  0.21884150110E+03  0.12509394891E+03 0.  0.
          5    1    3    3  502    0 -0.74378178197E+02 -0.11134263955E+03  0.73632649532E+02  0.15286770833E+03  0.41800000000E+01 0.  1.
         -5    1    3    3    0  502 -0.64949827038E+01  0.24152963720E+02  0.60905816430E+02  0.65973792765E+02  0.41800000000E+01 0.  1.
        -11    1    1    2    0    0  0.50753664235E+02  0.72780671486E+02 -0.15239356559E+02  0.90028876276E+02  0.00000000000E+00 0.  1.
         11    1    1    2    0    0  0.30119496666E+02  0.14409004345E+02 -0.81395170365E+02  0.87977140465E+02  0.00000000000E+00 0. -1.
</event>
<event>
 7    1  0.2686828E-009  0.1723201E+03  0.7561462E-02  0.1175450E+00
          4   -1    0    0  501    0  0.00000000000E+00  0.00000000000E+00  0.92813183158E+02  0.92813183158E+02  0.00000000000E+00 0. -1.
         -4   -1    0    0    0  501 -0.00000000000E+00 -0.00000000000E+00 -0.54413325360E+03  0.54413325360E+03  0.00000000000E+00 0.  1.
         25    2    1    2    0    0 -0.65312484134E+02  0.13934826498E+03 -0.61534932806E+02  0.20765465768E+03  0.12510095668E+03 0.  0.
          5    1    3    3  502    0 -0.39003580643E+00  0.11525110122E+03 -0.61759695729E+00  0.11532919096E+03  0.41800000000E+01 0.  1.
         -5    1    3    3    0  502 -0.64922448327E+02  0.24097163758E+02 -0.60917335849E+02  0.92325466719E+02  0.41800000000E+01 0.  1.
        -11    1    1    2    0    0  0.47127784342E+02 -0.49815897589E+02 -0.75489189934E+02  0.10198661435E+03  0.00000000000E+00 0. -1.
         11    1    1    2    0    0  0.18184699791E+02 -0.89532367393E+02 -0.31429594770E+03  0.32730516473E+03  0.00000000000E+00 0.  1.
</event>
<event>
 7    1  0.2686828E-009  0.1064541E+03  0.7561462E-02  0.1267281E+00
          2   -1    0    0  501    0  0.00000000000E+00  0.00000000000E+00  0.23517996486E+02  0.23517996486E+02  0.00000000000E+00 0. -1.
         -2   -1    0    0    0  501 -0.00000000000E+00 -0.00000000000E+00 -0.62447403890E+03  0.62447403890E+03  0.00000000000E+00 0.  1.
         25    2    1    2    0    0  0.30025336648E+02 -0.17997246936E+02 -0.44319703299E+03  0.46184095289E+03  0.12509210198E+03 0.  0.
          5    1    3    3  502    0  0.58619874737E+01  0.53416351320E+02 -0.20467553551E+03  0.21165352991E+03  0.41800000000E+01 0. -1.
         -5    1    3    3    0  502  0.24163349174E+02 -0.71413598256E+02 -0.23852149747E+03  0.25018742298E+03  0.41800000000E+01 0. -1.
        -11    1    1    2    0    0 -0.14900707053E+02  0.47806817421E+02 -0.41053180843E+02  0.64752502036E+02  0.00000000000E+00 0. -1.
         11    1    1    2    0    0 -0.15124629595E+02 -0.29809570484E+02 -0.11670582858E+03  0.12139858046E+03  0.00000000000E+00 0.  1.
</event>
<event>
 7    1  0.2686828E-009  0.2160598E+03  0.7561462E-02  0.1136855E+00
          2   -1    0    0  501    0  0.00000000000E+00  0.00000000000E+00  0.48112124488E+03  0.48112124488E+03  0.00000000000E+00 0. -1.
         -2   -1    0    0    0  501 -0.00000000000E+00 -0.00000000000E+00 -0.10809243954E+03  0.10809243954E+03  0.00000000000E+00 0.  1.
         25    2    1    2    0    0  0.18670941324E+02 -0.19765637515E+03  0.15539708566E+03  0.28144726714E+03  0.12509062022E+03 0.  0.
          5    1    3    3  502    0 -0.35401684267E+02 -0.14368998639E+03  0.61463214372E+02  0.16029750640E+03  0.41800000000E+01 0.  1.
         -5    1    3    3    0  502  0.54072625591E+02 -0.53966388763E+02  0.93933871285E+02  0.12114976075E+03  0.41800000000E+01 0.  1.
        -11    1    1    2    0    0 -0.33051144948E+02  0.54868489350E+02  0.11395609036E+03  0.13072459538E+03  0.00000000000E+00 0. -1.
         11    1    1    2    0    0  0.14380203624E+02  0.14278788580E+03  0.10367562932E+03  0.17704182190E+03  0.00000000000E+00 0.  1.
</event>
<event>
 7    1  0.2686828E-009  0.8961909E+02  0.7561462E-02  0.1303777E+00
         -1   -1    0    0    0  501 -0.00000000000E+00  0.00000000000E+00  0.25699036980E+02  0.25699036980E+02  0.00000000000E+00 0. -1.
          1   -1    0    0  501    0  0.00000000000E+00 -0.00000000000E+00 -0.71153052414E+03  0.71153052414E+03  0.00000000000E+00 0.  1.
         25    2    1    2    0    0  0.28358719501E+02  0.57794782217E+02 -0.46950269469E+03  0.49012735670E+03  0.12509033392E+03 0.  0.
          5    1    3    3  502    0  0.64527449815E+01  0.62538072134E+02 -0.89575401771E+02  0.10951654389E+03  0.41800000000E+01 0.  1.
         -5    1    3    3    0  502  0.21905974520E+02 -0.47432899170E+01 -0.37992729292E+03  0.38061081281E+03  0.41800000000E+01 0.  1.
        -11    1    1    2    0    0 -0.50875932638E+02 -0.40935163603E+02 -0.20763311111E+03  0.21765926806E+03  0.00000000000E+00 0.  1.
         11    1    1    2    0    0  0.22517213137E+02 -0.16859618613E+02 -0.86956813507E+01  0.29442936358E+02  0.00000000000E+00 0. -1.
</event>
<event>
 7    1  0.2686828E-009  0.1123261E+03  0.7561462E-02  0.1256322E+00
          2   -1    0    0  501    0  0.00000000000E+00  0.00000000000E+00  0.12995310519E+03  0.12995310519E+03  0.00000000000E+00 0. -1.
         -2   -1    0    0    0  501 -0.00000000000E+00 -0.00000000000E+00 -0.10884903398E+03  0.10884903398E+03  0.00000000000E+00 0.  1.
         25    2    1    2    0    0 -0.51382798200E+02  0.87240209764E+01  0.37850066668E+01  0.13556717848E+03  0.12509129911E+03 0.  0.
          5    1    3    3  502    0  0.30222805127E+02  0.33428753924E+02  0.18588632431E+02  0.48927591340E+02  0.41800000000E+01 0.  1.
         -5    1    3    3    0  502 -0.81605603327E+02 -0.24704732948E+02 -0.14803625764E+02  0.86639587142E+02  0.41800000000E+01 0.  1.
        -11    1    1    2    0    0 -0.18411126259E+02 -0.15280838781E+02  0.22629615627E+02  0.32932857566E+02  0.00000000000E+00 0.  1.
         11    1    1    2    0    0  0.69793924460E+02  0.65568178047E+01 -0.53105510799E+01  0.70302103126E+02  0.00000000000E+00 0. -1.
</event>
<event>
 7    1  0.2686828E-009  0.3262399E+03  0.7561462E-02  0.1072813E+00
          2   -1    0    0  501    0  0.00000000000E+00  0.00000000000E+00  0.13820062300E+04  0.13820062300E+04  0.00000000000E+00 0. -1.
         -2   -1    0    0    0  501 -0.00000000000E+00 -0.00000000000E+00 -0.84946486340E+02  0.84946486340E+02  0.00000000000E+00 0.  1.
         25    2    1    2    0    0  0.17927374698E+03  0.26776698267E+03  0.74793122352E+03  0.82394591534E+03  0.12509005929E+03 0.  0.
          5    1    3    3  502    0  0.13784479208E+03  0.16025848222E+03  0.60149281318E+03  0.63756963897E+03  0.41800000000E+01 0.  1.
         -5    1    3    3    0  502  0.41428954902E+02  0.10750850045E+03  0.14643841033E+03  0.18637627637E+03  0.41800000000E+01 0.  1.
        -11    1    1    2    0    0 -0.15528253365E+03 -0.25506765394E+03  0.53427493337E+03  0.61206362232E+03  0.00000000000E+00 0.  1.
         11    1    1    2    0    0 -0.23991213337E+02 -0.12699328728E+02  0.14853586808E+02  0.30943178709E+02  0.00000000000E+00 0. -1.
</event>
<event>
 7    1  0.2686828E-009  0.9482501E+02  0.7561462E-02  0.1291571E+00
          1   -1    0    0  501    0  0.00000000000E+00  0.00000000000E+00  0.69069411328E+02  0.69069411328E+02  0.00000000000E+00 0. -1.
         -1   -1    0    0    0  501 -0.00000000000E+00 -0.00000000000E+00 -0.35814541263E+03  0.35814541263E+03  0.00000000000E+00 0.  1.
         25    2    1    2    0    0 -0.16618370770E+02  0.67931284800E+00 -0.30805641962E+03  0.33290766527E+03  0.12510844981E+03 0.  0.
          5    1    3    3  502    0  0.13299120375E+02 -0.56298937220E+02 -0.10628098575E+03  0.12107665864E+03  0.41800000000E+01 0. -1.
         -5    1    3    3    0  502 -0.29917491145E+02  0.56978250068E+02 -0.20177543388E+03  0.21183100664E+03  0.41800000000E+01 0. -1.
        -11    1    1    2    0    0 -0.19781717255E+02  0.17555247612E+02  0.40413045872E+02  0.48298212523E+02  0.00000000000E+00 0. -1.
         11    1    1    2    0    0  0.36400088025E+02 -0.18234560460E+02 -0.21432627553E+02  0.46008946165E+02  0.00000000000E+00 0.  1.
</event>
<event>
 7    1  0.2686828E-009  0.1150464E+03  0.7561462E-02  0.1251500E+00
         -2   -1    0    0    0  501 -0.00000000000E+00  0.00000000000E+00  0.96371307943E+02  0.96371307943E+02  0.00000000000E+00 0.  1.
          2   -1    0    0  501    0  0.00000000000E+00 -0.00000000000E+00 -0.14892367263E+03  0.14892367263E+03  0.00000000000E+00 0. -1.
         25    2    1    2    0    0 -0.30261654299E+02  0.26113507316E+02  0.23097237929E+01  0.13134242383E+03  0.12509122467E+03 0.  0.
          5    1    3    3  502    0  0.44320380640E+02  0.33222840831E+02  0.78598139462E+01  0.56100823240E+02  0.41800000000E+01 0.  1.
         -5    1    3    3    0  502 -0.74582034940E+02 -0.71093335150E+01 -0.55500901533E+01  0.75241600591E+02  0.41800000000E+01 0.  1.
        -11    1    1    2    0    0 -0.11374163959E+02 -0.50156094921E+02 -0.23463998312E+02  0.56529325843E+02  0.00000000000E+00 0.  1.
         11    1    1    2    0    0  0.41635818258E+02  0.24042587605E+02 -0.31398090171E+02  0.57423230901E+02  0.00000000000E+00 0. -1.
</event>
<event>
 7    1  0.2708228E-009  0.7508224E+02  0.7561462E-02  0.1343617E+00
          1   -1    0    0  501    0  0.00000000000E+00  0.00000000000E+00  0.37515287199E+03  0.37515287199E+03  0.00000000000E+00 0. -1.
         -1   -1    0    0    0  501 -0.00000000000E+00 -0.00000000000E+00 -0.35507819005E+02  0.35507819005E+02  0.00000000000E+00 0.  1.
         25    2    1    2    0    0  0.35715279688E+02  0.84001775889E+01  0.22241368305E+03  0.25780585037E+03  0.12509942404E+03 0.  0.
          5    1    3    3  502    0  0.56165671075E+02  0.17066485881E+02  0.22720492064E+03  0.23470278207E+03  0.41800000000E+01 0. -1.
         -5    1    3    3    0  502 -0.20450391387E+02 -0.86663082923E+01 -0.47912375963E+01  0.23103068303E+02  0.41800000000E+01 0. -1.
        -11    1    1    2    0    0  0.11817577734E+02  0.12131560851E+02 -0.69536675336E+01  0.18308014757E+02  0.00000000000E+00 0.  1.
         11    1    1    2    0    0 -0.47532857422E+02 -0.20531738440E+02  0.12418503747E+03  0.13454682586E+03  0.00000000000E+00 0. -1.
</event>
<event>
 7    1  0.2686828E-009  0.1505702E+03  0.7561462E-02  0.1199774E+00
          2   -1    0    0  501    0  0.00000000000E+00  0.00000000000E+00  0.48629517520E+03  0.48629517520E+03  0.00000000000E+00 0.  1.
         -2   -1    0    0    0  501 -0.00000000000E+00 -0.00000000000E+00 -0.48519757985E+02  0.48519757985E+02  0.00000000000E+00 0. -1.
         25    2    1    2    0    0  0.37846801083E+02  0.99977218127E+02  0.22310996412E+03  0.27722388353E+03  0.12508877254E+03 0.  0.
          5    1    3    3  502    0  0.19103978283E+02  0.12714367992E+03  0.15503195869E+03  0.20145187501E+03  0.41800000000E+01 0.  1.
         -5    1    3    3    0  502  0.18742822800E+02 -0.27166461790E+02  0.68078005424E+02  0.75772008521E+02  0.41800000000E+01 0.  1.
        -11    1    1    2    0    0 -0.47413389797E+02 -0.96306871885E+01  0.50323973515E+02  0.69808896124E+02  0.00000000000E+00 0. -1.
         11    1    1    2    0    0  0.95665887140E+01 -0.90346530938E+02  0.16434147959E+03  0.18778215353E+03  0.00000000000E+00 0.  1.
</event>
<event>
 7    1  0.2686828E-009  0.9859268E+02  0.7561462E-02  0.1283283E+00
          1   -1    0    0  501    0  0.00000000000E+00  0.00000000000E+00  0.34698384122E+03  0.34698384122E+03  0.00000000000E+00 0. -1.
         -1   -1    0    0    0  501 -0.00000000000E+00 -0.00000000000E+00 -0.36521693867E+02  0.36521693867E+02  0.00000000000E+00 0.  1.
         25    2    1    2    0    0 -0.11850047338E+02 -0.24266476343E+02  0.20590135700E+03  0.24242997105E+03  0.12509051344E+03 0.  0.
          5    1    3    3  502    0  0.54130911378E+02 -0.18609378516E+02  0.12679165634E+03  0.13917636672E+03  0.41800000000E+01 0.  1.
         -5    1    3    3    0  502 -0.65980958716E+02 -0.56570978271E+01  0.79109700662E+02  0.10325360433E+03  0.41800000000E+01 0.  1.
        -11    1    1    2    0    0 -0.23925092871E+02 -0.80343486330E+01 -0.75999486216E+00  0.25249523144E+02  0.00000000000E+00 0.  1.
         11    1    1    2    0    0  0.35775140209E+02  0.32300824976E+02  0.10532078521E+03  0.11582604089E+03  0.00000000000E+00 0. -1.
</event>
<event>
 7    1  0.2686828E-009  0.1536275E+03  0.7561462E-02  0.1196085E+00
         -1   -1    0    0    0  501 -0.00000000000E+00  0.00000000000E+00  0.54149534685E+02  0.54149534685E+02  0.00000000000E+00 0.  1.
          1   -1    0    0  501    0  0.00000000000E+00 -0.00000000000E+00 -0.53761471843E+03  0.53761471843E+03  0.00000000000E+00 0. -1.
         25    2    1    2    0    0 -0.12326871908E+03 -0.34716825029E+02 -0.30099264439E+03  0.35020701756E+03  0.12509175882E+03 0.  0.
          5    1    3    3  502    0 -0.12624590020E+02  0.41304200093E+02 -0.56347256869E+02  0.71118935420E+02  0.41800000000E+01 0.  1.
         -5    1    3    3    0  502 -0.11064412906E+03 -0.76021025123E+02 -0.24464538752E+03  0.27908808214E+03  0.41800000000E+01 0.  1.
        -11    1    1    2    0    0  0.56643449011E+02  0.58518736157E+01 -0.14797623882E+02  0.58836165862E+02  0.00000000000E+00 0.  1.
         11    1    1    2    0    0  0.66625270069E+02  0.28864951414E+02 -0.16767491547E+03  0.18272106969E+03  0.00000000000E+00 0. -1.
</event>
<event>
 7    1  0.2686828E-009  0.1754669E+03  0.7561462E-02  0.1172264E+00
         -1   -1    0    0    0  501 -0.00000000000E+00  0.00000000000E+00  0.13071651640E+03  0.13071651640E+03  0.00000000000E+00 0.  1.
          1   -1    0    0  501    0  0.00000000000E+00 -0.00000000000E+00 -0.25135430421E+03  0.25135430421E+03  0.00000000000E+00 0. -1.
         25    2    1    2    0    0  0.14613394256E+02  0.13927216457E+03 -0.10423916149E+03  0.21476151579E+03  0.12508564570E+03 0.  0.
          5    1    3    3  502    0  0.66526875620E+02  0.10708559211E+03 -0.76719059281E+02  0.14763615978E+03  0.41800000000E+01 0. -1.
         -5    1    3    3    0  502 -0.51913481363E+02  0.32186572467E+02 -0.27520102212E+02  0.67125356015E+02  0.41800000000E+01 0. -1.
        -11    1    1    2    0    0 -0.36429496895E+02 -0.13685688941E+03 -0.31218538710E+01  0.14165684732E+03  0.00000000000E+00 0.  1.
         11    1    1    2    0    0  0.21816102638E+02 -0.24152751658E+01 -0.13276772445E+02  0.25652457485E+02  0.00000000000E+00 0. -1.
</event>
<event>
 7    1  0.2686828E-009  0.6211573E+02  0.7561462E-02  0.1389162E+00
          1   -1    0    0  501    0  0.00000000000E+00  0.00000000000E+00  0.79099497821E+02  0.79099497821E+02  0.00000000000E+00 0. -1.
         -1   -1    0    0    0  501 -0.00000000000E+00 -0.00000000000E+00 -0.20155336705E+03  0.20155336705E+03  0.00000000000E+00 0.  1.
         25    2    1    2    0    0  0.18330002372E+02  0.30557601912E+02 -0.12702336048E+03  0.18180912321E+03  0.12509942908E+03 0.  0.
          5    1    3    3  502    0 -0.18397990353E+02  0.27563332134E+02 -0.13890619411E+03  0.14286576388E+03  0.41800000000E+01 0. -1.
         -5    1    3    3    0  502  0.36727992724E+02  0.29942697783E+01  0.11882833633E+02  0.38943359334E+02  0.41800000000E+01 0. -1.
        -11    1    1    2    0    0 -0.31202099461E+02 -0.19675059386E+02  0.43134374280E+02  0.56756085287E+02  0.00000000000E+00 0. -1.
         11    1    1    2    0    0  0.12872097089E+02 -0.10882542526E+02 -0.38564883037E+02  0.42087656373E+02  0.00000000000E+00 0.  1.
</event>
<event>
 7    1  0.2686828E-009  0.6537444E+02  0.7561462E-02  0.1376569E+00
         -3   -1    0    0    0  501 -0.00000000000E+00  0.00000000000E+00  0.11488715045E+03  0.11488715045E+03  0.00000000000E+00 0.  1.
          3   -1    0    0  501    0  0.00000000000E+00 -0.00000000000E+00 -0.14544794005E+03  0.14544794005E+03  0.00000000000E+00 0. -1.
         25    2    1    2    0    0  0.16122729967E+02 -0.45526278604E+02  0.40457663465E+02  0.14006098927E+03  0.12509066199E+03 0.  0.
          5    1    3    3  502    0 -0.47286372059E+00 -0.11661283036E+02  0.82501105480E+02  0.83427297257E+02  0.41800000000E+01 0. -1.
         -5    1    3    3    0  502  0.16595593688E+02 -0.33864995567E+02 -0.42043442015E+02  0.56633692014E+02  0.41800000000E+01 0. -1.
        -11    1    1    2    0    0  0.24534092448E+02  0.10280729504E+02 -0.59602311064E+02  0.65269062928E+02  0.00000000000E+00 0. -1.
         11    1    1    2    0    0 -0.40656822415E+02  0.35245549100E+02 -0.11416142007E+02  0.55005038302E+02  0.00000000000E+00 0.  1.
</event>
<event>
 7    1  0.2686828E-009  0.1488005E+03  0.7561462E-02  0.1201955E+00
          3   -1    0    0  501    0  0.00000000000E+00  0.00000000000E+00  0.16186803237E+04  0.16186803237E+04  0.00000000000E+00 0. -1.
         -3   -1    0    0    0  501 -0.00000000000E+00 -0.00000000000E+00 -0.21098160253E+02  0.21098160253E+02  0.00000000000E+00 0.  1.
         25    2    1    2    0    0  0.94596692060E+02 -0.54808833574E+02  0.12937413409E+04  0.13043646928E+04  0.12509217581E+03 0.  0.
          5    1    3    3  502    0  0.77267004769E+02  0.25268747259E+02  0.76142838700E+03  0.76576717123E+03  0.41800000000E+01 0.  1.
         -5    1    3    3    0  502  0.17329687291E+02 -0.80077580833E+02  0.53231295389E+03  0.53859752161E+03  0.41800000000E+01 0.  1.
        -11    1    1    2    0    0  0.13648787242E+02  0.10405866288E+02  0.11854696546E+02  0.20859177275E+02  0.00000000000E+00 0.  1.
         11    1    1    2    0    0 -0.10824547930E+03  0.44402967286E+02  0.29198612597E+03  0.31455461378E+03  0.00000000000E+00 0. -1.
</event>
<event>
 7    1  0.2686828E-009  0.1527175E+03  0.7561462E-02  0.1197173E+00
          2   -1    0    0  501    0  0.00000000000E+00  0.00000000000E+00  0.64803488439E+03  0.64803488439E+03  0.00000000000E+00 0. -1.
         -2   -1    0    0    0  501 -0.00000000000E+00 -0.00000000000E+00 -0.46600671342E+02  0.46600671342E+02  0.00000000000E+00 0.  1.
         25    2    1    2    0    0 -0.82517147404E+02 -0.98151595233E+02  0.23402297006E+03  0.29471543715E+03  0.12509045974E+03 0.  0.
          5    1    3    3  502    0 -0.52696103022E+02 -0.92307888814E+01  0.13935947151E+02  0.55441588723E+02  0.41800000000E+01 0.  1.
         -5    1    3    3    0  502 -0.29821044382E+02 -0.88920806351E+02  0.22008702290E+03  0.23927384843E+03  0.41800000000E+01 0.  1.
        -11    1    1    2    0    0 -0.30778824602E+01  0.66594096014E+02  0.16000593890E+03  0.17333824583E+03  0.00000000000E+00 0.  1.
         11    1    1    2    0    0  0.85595029864E+02  0.31557499219E+02  0.20740530409E+03  0.22658187275E+03  0.00000000000E+00 0. -1.
</event>
<event>
 7    1  0.2686828E-009  0.1746536E+03  0.7561462E-02  0.1173080E+00
         -1   -1    0    0    0  501 -0.00000000000E+00  0.00000000000E+00  0.92273885360E+02  0.92273885360E+02  0.00000000000E+00 0.  1.
          1   -1    0    0  501    0  0.00000000000E+00 -0.00000000000E+00 -0.84633507323E+03  0.84633507323E+03  0.00000000000E+00 0. -1.
         25    2    1    2    0    0  0.15400306398E+02  0.14770790362E+03 -0.33089346786E+02  0.19697228364E+03  0.12509349073E+03 0.  0.
          5    1    3    3  502    0  0.61992110586E+02  0.11657271107E+03 -0.67213657724E+00  0.13209898906E+03  0.41800000000E+01 0.  1.
         -5    1    3    3    0  502 -0.46591804189E+02  0.31135192550E+02 -0.32417210209E+02  0.64873294585E+02  0.41800000000E+01 0.  1.
        -11    1    1    2    0    0  0.24017042718E+02 -0.67526821449E+02 -0.18742924798E+03  0.20066492706E+03  0.00000000000E+00 0. -1.
         11    1    1    2    0    0 -0.39417349116E+02 -0.80181082175E+02 -0.53354259310E+03  0.54097174788E+03  0.00000000000E+00 0.  1.
</event>
<event>
 7    1  0.2686828E-009  0.1021441E+03  0.7561462E-02  0.1275851E+00
          2   -1    0    0  501    0  0.00000000000E+00  0.00000000000E+00  0.36086796623E+03  0.36086796623E+03  0.00000000000E+00 0. -1.
         -2   -1    0    0    0  501 -0.00000000000E+00 -0.00000000000E+00 -0.62893152162E+02  0.62893152162E+02  0.00000000000E+00 0.  1.
         25    2    1    2    0    0  0.40448577764E+02 -0.84181687716E+02  0.87816834430E+02  0.17911841875E+03  0.12509583342E+03 0.  0.
          5    1    3    3  502    0  0.11451582225E+02 -0.39181549266E+02 -0.29204366918E+02  0.50365662762E+02  0.41800000000E+01 0.  1.
         -5    1    3    3    0  502  0.28996995538E+02 -0.45000138450E+02  0.11702120135E+03  0.12875275599E+03  0.41800000000E+01 0.  1.
        -11    1    1    2    0    0  0.61124797861E+01  0.53383629203E+02  0.44292783859E+02  0.69634940784E+02  0.00000000000E+00 0.  1.
         11    1    1    2    0    0 -0.46561057550E+02  0.30798058513E+02  0.16586519578E+03  0.17500775885E+03  0.00000000000E+00 0. -1.
</event>
<event>
 7    1  0.2686828E-009  0.1577336E+03  0.7561462E-02  0.1191279E+00
          3   -1    0    0  501    0  0.00000000000E+00  0.00000000000E+00  0.12649222105E+03  0.12649222105E+03  0.00000000000E+00 0. -1.
         -3   -1    0    0    0  501 -0.00000000000E+00 -0.00000000000E+00 -0.35162304573E+03  0.35162304573E+03  0.00000000000E+00 0.  1.
         25    2    1    2    0    0  0.32148611463E+02  0.14930043290E+03 -0.81113973149E+01  0.19758917134E+03  0.12510608850E+03 0.  0.
          5    1    3    3  502    0  0.29067375548E+02  0.78799969736E+02 -0.65453953066E+02  0.10656472176E+03  0.41800000000E+01 0. -1.
         -5    1    3    3    0  502  0.30812359145E+01  0.70500463167E+02  0.57342555751E+02  0.91024449582E+02  0.41800000000E+01 0. -1.
        -11    1    1    2    0    0 -0.42592348241E+02 -0.14114370185E+03 -0.22189364691E+03  0.26640653754E+03  0.00000000000E+00 0.  1.
         11    1    1    2    0    0  0.10443736779E+02 -0.81567310508E+01  0.48742195487E+01  0.14119557909E+02  0.00000000000E+00 0. -1.
</event>
<event>
 7    1  0.2686828E-009  0.8822839E+02  0.7561462E-02  0.1307199E+00
         -2   -1    0    0    0  501 -0.00000000000E+00  0.00000000000E+00  0.33216715091E+02  0.33216715091E+02  0.00000000000E+00 0.  1.
          2   -1    0    0  501    0  0.00000000000E+00 -0.00000000000E+00 -0.41685157891E+03  0.41685157891E+03  0.00000000000E+00 0. -1.
         25    2    1    2    0    0 -0.70137884849E+01  0.47405193360E+02 -0.24853754541E+03  0.28234246427E+03  0.12509960057E+03 0.  0.
          5    1    3    3  502    0 -0.58329702620E+02  0.33361564121E+01 -0.16304217856E+03  0.17324464937E+03  0.41800000000E+01 0. -1.
         -5    1    3    3    0  502  0.51315914135E+02  0.44069036948E+02 -0.85495366852E+02  0.10909781489E+03  0.41800000000E+01 0. -1.
        -11    1    1    2    0    0  0.89181893958E+01 -0.13664396798E+02  0.97366893141E+01  0.19001393653E+02  0.00000000000E+00 0.  1.
         11    1    1    2    0    0 -0.19044009109E+01 -0.33740796562E+02 -0.14483400772E+03  0.14872443608E+03  0.00000000000E+00 0. -1.
</event>
<event>
 7    1  0.2686828E-009  0.5551009E+02  0.7561462E-02  0.1417702E+00
          2   -1    0    0  501    0  0.00000000000E+00  0.00000000000E+00  0.16854446318E+03  0.16854446318E+03  0.00000000000E+00 0. -1.
         -2   -1    0    0    0  501 -0.00000000000E+00 -0.00000000000E+00 -0.78135526040E+02  0.78135526040E+02  0.00000000000E+00 0.  1.
         25    2    1    2    0    0  0.17599286078E+02 -0.27890354416E+02  0.29812584936E+02  0.13275590043E+03  0.12509089550E+03 0.  0.
          5    1    3    3  502    0  0.10007604025E+02 -0.81689746305E+01 -0.49106820176E+02  0.50949352033E+02  0.41800000000E+01 0.  1.
         -5    1    3    3    0  502  0.75916820533E+01 -0.19721379786E+02  0.78919405112E+02  0.81806548395E+02  0.41800000000E+01 0.  1.
        -11    1    1    2    0    0 -0.33442654657E+02 -0.99385228289E+01  0.63873681280E+02  0.72780715487E+02  0.00000000000E+00 0. -1.
         11    1    1    2    0    0  0.15843368578E+02  0.37828877245E+02 -0.32773290714E+01  0.41143373310E+02  0.00000000000E+00 0.  1.
</event>
<event>
 7    1  0.2686828E-009  0.4757790E+03  0.7561462E-02  0.1020302E+00
         -2   -1    0    0    0  501 -0.00000000000E+00  0.00000000000E+00  0.23806943188E+03  0.23806943188E+03  0.00000000000E+00 0.  1.
          2   -1    0    0  501    0  0.00000000000E+00 -0.00000000000E+00 -0.10782159113E+04  0.10782159113E+04  0.00000000000E+00 0. -1.
         25    2    1    2    0    0  0.47076165936E+03 -0.34881814144E+02 -0.23173375074E+03  0.54053721507E+03  0.12508664503E+03 0.  0.
          5    1    3    3  502    0  0.11781865706E+03 -0.69887876786E+01 -0.12213205362E+03  0.16989346669E+03  0.41800000000E+01 0. -1.
         -5    1    3    3    0  502  0.35294300231E+03 -0.27893026465E+02 -0.10960169712E+03  0.37064374838E+03  0.41800000000E+01 0. -1.
        -11    1    1    2    0    0 -0.10223921882E+03 -0.26914023728E+02 -0.10706337957E+03  0.15046524444E+03  0.00000000000E+00 0.  1.
         11    1    1    2    0    0 -0.36852244054E+03  0.61795837872E+02 -0.50134934912E+03  0.62528288367E+03  0.00000000000E+00 0. -1.
</event>
<event>
 7    1  0.2686828E-009  0.1786603E+03  0.7561462E-02  0.1169106E+00
         -1   -1    0    0    0  501 -0.00000000000E+00  0.00000000000E+00  0.41606631170E+03  0.41606631170E+03  0.00000000000E+00 0.  1.
          1   -1    0    0  501    0  0.00000000000E+00 -0.00000000000E+00 -0.97249535063E+02  0.97249535063E+02  0.00000000000E+00 0. -1.
         25    2    1    2    0    0  0.12409584307E+03 -0.11524970870E+03  0.16009857568E+03  0.26450138156E+03  0.12508858176E+03 0.  0.
          5    1    3    3  502    0  0.66065422564E+02 -0.28493911428E+02 -0.14950031921E+01  0.72085022589E+02  0.41800000000E+01 0.  1.
         -5    1    3    3    0  502  0.58030420510E+02 -0.86755797274E+02  0.16159357887E+03  0.19241635897E+03  0.41800000000E+01 0.  1.
        -11    1    1    2    0    0 -0.50151377915E+02  0.83973839637E+01  0.10906251777E+02  0.52005990924E+02  0.00000000000E+00 0. -1.
         11    1    1    2    0    0 -0.73944465159E+02  0.10685232474E+03  0.14781194918E+03  0.19680847428E+03  0.00000000000E+00 0.  1.
</event>
<event>
 7    1  0.2686828E-009  0.7622944E+02  0.7561462E-02  0.1340106E+00
         -2   -1    0    0    0  501 -0.00000000000E+00  0.00000000000E+00  0.25855611254E+02  0.25855611254E+02  0.00000000000E+00 0.  1.
          2   -1    0    0  501    0  0.00000000000E+00 -0.00000000000E+00 -0.45590871191E+03  0.45590871191E+03  0.00000000000E+00 0. -1.
         25    2    1    2    0    0 -0.24160307881E+01 -0.13281248994E+02 -0.23736605852E+03  0.26864952795E+03  0.12509074447E+03 0.  0.
          5    1    3    3  502    0 -0.13476820746E+02  0.26640413664E+02 -0.22235645428E+03  0.22439073398E+03  0.41800000000E+01 0.  1.
         -5    1    3    3    0  502  0.11060789958E+02 -0.39921662658E+02 -0.15009604236E+02  0.44258793965E+02  0.41800000000E+01 0.  1.
        -11    1    1    2    0    0 -0.33849500444E+02  0.25530565863E+02 -0.14954575254E+03  0.15543979728E+03  0.00000000000E+00 0. -1.
         11    1    1    2    0    0  0.36265531232E+02 -0.12249316869E+02 -0.43141289595E+02  0.57674997939E+02  0.00000000000E+00 0.  1.
</event>
<event>
 7    1  0.2686828E-009  0.1162089E+03  0.7561462E-02  0.1249486E+00
          1   -1    0    0  501    0  0.00000000000E+00  0.00000000000E+00  0.23369397760E+03  0.23369397760E+03  0.00000000000E+00 0. -1.
         -1   -1    0    0    0  501 -0.00000000000E+00 -0.00000000000E+00 -0.76179620039E+02  0.76179620039E+02  0.00000000000E+00 0.  1.
         25    2    1    2    0    0  0.60771835946E+02  0.13852796551E+02  0.28454872011E+02  0.14262378448E+03  0.12508696231E+03 0.  0.
          5    1    3    3  502    0  0.56442610406E+02  0.64721940702E+02  0.45540098093E+01  0.86098253658E+02  0.41800000000E+01 0. -1.
         -5    1    3    3    0  502  0.43292255397E+01 -0.50869144151E+02  0.23900862202E+02  0.56525530819E+02  0.41800000000E+01 0. -1.
        -11    1    1    2    0    0 -0.71239181153E+02 -0.28906868953E+02  0.65183827723E+02  0.10079463974E+03  0.00000000000E+00 0.  1.
         11    1    1    2    0    0  0.10467345207E+02  0.15054072402E+02  0.63875657830E+02  0.66455173424E+02  0.00000000000E+00 0. -1.
</event>
<event>
 7    1  0.2686828E-009  0.1259427E+03  0.7561462E-02  0.1233603E+00
          1   -1    0    0  501    0  0.00000000000E+00  0.00000000000E+00  0.16293307245E+03  0.16293307245E+03  0.00000000000E+00 0.  1.
         -1   -1    0    0    0  501 -0.00000000000E+00 -0.00000000000E+00 -0.12155448509E+03  0.12155448509E+03  0.00000000000E+00 0. -1.
         25    2    1    2    0    0  0.56058015151E+02 -0.56770859689E+02 -0.18104587852E+02  0.14946905485E+03  0.12509112952E+03 0.  0.
          5    1    3    3  502    0  0.57446052618E+02 -0.84818169613E+02 -0.43504339120E+02  0.11137446197E+03  0.41800000000E+01 0. -1.
         -5    1    3    3    0  502 -0.13880374674E+01  0.28047309924E+02  0.25399751268E+02  0.38094592877E+02  0.41800000000E+01 0. -1.
        -11    1    1    2    0    0 -0.52362844578E+02 -0.10659316734E+02  0.22060364303E+02  0.57811315491E+02  0.00000000000E+00 0.  1.
         11    1    1    2    0    0 -0.36951705722E+01  0.67430176423E+02  0.37422810910E+02  0.77207187194E+02  0.00000000000E+00 0. -1.
</event>
<event>
 7    1  0.2686828E-009  0.8664555E+02  0.7561462E-02  0.1311184E+00
         -2   -1    0    0    0  501 -0.00000000000E+00  0.00000000000E+00  0.22805603558E+02  0.22805603558E+02  0.00000000000E+00 0. -1.
          2   -1    0    0  501    0  0.00000000000E+00 -0.00000000000E+00 -0.70663928546E+03  0.70663928546E+03  0.00000000000E+00 0.  1.
         25    2    1    2    0    0 -0.12302986244E+02 -0.23388060043E+02 -0.53904112459E+03  0.55399890192E+03  0.12510429453E+03 0.  0.
          5    1    3    3  502    0  0.48344100266E+02 -0.30008927751E+02 -0.15597004806E+03  0.16607774104E+03  0.41800000000E+01 0.  1.
         -5    1    3    3    0  502 -0.60647086510E+02  0.66208677081E+01 -0.38307107652E+03  0.38792116088E+03  0.41800000000E+01 0.  1.
        -11    1    1    2    0    0 -0.12292881331E+02  0.27524968823E+02 -0.16969470621E+01  0.30193020211E+02  0.00000000000E+00 0. -1.
         11    1    1    2    0    0  0.24595867575E+02 -0.41369087801E+01 -0.14309561025E+03  0.14525296689E+03  0.00000000000E+00 0.  1.
</event>
<event>
 7    1  0.2686828E-009  0.8213235E+02  0.7561462E-02  0.1323107E+00
          2   -1    0    0  501    0  0.00000000000E+00  0.00000000000E+00  0.94793011672E+02  0.94793011672E+02  0.00000000000E+00 0. -1.
         -2   -1    0    0    0  501 -0.00000000000E+00 -0.00000000000E+00 -0.12333743161E+03  0.12333743161E+03  0.00000000000E+00 0.  1.
         25    2    1    2    0    0  0.43364903930E+01  0.16275528016E+02 -0.22162725015E+02  0.12815336793E+03  0.12509357046E+03 0.  0.
          5    1    3    3  502    0  0.53727213167E+02  0.41391843144E+02 -0.25272940514E+02  0.72498910583E+02  0.41800000000E+01 0. -1.
         -5    1    3    3    0  502 -0.49390722774E+02 -0.25116315128E+02  0.31102154997E+01  0.55654457343E+02  0.41800000000E+01 0. -1.
        -11    1    1    2    0    0 -0.18845574586E+02 -0.18091241342E+02  0.36378059542E+02  0.44786291550E+02  0.00000000000E+00 0. -1.
         11    1    1    2    0    0  0.14509084193E+02  0.18157133262E+01 -0.42759754467E+02  0.45190783807E+02  0.00000000000E+00 0.  1.
</event>
<event>
 7    1  0.2686828E-009  0.9730687E+02  0.7561462E-02  0.1286063E+00
         -1   -1    0    0    0  501 -0.00000000000E+00  0.00000000000E+00  0.93319353842E+03  0.93319353842E+03  0.00000000000E+00 0.  1.
          1   -1    0    0  501    0  0.00000000000E+00 -0.00000000000E+00 -0.19734450482E+02  0.19734450482E+02  0.00000000000E+00 0. -1.
         25    2    1    2    0    0 -0.56931414399E+02 -0.17085499079E+02  0.70080059228E+03  0.71435419455E+03  0.12508934770E+03 0.  0.
          5    1    3    3  502    0 -0.91029860945E+02  0.18807222396E+01  0.58566722594E+03  0.59271708651E+03  0.41800000000E+01 0. -1.
         -5    1    3    3    0  502  0.34098446546E+02 -0.18966221319E+02  0.11513336635E+03  0.12163710805E+03  0.41800000000E+01 0. -1.
        -11    1    1    2    0    0  0.97853448794E+01 -0.62611605848E+01 -0.64158229578E+01  0.13270941583E+02  0.00000000000E+00 0. -1.
         11    1    1    2    0    0  0.47146069519E+02  0.23346659664E+02  0.21907431861E+03  0.22530285276E+03  0.00000000000E+00 0.  1.
</event>
<event>
 7    1  0.2686828E-009  0.8535597E+02  0.7561462E-02  0.1314504E+00
         -4   -1    0    0    0  501 -0.00000000000E+00  0.00000000000E+00  0.64796131829E+02  0.64796131829E+02  0.00000000000E+00 0. -1.
          4   -1    0    0  501    0  0.00000000000E+00 -0.00000000000E+00 -0.21458256509E+03  0.21458256509E+03  0.00000000000E+00 0.  1.
         25    2    1    2    0    0 -0.15238486942E+02  0.23657902673E+02 -0.13049749342E+03  0.18294381102E+03  0.12508770667E+03 0.  0.
          5    1    3    3  502    0  0.12488462731E+02 -0.36620149301E+02 -0.10458627877E+03  0.11159193135E+03  0.41800000000E+01 0.  1.
         -5    1    3    3    0  502 -0.27726949673E+02  0.60278051975E+02 -0.25911214647E+02  0.71351879670E+02  0.41800000000E+01 0.  1.
        -11    1    1    2    0    0 -0.43092492204E+01 -0.39757781861E+02 -0.45099009826E+02  0.60275795595E+02  0.00000000000E+00 0.  1.
         11    1    1    2    0    0  0.19547736162E+02  0.16099879187E+02  0.25810069982E+02  0.36159090301E+02  0.00000000000E+00 0. -1.
</event>
<event>
 7    1  0.2686828E-009  0.1102879E+03  0.7561462E-02  0.1260038E+00
          1   -1    0    0  501    0  0.00000000000E+00  0.00000000000E+00  0.52071504953E+02  0.52071504953E+02  0.00000000000E+00 0. -1.
         -1   -1    0    0    0  501 -0.00000000000E+00 -0.00000000000E+00 -0.31289994298E+03  0.31289994298E+03  0.00000000000E+00 0.  1.
         25    2    1    2    0    0  0.66194884275E+01  0.60196617313E+02 -0.18166958408E+03  0.22873237776E+03  0.12508881842E+03 0.  0.
          5    1    3    3  502    0  0.53370365694E+02  0.71568096674E+02 -0.10248212692E+03  0.13597958352E+03  0.41800000000E+01 0. -1.
         -5    1    3    3    0  502 -0.46750877266E+02 -0.11371479361E+02 -0.79187457163E+02  0.92752794244E+02  0.41800000000E+01 0. -1.
        -11    1    1    2    0    0  0.24069574638E+02 -0.38188899820E+02 -0.86682642563E+02  0.97732374444E+02  0.00000000000E+00 0.  1.
         11    1    1    2    0    0 -0.30689063066E+02 -0.22007717493E+02  0.75237886126E+01  0.38506695732E+02  0.00000000000E+00 0. -1.
</event>
<event>
 7    1  0.2686828E-009  0.2824448E+03  0.7561462E-02  0.1094361E+00
          2   -1    0    0  501    0  0.00000000000E+00  0.00000000000E+00  0.13283760904E+04  0.13283760904E+04  0.00000000000E+00 0. -1.
         -2   -1    0    0    0  501 -0.00000000000E+00 -0.00000000000E+00 -0.65231056890E+02  0.65231056890E+02  0.00000000000E+00 0.  1.
         25    2    1    2    0    0  0.22272110901E+03  0.15104414862E+03  0.53032374858E+03  0.60770847434E+03  0.12508910522E+03 0.  0.
          5    1    3    3  502    0  0.19163400932E+02 -0.20977245664E+02  0.71980538378E+02  0.77498071435E+02  0.41800000000E+01 0. -1.
         -5    1    3    3    0  502  0.20355770807E+03  0.17202139429E+03  0.45834321021E+03  0.53021040291E+03  0.41800000000E+01 0. -1.
        -11    1    1    2    0    0 -0.97129963722E+02 -0.55891398292E+02  0.18914229030E+03  0.21984741126E+03  0.00000000000E+00 0. -1.
         11    1    1    2    0    0 -0.12559114528E+03 -0.95152750330E+02  0.54367899466E+03  0.56605126173E+03  0.00000000000E+00 0.  1.
</event>
<event>
 7    1  0.2686828E-009  0.1089362E+03  0.7561462E-02  0.1262553E+00
          4   -1    0    0  501    0  0.00000000000E+00  0.00000000000E+00  0.21683017268E+03  0.21683017268E+03  0.00000000000E+00 0. -1.
         -4   -1    0    0    0  501 -0.00000000000E+00 -0.00000000000E+00 -0.68816117616E+02  0.68816117616E+02  0.00000000000E+00 0.  1.
         25    2    1    2    0    0  0.16230459830E+02 -0.33194083835E+02  0.12983793270E+03  0.18403820804E+03  0.12508756222E+03 0.  0.
          5    1    3    3  502    0  0.22681317007E+01  0.47771882658E+02  0.43554380615E+02  0.64820935390E+02  0.41800000000E+01 0.  1.
         -5    1    3    3    0  502  0.13962328129E+02 -0.80965966493E+02  0.86283552086E+02  0.11921727265E+03  0.41800000000E+01 0.  1.
        -11    1    1    2    0    0 -0.59138107323E+01 -0.26431789849E+02  0.29497389654E+02  0.40046331522E+02  0.00000000000E+00 0. -1.
         11    1    1    2    0    0 -0.10316649098E+02  0.59625873684E+02 -0.11321267287E+02  0.61561750740E+02  0.00000000000E+00 0.  1.
</event>
<event>
 7    1  0.2686828E-009  0.2017773E+03  0.7561462E-02  0.1148248E+00
          1   -1    0    0  501    0  0.00000000000E+00  0.00000000000E+00  0.32941736714E+03  0.32941736714E+03  0.00000000000E+00 0. -1.
         -1   -1    0    0    0  501 -0.00000000000E+00 -0.00000000000E+00 -0.14641056924E+03  0.14641056924E+03  0.00000000000E+00 0.  1.
         25    2    1    2    0    0 -0.80281753777E+02  0.16087124840E+03  0.27488258213E+02  0.22074446667E+03  0.12509115345E+03 0.  0.
          5    1    3    3  502    0 -0.84171236669E+02  0.36957979925E+02 -0.61248529323E+01  0.92226219623E+02  0.41800000000E+01 0. -1.
         -5    1    3    3    0  502  0.38894828918E+01  0.12391326848E+03  0.33613111146E+02  0.12851824704E+03  0.41800000000E+01 0. -1.
        -11    1    1    2    0    0  0.32914476953E+02 -0.12154398684E+03  0.55443246363E+02  0.13758727084E+03  0.00000000000E+00 0.  1.
         11    1    1    2    0    0  0.47367276825E+02 -0.39327261564E+02  0.10007529332E+03  0.11749619887E+03  0.00000000000E+00 0. -1.
</event>
<event>
 7    1  0.2686828E-009  0.7132539E+02  0.7561462E-02  0.1355643E+00
          1   -1    0    0  501    0  0.00000000000E+00  0.00000000000E+00  0.45610521516E+03  0.45610521516E+03  0.00000000000E+00 0. -1.
         -1   -1    0    0    0  501 -0.00000000000E+00 -0.00000000000E+00 -0.38576451088E+02  0.38576451088E+02  0.00000000000E+00 0.  1.
         25    2    1    2    0    0 -0.66657414207E+01 -0.48614102489E+02  0.34212302572E+03  0.36756951096E+03  0.12510562572E+03 0.  0.
          5    1    3    3  502    0 -0.21677861394E+02 -0.68626662328E+01  0.31404963824E+03  0.31489946576E+03  0.41800000000E+01 0. -1.
         -5    1    3    3    0  502  0.15012119974E+02 -0.41751436257E+02  0.28073387487E+02  0.52670045193E+02  0.41800000000E+01 0. -1.
        -11    1    1    2    0    0 -0.17850317248E+02  0.47139978575E+02  0.86536899602E+02  0.10014712377E+03  0.00000000000E+00 0. -1.
         11    1    1    2    0    0  0.24516058669E+02  0.14741239147E+01 -0.11131161258E+02  0.26965031521E+02  0.00000000000E+00 0.  1.
</event>
<event>
 7    1  0.3876934E-009  0.9971750E+02  0.7561462E-02  0.1280891E+00
          1   -1    0    0  501    0  0.00000000000E+00  0.00000000000E+00  0.21161687721E+03  0.21161687721E+03  0.00000000000E+00 0. -1.
         -1   -1    0    0    0  501 -0.00000000000E+00 -0.00000000000E+00 -0.96545453603E+02  0.96545453603E+02  0.00000000000E+00 0.  1.
         25    2    1    2    0    0 -0.39782224461E+02  0.95342122222E+01  0.15251478633E+03  0.20144816791E+03  0.12508827970E+03 0.  0.
          5    1    3    3  502    0 -0.82074373784E+02 -0.13294813023E+02  0.10061468423E+03  0.13058997652E+03  0.41800000000E+01 0.  1.
         -5    1    3    3    0  502  0.42292149324E+02  0.22829025245E+02  0.51900102106E+02  0.70858191387E+02  0.41800000000E+01 0.  1.
        -11    1    1    2    0    0 -0.17134709352E+00 -0.25074193839E+02 -0.54955647708E+02  0.60405858752E+02  0.00000000000E+00 0.  1.
         11    1    1    2    0    0  0.39953571554E+02  0.15539981617E+02  0.17512284985E+02  0.46308304158E+02  0.00000000000E+00 0. -1.
</event>
<event>
 7    1  0.2686828E-009  0.1546268E+03  0.7561462E-02  0.1194900E+00
          2   -1    0    0  501    0  0.00000000000E+00  0.00000000000E+00  0.12047805859E+04  0.12047805859E+04  0.00000000000E+00 0. -1.
         -2   -1    0    0    0  501 -0.00000000000E+00 -0.00000000000E+00 -0.26440828459E+02  0.26440828459E+02  0.00000000000E+00 0.  1.
         25    2    1    2    0    0 -0.87510906235E+02  0.11068594657E+03  0.59407091156E+03  0.62327931131E+03  0.12508922602E+03 0.  0.
          5    1    3    3  502    0 -0.45150735959E+02  0.29031245788E+02  0.57142792535E+02  0.78512249543E+02  0.41800000000E+01 0.  1.
         -5    1    3    3    0  502 -0.42360170275E+02  0.81654700784E+02  0.53692811902E+03  0.54476706176E+03  0.41800000000E+01 0.  1.
        -11    1    1    2    0    0  0.43858559725E+02 -0.11134516903E+03  0.35717547957E+03  0.37669038100E+03  0.00000000000E+00 0.  1.
         11    1    1    2    0    0  0.43652346509E+02  0.65922246051E+00  0.22709336628E+03  0.23125172202E+03  0.00000000000E+00 0. -1.
</event>
<event>
 7    1  0.2686828E-009  0.6441849E+03  0.7561462E-02  0.9817752E-01
          1   -1    0    0  501    0  0.00000000000E+00  0.00000000000E+00  0.92230623171E+03  0.92230623171E+03  0.00000000000E+00 0. -1.
         -1   -1    0    0    0  501 -0.00000000000E+00 -0.00000000000E+00 -0.46638476811E+03  0.46638476811E+03  0.00000000000E+00 0.  1.
         25    2    1    2    0    0  0.49486863647E+03 -0.40721893700E+03  0.32034017956E+03  0.72731650924E+03  0.12509693826E+03 0.  0.
          5    1    3    3  502    0  0.27308363800E+03 -0.18390394864E+03  0.22365824558E+03  0.39803997147E+03  0.41800000000E+01 0. -1.
         -5    1    3    3    0  502  0.22178499847E+03 -0.22331498836E+03  0.96681933984E+02  0.32927653777E+03  0.41800000000E+01 0. -1.
        -11    1    1    2    0    0 -0.44837561212E+03  0.34043121748E+03  0.13917930251E+03  0.57991808182E+03  0.00000000000E+00 0.  1.
         11    1    1    2    0    0 -0.46493024353E+02  0.66787719512E+02 -0.35980184703E+01  0.81456408760E+02  0.00000000000E+00 0. -1.
</event>
<event>
 7    1  0.2686828E-009  0.1194594E+03  0.7561462E-02  0.1243992E+00
         -1   -1    0    0    0  501 -0.00000000000E+00  0.00000000000E+00  0.18584178912E+03  0.18584178912E+03  0.00000000000E+00 0.  1.
          1   -1    0    0  501    0  0.00000000000E+00 -0.00000000000E+00 -0.81597697015E+02  0.81597697015E+02  0.00000000000E+00 0. -1.
         25    2    1    2    0    0 -0.14091747307E+02  0.62163696517E+02  0.53668074564E+02  0.15029848872E+03  0.12508585442E+03 0.  0.
          5    1    3    3  502    0  0.13078875843E+02  0.91975956262E+02  0.14871749258E+02  0.94176827562E+02  0.41800000000E+01 0. -1.
         -5    1    3    3    0  502 -0.27170623150E+02 -0.29812259745E+02  0.38796325306E+02  0.56121661154E+02  0.41800000000E+01 0. -1.
        -11    1    1    2    0    0  0.49585081685E+02 -0.36635430486E+02  0.25301833107E+02  0.66640962262E+02  0.00000000000E+00 0.  1.
         11    1    1    2    0    0 -0.35493334379E+02 -0.25528266030E+02  0.25274184431E+02  0.50500035153E+02  0.00000000000E+00 0. -1.
</event>
<event>
 7    1  0.2686828E-009  0.1084594E+03  0.7561462E-02  0.1263450E+00
          1   -1    0    0  501    0  0.00000000000E+00  0.00000000000E+00  0.50484415016E+02  0.50484415016E+02  0.00000000000E+00 0. -1.
         -1   -1    0    0    0  501 -0.00000000000E+00 -0.00000000000E+00 -0.30462006632E+03  0.30462006632E+03  0.00000000000E+00 0.  1.
         25    2    1    2    0    0  0.40866189377E+02 -0.21323876590E+01 -0.20711741181E+03  0.24539815439E+03  0.12509212362E+03 0.  0.
          5    1    3    3  502    0 -0.11762760903E+02  0.53425639916E+02 -0.81515773577E+02  0.98259632028E+02  0.41800000000E+01 0. -1.
         -5    1    3    3    0  502  0.52628950280E+02 -0.55558027575E+02 -0.12560163824E+03  0.14713852236E+03  0.41800000000E+01 0. -1.
        -11    1    1    2    0    0  0.82107079450E+01  0.28528872183E+02  0.86679515979E+01  0.30926455631E+02  0.00000000000E+00 0.  1.
         11    1    1    2    0    0 -0.49076897322E+02 -0.26396484524E+02 -0.55686191084E+02  0.78779871309E+02  0.00000000000E+00 0. -1.
</event>
<event>
 7    1  0.2686828E-009  0.9081993E+02  0.7561462E-02  0.1300878E+00
          1   -1    0    0  501    0  0.00000000000E+00  0.00000000000E+00  0.24978456396E+02  0.24978456396E+02  0.00000000000E+00 0. -1.
         -1   -1    0    0    0  501 -0.00000000000E+00 -0.00000000000E+00 -0.56503071833E+03  0.56503071833E+03  0.00000000000E+00 0.  1.
         25    2    1    2    0    0 -0.13410166081E+02  0.34123316538E+02 -0.22715159101E+03  0.26189610765E+03  0.12508993812E+03 0.  0.
          5    1    3    3  502    0  0.36108035554E+02  0.34848482411E+02 -0.30083126787E+02  0.58657257651E+02  0.41800000000E+01 0. -1.
         -5    1    3    3    0  502 -0.49518201634E+02 -0.72516587291E+00 -0.19706846423E+03  0.20323885000E+03  0.41800000000E+01 0. -1.
        -11    1    1    2    0    0  0.28604846861E+02 -0.51248064561E+02 -0.28944906248E+03  0.29533939993E+03  0.00000000000E+00 0.  1.
         11    1    1    2    0    0 -0.15194680780E+02  0.17124748023E+02 -0.23451608446E+02  0.32773667136E+02  0.00000000000E+00 0. -1.
</event>
<event>
 7    1  0.2686828E-009  0.1300369E+03  0.7561462E-02  0.1227401E+00
          2   -1    0    0  501    0  0.00000000000E+00  0.00000000000E+00  0.27683986618E+03  0.27683986618E+03  0.00000000000E+00 0.  1.
         -2   -1    0    0    0  501 -0.00000000000E+00 -0.00000000000E+00 -0.14598519185E+03  0.14598519185E+03  0.00000000000E+00 0. -1.
         25    2    1    2    0    0  0.94443310284E+02 -0.74414507567E+02  0.19310157674E+03  0.25960524496E+03  0.12509838720E+03 0.  0.
          5    1    3    3  502    0  0.61736286978E+01 -0.53299180566E+01  0.13114238452E+03  0.13146223463E+03  0.41800000000E+01 0. -1.
         -5    1    3    3    0  502  0.88269681586E+02 -0.69084589510E+02  0.61959192219E+02  0.12814301033E+03  0.41800000000E+01 0. -1.
        -11    1    1    2    0    0 -0.71459114025E+02  0.12299604597E+02 -0.64363075760E+02  0.96955096678E+02  0.00000000000E+00 0. -1.
         11    1    1    2    0    0 -0.22984196259E+02  0.62114902969E+02  0.21161733569E+01  0.66264716390E+02  0.00000000000E+00 0.  1.
</event>
<event>
 7    1  0.2686828E-009  0.1253259E+03  0.7561462E-02  0.1234561E+00
         -2   -1    0    0    0  501 -0.00000000000E+00  0.00000000000E+00  0.49100420435E+02  0.49100420435E+02  0.00000000000E+00 0.  1.
          2   -1    0    0  501    0  0.00000000000E+00 -0.00000000000E+00 -0.48129904894E+03  0.48129904894E+03  0.00000000000E+00 0. -1.
         25    2    1    2    0    0  0.99565026827E+02  0.23220466121E+02 -0.29382360409E+03  0.33531666468E+03  0.12511023409E+03 0.  0.
          5    1    3    3  502    0  0.11365377827E+03  0.13693078447E+02 -0.14180822658E+03  0.18229571371E+03  0.41800000000E+01 0. -1.
         -5    1    3    3    0  502 -0.14088751443E+02  0.95273876738E+01 -0.15201537752E+03  0.15302095097E+03  0.41800000000E+01 0. -1.
        -11    1    1    2    0    0 -0.12830246698E+02 -0.28946242168E+02  0.10523023655E-01  0.31662284768E+02  0.00000000000E+00 0.  1.
         11    1    1    2    0    0 -0.86734780129E+02  0.57257760473E+01 -0.13838554743E+03  0.16342051993E+03  0.00000000000E+00 0. -1.
</event>
<event>
 7    1  0.2686828E-009  0.7935147E+02  0.7561462E-02  0.1330902E+00
         -2   -1    0    0    0  501 -0.00000000000E+00  0.00000000000E+00  0.13984359999E+02  0.13984359999E+02  0.00000000000E+00 0.  1.
          2   -1    0    0  501    0  0.00000000000E+00 -0.00000000000E+00 -0.11154098698E+04  0.11154098698E+04  0.00000000000E+00 0. -1.
         25    2    1    2    0    0 -0.17159148309E+02 -0.18642773129E+01 -0.88748146853E+03  0.89642011598E+03  0.12509098867E+03 0.  0.
          5    1    3    3  502    0 -0.49530791819E+01  0.36625377097E+02 -0.78932038571E+03  0.79019623825E+03  0.41800000000E+01 0. -1.
         -5    1    3    3    0  502 -0.12206069127E+02 -0.38489654410E+02 -0.98161082822E+02  0.10622387773E+03  0.41800000000E+01 0. -1.
        -11    1    1    2    0    0 -0.31462451436E+01  0.38713210768E+02 -0.47827546158E+02  0.61612382830E+02  0.00000000000E+00 0.  1.
         11    1    1    2    0    0  0.20305393452E+02 -0.36848933455E+02 -0.16611649514E+03  0.17136173102E+03  0.00000000000E+00 0. -1.
</event>
<event>
 7    1  0.3329119E-009  0.8956840E+02  0.7561462E-02  0.1303900E+00
          3   -1    0    0  501    0  0.00000000000E+00  0.00000000000E+00  0.72335905091E+03  0.72335905091E+03  0.00000000000E+00 0. -1.
         -3   -1    0    0    0  501 -0.00000000000E+00 -0.00000000000E+00 -0.21619519304E+02  0.21619519304E+02  0.00000000000E+00 0.  1.
         25    2    1    2    0    0  0.57854983998E+02  0.48950792588E+01  0.46296882068E+03  0.48307198446E+03  0.12508897743E+03 0.  0.
          5    1    3    3  502    0 -0.56809959166E+01 -0.31557615614E+01  0.37011815089E+03  0.37019879871E+03  0.41800000000E+01 0. -1.
         -5    1    3    3    0  502  0.63535979914E+02  0.80508408202E+01  0.92850669789E+02  0.11287318575E+03  0.41800000000E+01 0. -1.
        -11    1    1    2    0    0 -0.59970660281E+02 -0.39983509251E+02  0.14963086926E+03  0.16608599623E+03  0.00000000000E+00 0.  1.
         11    1    1    2    0    0  0.21156762834E+01  0.35088429993E+02  0.89139841662E+02  0.95820589525E+02  0.00000000000E+00 0. -1.
</event>
<event>
 7    1  0.2686828E-009  0.1095057E+03  0.7561462E-02  0.1261488E+00
          1   -1    0    0  501    0  0.00000000000E+00  0.00000000000E+00  0.16036965000E+04  0.16036965000E+04  0.00000000000E+00 0. -1.
         -1   -1    0    0    0  501 -0.00000000000E+00 -0.00000000000E+00 -0.14390061462E+02  0.14390061462E+02  0.00000000000E+00 0.  1.
         25    2    1    2    0    0 -0.74798617743E+02 -0.79726886399E+01  0.12537338372E+04  0.12622020686E+04  0.12508849031E+03 0.  0.
          5    1    3    3  502    0  0.95494642135E+00  0.19413242791E+02  0.86303295266E+03  0.86326191605E+03  0.41800000000E+01 0. -1.
         -5    1    3    3    0  502 -0.75753564164E+02 -0.27385931430E+02  0.39070088457E+03  0.39894015257E+03  0.41800000000E+01 0. -1.
        -11    1    1    2    0    0  0.95388459462E+02 -0.23923210293E+01  0.26651284618E+03  0.28307910304E+03  0.00000000000E+00 0.  1.
         11    1    1    2    0    0 -0.20589841719E+02  0.10365009669E+02  0.69059755106E+02  0.72805389792E+02  0.00000000000E+00 0. -1.
</event>
<event>
 7    1  0.2686828E-009  0.1205385E+03  0.7561462E-02  0.1242211E+00
         -2   -1    0    0    0  501 -0.00000000000E+00  0.00000000000E+00  0.53562115391E+03  0.53562115391E+03  0.00000000000E+00 0.  1.
          2   -1    0    0  501    0  0.00000000000E+00 -0.00000000000E+00 -0.27997464831E+02  0.27997464831E+02  0.00000000000E+00 0. -1.
         25    2    1    2    0    0 -0.53524265733E+02 -0.16735907156E+02  0.27414708768E+03  0.30650910889E+03  0.12508505322E+03 0.  0.
          5    1    3    3  502    0  0.25080514583E+02 -0.45461259352E+02  0.12532466550E+03  0.13571846778E+03  0.41800000000E+01 0.  1.
         -5    1    3    3    0  502 -0.78604780316E+02  0.28725352196E+02  0.14882242218E+03  0.17079064111E+03  0.41800000000E+01 0.  1.
        -11    1    1    2    0    0  0.78223483769E+02  0.66155739180E+01  0.19566522230E+03  0.21082589606E+03  0.00000000000E+00 0. -1.
         11    1    1    2    0    0 -0.24699218036E+02  0.10120333238E+02  0.37811379103E+02  0.46283613797E+02  0.00000000000E+00 0.  1.
</event>
<event>
 7    1  0.2686828E-009  0.9876093E+02  0.7561462E-02  0.1282923E+00
          2   -1    0    0  501    0  0.00000000000E+00  0.00000000000E+00  0.24738175249E+03  0.24738175249E+03  0.00000000000E+00 0.  1.
         -2   -1    0    0    0  501 -0.00000000000E+00 -0.00000000000E+00 -0.53850544995E+02  0.53850544995E+02  0.00000000000E+00 0. -1.
         25    2    1    2    0    0  0.10433428210E+02  0.78794196404E+01  0.15818671570E+03  0.20209117498E+03  0.12508742664E+03 0.  0.
          5    1    3    3  502    0 -0.39448531159E+02  0.30914699948E+02  0.13165420156E+03  0.14093334052E+03  0.41800000000E+01 0. -1.
         -5    1    3    3    0  502  0.49881959368E+02 -0.23035280307E+02  0.26532514144E+02  0.61157834462E+02  0.41800000000E+01 0. -1.
        -11    1    1    2    0    0  0.33553643794E+02 -0.28051063762E+02  0.21928611204E+02  0.48924157421E+02  0.00000000000E+00 0.  1.
         11    1    1    2    0    0 -0.43987072004E+02  0.20171644121E+02  0.13415880595E+02  0.50216965083E+02  0.00000000000E+00 0. -1.
</event>
<event>
 7    1  0.2686828E-009  0.9481147E+02  0.7561462E-02  0.1291601E+00
          1   -1    0    0  501    0  0.00000000000E+00  0.00000000000E+00  0.53990452375E+03  0.53990452375E+03  0.00000000000E+00 0. -1.
         -1   -1    0    0    0  501 -0.00000000000E+00 -0.00000000000E+00 -0.25659099630E+02  0.25659099630E+02  0.00000000000E+00 0.  1.
         25    2    1    2    0    0 -0.29994016008E+02  0.84108329600E+01  0.21434953262E+03  0.25012714662E+03  0.12508990460E+03 0.  0.
          5    1    3    3  502    0 -0.46390050105E+02 -0.34631738801E+02  0.41904921654E+02  0.71588329635E+02  0.41800000000E+01 0.  1.
         -5    1    3    3    0  502  0.16396034097E+02  0.43042571761E+02  0.17244461097E+03  0.17853881698E+03  0.41800000000E+01 0.  1.
        -11    1    1    2    0    0  0.27829310083E+02 -0.42703482712E+02  0.96262398595E+02  0.10892431922E+03  0.00000000000E+00 0.  1.
         11    1    1    2    0    0  0.21647059251E+01  0.34292649752E+02  0.20363349291E+03  0.20651215754E+03  0.00000000000E+00 0. -1.
</event>
<event>
 7    1  0.2686828E-009  0.6894903E+02  0.7561462E-02  0.1363704E+00
          1   -1    0    0  501    0  0.00000000000E+00  0.00000000000E+00  0.21762742629E+02  0.21762742629E+02  0.00000000000E+00 0. -1.
         -1   -1    0    0    0  501 -0.00000000000E+00 -0.00000000000E+00 -0.55779196519E+03  0.55779196519E+03  0.00000000000E+00 0.  1.
         25    2    1    2    0    0  0.69051439303E+01  0.17752303099E+02 -0.39426194662E+03  0.41406938444E+03  0.12509255495E+03 0.  0.
          5    1    3    3  502    0 -0.20747142416E+02  0.11829788818E+02 -0.38232095914E+03  0.38308899229E+03  0.41800000000E+01 0. -1.
         -5    1    3    3    0  502  0.27652286346E+02  0.59225142809E+01 -0.11940987481E+02  0.30980392147E+02  0.41800000000E+01 0. -1.
        -11    1    1    2    0    0  0.31161699157E+02 -0.31768389043E+02 -0.67205950478E+02  0.80603485138E+02  0.00000000000E+00 0.  1.
         11    1    1    2    0    0 -0.38066843087E+02  0.14016085944E+02 -0.74561325469E+02  0.84881838243E+02  0.00000000000E+00 0. -1.
</event>
<event>
 7    1  0.2686828E-009  0.1032656E+03  0.7561462E-02  0.1273575E+00
         -2   -1    0    0    0  501 -0.00000000000E+00  0.00000000000E+00  0.38013029893E+02  0.38013029893E+02  0.00000000000E+00 0.  1.
          2   -1    0    0  501    0  0.00000000000E+00 -0.00000000000E+00 -0.44557329154E+03  0.44557329154E+03  0.00000000000E+00 0. -1.
         25    2    1    2    0    0 -0.59689462497E+02 -0.26565232120E+02 -0.21142694655E+03  0.25419903310E+03  0.12508897318E+03 0.  0.
          5    1    3    3  502    0 -0.52499187224E+02  0.18506186284E+02 -0.19904367059E+03  0.20672324202E+03  0.41800000000E+01 0.  1.
         -5    1    3    3    0  502 -0.71902752725E+01 -0.45071418404E+02 -0.12383275965E+02  0.47475791084E+02  0.41800000000E+01 0.  1.
        -11    1    1    2    0    0  0.61152980705E+01 -0.27850513176E+02 -0.11284083804E+03  0.11638772566E+03  0.00000000000E+00 0. -1.
         11    1    1    2    0    0  0.53574164426E+02  0.54415745296E+02 -0.83292477060E+02  0.11299956268E+03  0.00000000000E+00 0.  1.
</event>
<event>
 7    1  0.2686828E-009  0.1360780E+03  0.7561462E-02  0.1218706E+00
         -1   -1    0    0    0  501 -0.00000000000E+00  0.00000000000E+00  0.24127792197E+02  0.24127792197E+02  0.00000000000E+00 0.  1.
          1   -1    0    0  501    0  0.00000000000E+00 -0.00000000000E+00 -0.13337893018E+04  0.13337893018E+04  0.00000000000E+00 0. -1.
         25    2    1    2    0    0 -0.21067259110E+02  0.10122405949E+03 -0.10598786988E+04  0.10722313031E+04  0.12508785547E+03 0.  0.
          5    1    3    3  502    0  0.34054433265E+02  0.31484296830E+02 -0.12971482804E+03  0.13782007976E+03  0.41800000000E+01 0.  1.
         -5    1    3    3    0  502 -0.55121692375E+02  0.69739762664E+02 -0.93016387075E+03  0.93441122334E+03  0.41800000000E+01 0.  1.
        -11    1    1    2    0    0 -0.34443634350E+02 -0.26229422178E+02 -0.57654200305E+02  0.72099607126E+02  0.00000000000E+00 0.  1.
         11    1    1    2    0    0  0.55510893460E+02 -0.74994637315E+02 -0.19212861050E+03  0.21358618376E+03  0.00000000000E+00 0. -1.
</event>
<event>
 7    1  0.2686828E-009  0.1617235E+03  0.7561462E-02  0.1186765E+00
         -1   -1    0    0    0  501 -0.00000000000E+00  0.00000000000E+00  0.55091233293E+03  0.55091233293E+03  0.00000000000E+00 0.  1.
          1   -1    0    0  501    0  0.00000000000E+00 -0.00000000000E+00 -0.58505113555E+02  0.58505113555E+02  0.00000000000E+00 0. -1.
         25    2    1    2    0    0  0.12728707375E+03  0.50312995734E+02  0.19302190084E+03  0.26765927263E+03  0.12510249933E+03 0.  0.
          5    1    3    3  502    0  0.54494783786E+02  0.87446134978E+02  0.11717380885E+03  0.15608869870E+03  0.41800000000E+01 0.  1.
         -5    1    3    3    0  502  0.72792289967E+02 -0.37133139244E+02  0.75848091995E+02  0.11157057393E+03  0.41800000000E+01 0.  1.
        -11    1    1    2    0    0 -0.26591061514E+02 -0.15911202378E+01  0.53605648421E+01  0.27172630926E+02  0.00000000000E+00 0. -1.
         11    1    1    2    0    0 -0.10069601224E+03 -0.48721875496E+02  0.29402475369E+03  0.31458554292E+03  0.00000000000E+00 0.  1.
</event>
<event>
 7    1  0.2686828E-009  0.2796713E+03  0.7561462E-02  0.1095869E+00
          2   -1    0    0  501    0  0.00000000000E+00  0.00000000000E+00  0.11630792013E+04  0.11630792013E+04  0.00000000000E+00 0. -1.
         -2   -1    0    0    0  501 -0.00000000000E+00 -0.00000000000E+00 -0.85382148798E+02  0.85382148798E+02  0.00000000000E+00 0.  1.
         25    2    1    2    0    0  0.20109229805E+03  0.18674810512E+03  0.33149091575E+03  0.44816061425E+03  0.12509493133E+03 0.  0.
          5    1    3    3  502    0  0.36328708936E+02  0.33647351688E+02  0.26833479246E+01  0.49765370737E+02  0.41800000000E+01 0. -1.
         -5    1    3    3    0  502  0.16476358911E+03  0.15310075343E+03  0.32880756782E+03  0.39839524352E+03  0.41800000000E+01 0. -1.
        -11    1    1    2    0    0 -0.49879456227E+02 -0.79174889137E+01  0.85318173352E+02  0.99145536906E+02  0.00000000000E+00 0.  1.
         11    1    1    2    0    0 -0.15121284182E+03 -0.17883061621E+03  0.66088796338E+03  0.70115519892E+03  0.00000000000E+00 0. -1.
</event>
<event>
 7    1  0.2686828E-009  0.1205254E+03  0.7561462E-02  0.1242233E+00
          2   -1    0    0  501    0  0.00000000000E+00  0.00000000000E+00  0.16499249646E+03  0.16499249646E+03  0.00000000000E+00 0. -1.
         -2   -1    0    0    0  501 -0.00000000000E+00 -0.00000000000E+00 -0.11105042598E+03  0.11105042598E+03  0.00000000000E+00 0.  1.
         25    2    1    2    0    0  0.56468418599E+02 -0.54322498949E+02  0.46358976452E+02  0.15471185764E+03  0.12508792111E+03 0.  0.
          5    1    3    3  502    0  0.59274932464E+02 -0.79177166760E+02  0.69037924568E+02  0.12069071540E+03  0.41800000000E+01 0.  1.
         -5    1    3    3    0  502 -0.28065138649E+01  0.24854667810E+02 -0.22678948115E+02  0.34021142245E+02  0.41800000000E+01 0.  1.
        -11    1    1    2    0    0 -0.38159006721E+02 -0.17928919642E+02  0.18425282256E+02  0.46011378806E+02  0.00000000000E+00 0.  1.
         11    1    1    2    0    0 -0.18309411879E+02  0.72251418591E+02 -0.10842188234E+02  0.75319685989E+02  0.00000000000E+00 0. -1.
</event>
<event>
 7    1  0.2686828E-009  0.1216615E+03  0.7561462E-02  0.1240381E+00
         -2   -1    0    0    0  501 -0.00000000000E+00  0.00000000000E+00  0.11550616070E+03  0.11550616070E+03  0.00000000000E+00 0.  1.
          2   -1    0    0  501    0  0.00000000000E+00 -0.00000000000E+00 -0.17704016026E+03  0.17704016026E+03  0.00000000000E+00 0. -1.
         25    2    1    2    0    0 -0.13230356050E+01 -0.73276683186E+02 -0.93046652213E+02  0.17227968100E+03  0.12510550058E+03 0.  0.
          5    1    3    3  502    0 -0.23745218033E+02  0.29464978300E+02 -0.13643942476E+02  0.40443168669E+02  0.41800000000E+01 0.  1.
         -5    1    3    3    0  502  0.22422182428E+02 -0.10274166149E+03 -0.79402709737E+02  0.13183651233E+03  0.41800000000E+01 0.  1.
        -11    1    1    2    0    0  0.34679678190E+02  0.36041791849E+02  0.46276512131E+02  0.68141077288E+02  0.00000000000E+00 0.  1.
         11    1    1    2    0    0 -0.33356642585E+02  0.37234891337E+02 -0.14763859470E+02  0.52125562672E+02  0.00000000000E+00 0. -1.
</event>
<event>
 7    1  0.2686828E-009  0.2377859E+03  0.7561462E-02  0.1121277E+00
         -1   -1    0    0    0  501 -0.00000000000E+00  0.00000000000E+00  0.75903676546E+02  0.75903676546E+02  0.00000000000E+00 0.  1.
          1   -1    0    0  501    0  0.00000000000E+00 -0.00000000000E+00 -0.82525188511E+03  0.82525188511E+03  0.00000000000E+00 0. -1.
         25    2    1    2    0    0  0.11514122747E+03 -0.19362797090E+03 -0.37738732404E+03  0.45696593182E+03  0.12508947644E+03 0.  0.
          5    1    3    3  502    0  0.12989383469E+03 -0.18414478407E+03 -0.28764037251E+03  0.36542600631E+03  0.41800000000E+01 0.  1.
         -5    1    3    3    0  502 -0.14752607219E+02 -0.94831868253E+01 -0.89746951536E+02  0.91539925509E+02  0.41800000000E+01 0.  1.
        -11    1    1    2    0    0 -0.71861985377E+01  0.59722792030E+02 -0.46345145922E+02  0.75936327853E+02  0.00000000000E+00 0.  1.
         11    1    1    2    0    0 -0.10795502893E+03  0.13390517887E+03 -0.32561573860E+03  0.36825330198E+03  0.00000000000E+00 0. -1.
</event>
<event>
 7    1  0.2686828E-009  0.1227607E+03  0.7561462E-02  0.1238611E+00
          1   -1    0    0  501    0  0.00000000000E+00  0.00000000000E+00  0.80144430427E+03  0.80144430427E+03  0.00000000000E+00 0. -1.
         -1   -1    0    0    0  501 -0.00000000000E+00 -0.00000000000E+00 -0.20470360095E+02  0.20470360095E+02  0.00000000000E+00 0.  1.
         25    2    1    2    0    0 -0.11666711961E+02  0.58769258744E+02  0.53251156160E+03  0.55027811004E+03  0.12508995644E+03 0.  0.
          5    1    3    3  502    0 -0.41063735677E+02  0.86044004639E+02  0.42159178323E+03  0.43225791515E+03  0.41800000000E+01 0. -1.
         -5    1    3    3    0  502  0.29397023716E+02 -0.27274745894E+02  0.11091977838E+03  0.11802019489E+03  0.41800000000E+01 0. -1.
        -11    1    1    2    0    0 -0.25551189111E+02  0.13191441217E+02  0.67045903883E+02  0.72952248860E+02  0.00000000000E+00 0.  1.
         11    1    1    2    0    0  0.37217901071E+02 -0.71960699962E+02  0.18141647869E+03  0.19868430547E+03  0.00000000000E+00 0. -1.
</event>
<event>
 7    1  0.2747956E-009  0.7727375E+02  0.7561462E-02  0.1336971E+00
         -1   -1    0    0    0  501 -0.00000000000E+00  0.00000000000E+00  0.34695488174E+02  0.34695488174E+02  0.00000000000E+00 0.  1.
          1   -1    0    0  501    0  0.00000000000E+00 -0.00000000000E+00 -0.40601007723E+03  0.40601007723E+03  0.00000000000E+00 0. -1.
         25    2    1    2    0    0 -0.42783199602E+02 -0.75219269233E+01 -0.24561891425E+03  0.27903925450E+03  0.12508906012E+03 0.  0.
          5    1    3    3  502    0  0.53816663098E+01  0.22845156205E+02 -0.21084997332E+03  0.21219341918E+03  0.41800000000E+01 0. -1.
         -5    1    3    3    0  502 -0.48164865912E+02 -0.30367083129E+02 -0.34768940927E+02  0.66845835317E+02  0.41800000000E+01 0. -1.
        -11    1    1    2    0    0  0.34763821405E+02 -0.23246058862E+02 -0.12281539712E+03  0.12974021851E+03  0.00000000000E+00 0. -1.
         11    1    1    2    0    0  0.80193781968E+01  0.30767985785E+02 -0.28802776941E+01  0.31926092393E+02  0.00000000000E+00 0.  1.
</event>
<event>
 7    1  0.2686828E-009  0.2696566E+03  0.7561462E-02  0.1101476E+00
         -1   -1    0    0    0  501 -0.00000000000E+00  0.00000000000E+00  0.18184981710E+03  0.18184981710E+03  0.00000000000E+00 0.  1.
          1   -1    0    0  501    0  0.00000000000E+00 -0.00000000000E+00 -0.45890682882E+03  0.45890682882E+03  0.00000000000E+00 0. -1.
         25    2    1    2    0    0  0.68370669076E+02  0.23955045845E+03 -0.34125389769E+02  0.28084207605E+03  0.12509499958E+03 0.  0.
          5    1    3    3  502    0 -0.23775540001E+02  0.14243945997E+03 -0.10635787607E+02  0.14486154920E+03  0.41800000000E+01 0. -1.
         -5    1    3    3    0  502  0.92146209077E+02  0.97110998489E+02 -0.23489602162E+02  0.13598052686E+03  0.41800000000E+01 0. -1.
        -11    1    1    2    0    0 -0.89951661571E+01 -0.16661762119E+03 -0.18644750580E+03  0.25020994610E+03  0.00000000000E+00 0. -1.
         11    1    1    2    0    0 -0.59375502919E+02 -0.72932837260E+02 -0.56484116147E+02  0.10970462376E+03  0.00000000000E+00 0.  1.
</event>
<event>
 7    1  0.2686828E-009  0.1632912E+03  0.7561462E-02  0.1185030E+00
         -1   -1    0    0    0  501 -0.00000000000E+00  0.00000000000E+00  0.21490907142E+03  0.21490907142E+03  0.00000000000E+00 0.  1.
          1   -1    0    0  501    0  0.00000000000E+00 -0.00000000000E+00 -0.16034185607E+03  0.16034185607E+03  0.00000000000E+00 0. -1.
         25    2    1    2    0    0  0.11665473100E+03 -0.92139183294E+02  0.55223066994E+01  0.19435833629E+03  0.12508681646E+03 0.  0.
          5    1    3    3  502    0  0.36243206066E+02  0.88849733551E+01  0.45624779228E+02  0.59089809756E+02  0.41800000000E+01 0. -1.
         -5    1    3    3    0  502  0.80411524930E+02 -0.10102415665E+03 -0.40102472528E+02  0.13526852653E+03  0.41800000000E+01 0. -1.
        -11    1    1    2    0    0 -0.48392725521E+02  0.75345814979E+02  0.62653642988E+02  0.10929010338E+03  0.00000000000E+00 0.  1.
         11    1    1    2    0    0 -0.68262005474E+02  0.16793368315E+02 -0.13608734340E+02  0.71602487813E+02  0.00000000000E+00 0. -1.
</event>
<event>
 7    1  0.2686828E-009  0.1020356E+03  0.7561462E-02  0.1276073E+00
         -2   -1    0    0    0  501 -0.00000000000E+00  0.00000000000E+00  0.13006245724E+03  0.13006245724E+03  0.00000000000E+00 0.  1.
          2   -1    0    0  501    0  0.00000000000E+00 -0.00000000000E+00 -0.12053387334E+03  0.12053387334E+03  0.00000000000E+00 0. -1.
         25    2    1    2    0    0 -0.44072909499E+02  0.36900323984E+00  0.51913406294E+02  0.14242704999E+03  0.12509158765E+03 0.  0.
          5    1    3    3  502    0 -0.74137385345E+02  0.36571843082E+02  0.19222517528E+02  0.84975462296E+02  0.41800000000E+01 0. -1.
         -5    1    3    3    0  502  0.30064475847E+02 -0.36202839842E+02  0.32690888766E+02  0.57451587696E+02  0.41800000000E+01 0. -1.
        -11    1    1    2    0    0  0.47621674821E+02 -0.21769599346E+02 -0.60424704587E+02  0.79955514462E+02  0.00000000000E+00 0. -1.
         11    1    1    2    0    0 -0.35487653226E+01  0.21400596106E+02  0.18039882194E+02  0.28213766119E+02  0.00000000000E+00 0.  1.
</event>
<event>
 7    1  0.2686828E-009  0.2353281E+03  0.7561462E-02  0.1122945E+00
          1   -1    0    0  501    0  0.00000000000E+00  0.00000000000E+00  0.17935766412E+04  0.17935766412E+04  0.00000000000E+00 0. -1.
         -1   -1    0    0    0  501 -0.00000000000E+00 -0.00000000000E+00 -0.35977765225E+02  0.35977765225E+02  0.00000000000E+00 0.  1.
         25    2    1    2    0    0  0.20746729405E+03 -0.50131098851E+02  0.12105231245E+04  0.12355440775E+04  0.12508847707E+03 0.  0.
          5    1    3    3  502    0  0.73126486009E+02 -0.74932031094E+02  0.39574888304E+03  0.40938605627E+03  0.41800000000E+01 0. -1.
         -5    1    3    3    0  502  0.13434080804E+03  0.24800932244E+02  0.81477424151E+03  0.82615802118E+03  0.41800000000E+01 0. -1.
        -11    1    1    2    0    0 -0.15445523005E+03 -0.25278230547E+01  0.32832650644E+03  0.36285135084E+03  0.00000000000E+00 0.  1.
         11    1    1    2    0    0 -0.53012064004E+02  0.52658921905E+02  0.21874924498E+03  0.23115897812E+03  0.00000000000E+00 0. -1.
</event>
<event>
 7    1  0.2686828E-009  0.1254318E+03  0.7561462E-02  0.1234396E+00
          2   -1    0    0  501    0  0.00000000000E+00  0.00000000000E+00  0.24749729646E+03  0.24749729646E+03  0.00000000000E+00 0. -1.
         -2   -1    0    0    0  501 -0.00000000000E+00 -0.00000000000E+00 -0.66693833209E+02  0.66693833209E+02  0.00000000000E+00 0.  1.
         25    2    1    2    0    0 -0.15259345111E+02  0.49351126566E+02  0.64164413942E+02  0.14977724517E+03  0.12509104624E+03 0.  0.
          5    1    3    3  502    0 -0.25296545803E+02  0.89769471739E+02  0.47228849201E+02  0.10462556993E+03  0.41800000000E+01 0.  1.
         -5    1    3    3    0  502  0.10037200693E+02 -0.40418345173E+02  0.16935564741E+02  0.45151675244E+02  0.41800000000E+01 0.  1.
        -11    1    1    2    0    0 -0.44266344572E+02 -0.28158246551E+02  0.47812971652E+02  0.70982225724E+02  0.00000000000E+00 0. -1.
         11    1    1    2    0    0  0.59525689682E+02 -0.21192880015E+02  0.68826077655E+02  0.93431658772E+02  0.00000000000E+00 0.  1.
</event>
<event>
 7    1  0.2686828E-009  0.8866280E+02  0.7561462E-02  0.1306123E+00
          1   -1    0    0  501    0  0.00000000000E+00  0.00000000000E+00  0.22156639140E+03  0.22156639140E+03  0.00000000000E+00 0. -1.
         -1   -1    0    0    0  501 -0.00000000000E+00 -0.00000000000E+00 -0.71789228712E+02  0.71789228712E+02  0.00000000000E+00 0.  1.
         25    2    1    2    0    0  0.25858041671E+02  0.46337928647E+02  0.48013511489E+02  0.14411456672E+03  0.12509144297E+03 0.  0.
          5    1    3    3  502    0 -0.14517246451E+02  0.10079964784E+02 -0.38120550386E+02  0.42225642640E+02  0.41800000000E+01 0. -1.
         -5    1    3    3    0  502  0.40375288122E+02  0.36257963862E+02  0.86134061875E+02  0.10188892408E+03  0.41800000000E+01 0. -1.
        -11    1    1    2    0    0 -0.37545230387E+02  0.16363577629E+02  0.61245752497E+02  0.73678037410E+02  0.00000000000E+00 0. -1.
         11    1    1    2    0    0  0.11687188717E+02 -0.62701506276E+02  0.40517898698E+02  0.75563015981E+02  0.00000000000E+00 0.  1.
</event>
<event>
 7    1  0.2686828E-009  0.1054817E+03  0.7561462E-02  0.1269174E+00
          2   -1    0    0  501    0  0.00000000000E+00  0.00000000000E+00  0.25253480172E+02  0.25253480172E+02  0.00000000000E+00 0. -1.
         -2   -1    0    0    0  501 -0.00000000000E+00 -0.00000000000E+00 -0.62561332076E+03  0.62561332076E+03  0.00000000000E+00 0.  1.
         25    2    1    2    0    0 -0.20032250233E+02  0.48072716008E+02 -0.23867844717E+03  0.27445810461E+03  0.12509025928E+03 0.  0.
          5    1    3    3  502    0  0.26823483596E+02  0.54047999329E+02 -0.21111792648E+03  0.21961087583E+03  0.41800000000E+01 0.  1.
         -5    1    3    3    0  502 -0.46855733829E+02 -0.59752833211E+01 -0.27560520691E+02  0.54847228774E+02  0.41800000000E+01 0.  1.
        -11    1    1    2    0    0  0.48435861248E+02 -0.55538603017E+02 -0.28259640995E+03  0.29204674283E+03  0.00000000000E+00 0.  1.
         11    1    1    2    0    0 -0.28403611016E+02  0.74658870089E+01 -0.79084983470E+02  0.84361953498E+02  0.00000000000E+00 0. -1.
</event>
<event>
 7    1  0.2686828E-009  0.9441419E+02  0.7561462E-02  0.1292501E+00
          1   -1    0    0  501    0  0.00000000000E+00  0.00000000000E+00  0.11893448305E+03  0.11893448305E+03  0.00000000000E+00 0. -1.
         -1   -1    0    0    0  501 -0.00000000000E+00 -0.00000000000E+00 -0.99457238512E+02  0.99457238512E+02  0.00000000000E+00 0.  1.
         25    2    1    2    0    0  0.50248390174E+02 -0.25968274477E+02  0.11411942707E+02  0.13775288439E+03  0.12508546169E+03 0.  0.
          5    1    3    3  502    0  0.41293522285E+02  0.33941025237E+02 -0.32610921854E+02  0.62754225364E+02  0.41800000000E+01 0. -1.
         -5    1    3    3    0  502  0.89548678891E+01 -0.59909299715E+02  0.44022864561E+02  0.74998659024E+02  0.41800000000E+01 0. -1.
        -11    1    1    2    0    0  0.51483147990E+00  0.23673310567E+02 -0.11327695055E+02  0.26248949692E+02  0.00000000000E+00 0.  1.
         11    1    1    2    0    0 -0.50763221654E+02  0.22949639101E+01  0.19392996888E+02  0.54389887482E+02  0.00000000000E+00 0. -1.
</event>
<event>
 7    1  0.2686828E-009  0.9728286E+02  0.7561462E-02  0.1286116E+00
          4   -1    0    0  501    0  0.00000000000E+00  0.00000000000E+00  0.52143383108E+02  0.52143383108E+02  0.00000000000E+00 0. -1.
         -4   -1    0    0    0  501 -0.00000000000E+00 -0.00000000000E+00 -0.33369515923E+03  0.33369515923E+03  0.00000000000E+00 0.  1.
         25    2    1    2    0    0 -0.31177951270E+02  0.42916614617E+02 -0.23387580425E+03  0.27047876194E+03  0.12508784271E+03 0.  0.
          5    1    3    3  502    0  0.14596586078E+02  0.73890225263E+02 -0.16951072979E+03  0.18553755854E+03  0.41800000000E+01 0. -1.
         -5    1    3    3    0  502 -0.45774537348E+02 -0.30973610646E+02 -0.64365074454E+02  0.84941203402E+02  0.41800000000E+01 0. -1.
        -11    1    1    2    0    0  0.19745686604E+02 -0.47459215789E+02 -0.71786354364E+02  0.88292411767E+02  0.00000000000E+00 0.  1.
         11    1    1    2    0    0  0.11432264666E+02  0.45426011723E+01  0.24110382488E+02  0.27067368629E+02  0.00000000000E+00 0. -1.
</event>
<event>
 7    1  0.2686828E-009  0.1046985E+03  0.7561462E-02  0.1270715E+00
          2   -1    0    0  501    0  0.00000000000E+00  0.00000000000E+00  0.49077175884E+02  0.49077175884E+02  0.00000000000E+00 0.  1.
         -2   -1    0    0    0  501 -0.00000000000E+00 -0.00000000000E+00 -0.30205369112E+03  0.30205369112E+03  0.00000000000E+00 0. -1.
         25    2    1    2    0    0 -0.18943318932E+02 -0.76737062189E+01 -0.63498085663E+02  0.14176660714E+03  0.12509208176E+03 0.  0.
          5    1    3    3  502    0 -0.27654458573E+02 -0.63261714357E+02 -0.44435335936E+02  0.82211830427E+02  0.41800000000E+01 0. -1.
         -5    1    3    3    0  502  0.87111396416E+01  0.55588008138E+02 -0.19062749727E+02  0.59554776717E+02  0.41800000000E+01 0. -1.
        -11    1    1    2    0    0 -0.12187214505E+02  0.38266465590E+02 -0.55862314697E+02  0.68800063877E+02  0.00000000000E+00 0.  1.
         11    1    1    2    0    0  0.31130533437E+02 -0.30592759371E+02 -0.13361611488E+03  0.14056419599E+03  0.00000000000E+00 0. -1.
</event>
<event>
 7    1  0.2686828E-009  0.2217981E+03  0.7561462E-02  0.1132550E+00
          2   -1    0    0  501    0  0.00000000000E+00  0.00000000000E+00  0.66650396793E+03  0.66650396793E+03  0.00000000000E+00 0. -1.
         -2   -1    0    0    0  501 -0.00000000000E+00 -0.00000000000E+00 -0.75711333522E+02  0.75711333522E+02  0.00000000000E+00 0.  1.
         25    2    1    2    0    0  0.11326525539E+03 -0.15676397614E+03  0.24979437551E+03  0.33977749777E+03  0.12509019010E+03 0.  0.
          5    1    3    3  502    0  0.58054349948E+02 -0.16440757635E+03  0.18685669342E+03  0.25560331568E+03  0.41800000000E+01 0.  1.
         -5    1    3    3    0  502  0.55210905447E+02  0.76436002089E+01  0.62937682084E+02  0.84174182090E+02  0.41800000000E+01 0.  1.
        -11    1    1    2    0    0 -0.34213162092E+02  0.12241049487E+03  0.21551193984E+03  0.25020045149E+03  0.00000000000E+00 0. -1.
         11    1    1    2    0    0 -0.79052093303E+02  0.34353481271E+02  0.12548631906E+03  0.15223735219E+03  0.00000000000E+00 0.  1.
</event>
<event>
 7    1  0.2686828E-009  0.2170189E+03  0.7561462E-02  0.1136125E+00
         -2   -1    0    0    0  501 -0.00000000000E+00  0.00000000000E+00  0.74566464443E+02  0.74566464443E+02  0.00000000000E+00 0.  1.
          2   -1    0    0  501    0  0.00000000000E+00 -0.00000000000E+00 -0.63680138920E+03  0.63680138920E+03  0.00000000000E+00 0. -1.
         25    2    1    2    0    0 -0.16095835829E+01  0.18814420188E+03 -0.26986746107E+03  0.35196189038E+03  0.12509154359E+03 0.  0.
          5    1    3    3  502    0 -0.56050681584E+02  0.42735017480E+02 -0.85828529371E+02  0.11113941461E+03  0.41800000000E+01 0. -1.
         -5    1    3    3    0  502  0.54441098001E+02  0.14540918440E+03 -0.18403893170E+03  0.24082247578E+03  0.41800000000E+01 0. -1.
        -11    1    1    2    0    0  0.33042908991E+02 -0.23643970039E+02 -0.44456046809E+02  0.60226333540E+02  0.00000000000E+00 0.  1.
         11    1    1    2    0    0 -0.31433325408E+02 -0.16450023184E+03 -0.24791141688E+03  0.29917962972E+03  0.00000000000E+00 0. -1.
</event>
<event>
 7    1  0.2962027E-009  0.1727307E+03  0.7561462E-02  0.1175030E+00
          2   -1    0    0  501    0  0.00000000000E+00  0.00000000000E+00  0.22347534933E+03  0.22347534933E+03  0.00000000000E+00 0. -1.
         -2   -1    0    0    0  501 -0.00000000000E+00 -0.00000000000E+00 -0.14437039509E+03  0.14437039509E+03  0.00000000000E+00 0.  1.
         25    2    1    2    0    0  0.12101626384E+03 -0.75370467502E+02  0.40622207964E+02  0.19396654562E+03  0.12508882267E+03 0.  0.
          5    1    3    3  502    0  0.11661255901E+03 -0.85895020439E+01  0.48079887633E+02  0.12649670533E+03  0.41800000000E+01 0. -1.
         -5    1    3    3    0  502  0.44037048290E+01 -0.66780965458E+02 -0.74576796684E+01  0.67469840298E+02  0.41800000000E+01 0. -1.
        -11    1    1    2    0    0 -0.55257042892E+02 -0.73328160176E+01 -0.11622979150E+02  0.56940360240E+02  0.00000000000E+00 0. -1.
         11    1    1    2    0    0 -0.65759220944E+02  0.82703283520E+02  0.50105725423E+02  0.11693883856E+03  0.00000000000E+00 0.  1.
</event>
<event>
 7    1  0.2686828E-009  0.1396665E+03  0.7561462E-02  0.1213778E+00
          2   -1    0    0  501    0  0.00000000000E+00  0.00000000000E+00  0.54285797008E+03  0.54285797008E+03  0.00000000000E+00 0.  1.
         -2   -1    0    0    0  501 -0.00000000000E+00 -0.00000000000E+00 -0.54274020847E+02  0.54274020847E+02  0.00000000000E+00 0. -1.
         25    2    1    2    0    0 -0.99143136799E+02  0.70831371160E+02  0.34925850957E+03  0.39047962994E+03  0.12508553146E+03 0.  0.
          5    1    3    3  502    0 -0.32527861747E+02  0.79492113624E+02  0.28399312908E+03  0.29672652002E+03  0.41800000000E+01 0.  1.
         -5    1    3    3    0  502 -0.66615275052E+02 -0.86607424641E+01  0.65265380491E+02  0.93753109926E+02  0.41800000000E+01 0.  1.
        -11    1    1    2    0    0  0.80358118697E+02 -0.71028445763E+02  0.15049207359E+03  0.18479808322E+03  0.00000000000E+00 0.  1.
         11    1    1    2    0    0  0.18785018101E+02  0.19707460310E+00 -0.11166633924E+02  0.21854277766E+02  0.00000000000E+00 0. -1.
</event>
<event>
 7    1  0.2686828E-009  0.6016034E+02  0.7561462E-02  0.1397160E+00
         -3   -1    0    0    0  501 -0.00000000000E+00  0.00000000000E+00  0.55536373858E+03  0.55536373858E+03  0.00000000000E+00 0.  1.
          3   -1    0    0  501    0  0.00000000000E+00 -0.00000000000E+00 -0.23639019158E+02  0.23639019158E+02  0.00000000000E+00 0. -1.
         25    2    1    2    0    0  0.50321310252E+01 -0.95205496316E+01  0.38553507024E+03  0.40546654887E+03  0.12509943509E+03 0.  0.
          5    1    3    3  502    0  0.15533242236E+02 -0.35304392561E+02  0.37237435386E+03  0.37438992182E+03  0.41800000000E+01 0. -1.
         -5    1    3    3    0  502 -0.10501111211E+02  0.25783842930E+02  0.13160716375E+02  0.31076627043E+02  0.41800000000E+01 0. -1.
        -11    1    1    2    0    0 -0.14342502453E+02  0.28682174370E+02  0.14866932910E+03  0.15208860548E+03  0.00000000000E+00 0.  1.
         11    1    1    2    0    0  0.93103714279E+01 -0.19161624738E+02 -0.24796799108E+01  0.21447603390E+02  0.00000000000E+00 0. -1.
</event>
<event>
 7    1  0.2686828E-009  0.1210514E+03  0.7561462E-02  0.1241373E+00
         -2   -1    0    0    0  501 -0.00000000000E+00  0.00000000000E+00  0.34595840637E+03  0.34595840637E+03  0.00000000000E+00 0.  1.
          2   -1    0    0  501    0  0.00000000000E+00 -0.00000000000E+00 -0.70744761082E+02  0.70744761082E+02  0.00000000000E+00 0. -1.
         25    2    1    2    0    0 -0.10735310612E+03 -0.16649392985E+02  0.10653158895E+03  0.19696111673E+03  0.12507122124E+03 0.  0.
          5    1    3    3  502    0 -0.76431238589E+02  0.12787005658E+02 -0.46961338935E+01  0.77748104926E+02  0.41800000000E+01 0.  1.
         -5    1    3    3    0  502 -0.30921867528E+02 -0.29436398642E+02  0.11122772284E+03  0.11921301181E+03  0.41800000000E+01 0.  1.
        -11    1    1    2    0    0  0.80935564800E+02 -0.12906898644E+02  0.15908408163E+03  0.17895501868E+03  0.00000000000E+00 0. -1.
         11    1    1    2    0    0  0.26417541318E+02  0.29556291628E+02  0.95979747149E+01  0.40787032042E+02  0.00000000000E+00 0.  1.
</event>
<event>
 7    1  0.2686828E-009  0.1191437E+03  0.7561462E-02  0.1244516E+00
         -3   -1    0    0    0  501 -0.00000000000E+00  0.00000000000E+00  0.63488021187E+02  0.63488021187E+02  0.00000000000E+00 0.  1.
          3   -1    0    0  501    0  0.00000000000E+00 -0.00000000000E+00 -0.40007562765E+03  0.40007562765E+03  0.00000000000E+00 0. -1.
         25    2    1    2    0    0  0.27727231675E+02  0.10210573516E+03 -0.24430207588E+03  0.29415334802E+03  0.12509319465E+03 0.  0.
          5    1    3    3  502    0 -0.21913809373E+01  0.63368450508E+01  0.14521243535E+02  0.16531686829E+02  0.41800000000E+01 0.  1.
         -5    1    3    3    0  502  0.29918612612E+02  0.95768890113E+02 -0.25882331941E+03  0.27762166120E+03  0.41800000000E+01 0.  1.
        -11    1    1    2    0    0  0.12098940714E+02 -0.86257592599E+02 -0.91796550396E+02  0.12654391851E+03  0.00000000000E+00 0. -1.
         11    1    1    2    0    0 -0.39826172389E+02 -0.15848142565E+02 -0.48898018948E+00  0.42866382301E+02  0.00000000000E+00 0.  1.
</event>
<event>
 7    1  0.2686828E-009  0.9378567E+02  0.7561462E-02  0.1293935E+00
         -2   -1    0    0    0  501 -0.00000000000E+00  0.00000000000E+00  0.28213930617E+02  0.28213930617E+02  0.00000000000E+00 0. -1.
          2   -1    0    0  501    0  0.00000000000E+00 -0.00000000000E+00 -0.49528283255E+03  0.49528283255E+03  0.00000000000E+00 0.  1.
         25    2    1    2    0    0 -0.10264074106E+01  0.31970966999E+02 -0.35485886291E+03  0.37761564151E+03  0.12508222850E+03 0.  0.
          5    1    3    3  502    0  0.38494412141E+02 -0.69378109106E+01 -0.34067381508E+02  0.52038561367E+02  0.41800000000E+01 0. -1.
         -5    1    3    3    0  502 -0.39520819552E+02  0.38908777910E+02 -0.32079148140E+03  0.32557708015E+03  0.41800000000E+01 0. -1.
        -11    1    1    2    0    0  0.91323913785E+01 -0.61408444198E+02 -0.67167755361E+02  0.91465321031E+02  0.00000000000E+00 0. -1.
         11    1    1    2    0    0 -0.81059839679E+01  0.29437477199E+02 -0.45042283664E+02  0.54415800624E+02  0.00000000000E+00 0.  1.
</event>
<event>
 7    1  0.2686828E-009  0.1084281E+03  0.7561462E-02  0.1263509E+00
         -3   -1    0    0    0  501 -0.00000000000E+00  0.00000000000E+00  0.13629899892E+03  0.13629899892E+03  0.00000000000E+00 0.  1.
          3   -1    0    0  501    0  0.00000000000E+00 -0.00000000000E+00 -0.13102494944E+03  0.13102494944E+03  0.00000000000E+00 0. -1.
         25    2    1    2    0    0  0.13313825700E+02  0.30543440619E+02 -0.70283372576E+02  0.14729901521E+03  0.12508831960E+03 0.  0.
          5    1    3    3  502    0 -0.52199596375E+02  0.33554956270E+02 -0.22877746971E+02  0.66269122964E+02  0.41800000000E+01 0. -1.
         -5    1    3    3    0  502  0.65513422074E+02 -0.30115156505E+01 -0.47405625604E+02  0.81029892246E+02  0.41800000000E+01 0. -1.
        -11    1    1    2    0    0 -0.44758689852E+02  0.49615959646E+00  0.19963757736E+02  0.49011612038E+02  0.00000000000E+00 0.  1.
         11    1    1    2    0    0  0.31444864153E+02 -0.31039600216E+02  0.55593664316E+02  0.71013321111E+02  0.00000000000E+00 0. -1.
</event>
<event>
 7    1  0.2686828E-009  0.1756452E+03  0.7561462E-02  0.1172085E+00
          2   -1    0    0  501    0  0.00000000000E+00  0.00000000000E+00  0.13190694090E+04  0.13190694090E+04  0.00000000000E+00 0. -1.
         -2   -1    0    0    0  501 -0.00000000000E+00 -0.00000000000E+00 -0.32915570680E+02  0.32915570680E+02  0.00000000000E+00 0.  1.
         25    2    1    2    0    0  0.13707846773E+03  0.76420351245E+02  0.93845289496E+03  0.95967325310E+03  0.12509332621E+03 0.  0.
          5    1    3    3  502    0  0.26950316558E+02 -0.23813894792E+02  0.37901163085E+03  0.38073706133E+03  0.41800000000E+01 0.  1.
         -5    1    3    3    0  502  0.11012815117E+03  0.10023424604E+03  0.55944126410E+03  0.57893619177E+03  0.41800000000E+01 0.  1.
        -11    1    1    2    0    0 -0.11864613235E+03 -0.39850338653E+02  0.17708872812E+03  0.21685334178E+03  0.00000000000E+00 0.  1.
         11    1    1    2    0    0 -0.18432335377E+02 -0.36570012592E+02  0.17061221525E+03  0.17545838481E+03  0.00000000000E+00 0. -1.
</event>
<event>
 7    1  0.2686828E-009  0.3215868E+03  0.7561462E-02  0.1074921E+00
         -2   -1    0    0    0  501 -0.00000000000E+00  0.00000000000E+00  0.10341549950E+03  0.10341549950E+03  0.00000000000E+00 0.  1.
          2   -1    0    0  501    0  0.00000000000E+00 -0.00000000000E+00 -0.10790160909E+04  0.10790160909E+04  0.00000000000E+00 0. -1.
         25    2    1    2    0    0  0.29991799109E+03 -0.82412117528E+02 -0.59516693651E+03  0.68309140779E+03  0.12509048954E+03 0.  0.
          5    1    3    3  502    0  0.15767847647E+03  0.84205448532E+01 -0.21194482900E+03  0.26433215933E+03  0.41800000000E+01 0.  1.
         -5    1    3    3    0  502  0.14223951462E+03 -0.90832662382E+02 -0.38322210752E+03  0.41875924845E+03  0.41800000000E+01 0.  1.
        -11    1    1    2    0    0 -0.21987740210E+03  0.86428601396E+02 -0.23465437715E+03  0.33298446182E+03  0.00000000000E+00 0.  1.
         11    1    1    2    0    0 -0.80040588996E+02 -0.40164838677E+01 -0.14577927772E+03  0.16635572080E+03  0.00000000000E+00 0. -1.
</event>
<event>
 7    1  0.2686828E-009  0.7188815E+02  0.7561462E-02  0.1353788E+00
         -2   -1    0    0    0  501 -0.00000000000E+00  0.00000000000E+00  0.15619660251E+02  0.15619660251E+02  0.00000000000E+00 0.  1.
          2   -1    0    0  501    0  0.00000000000E+00 -0.00000000000E+00 -0.89013865129E+03  0.89013865129E+03  0.00000000000E+00 0. -1.
         25    2    1    2    0    0 -0.37707117350E+02  0.24162330340E+02 -0.70831238960E+03  0.72066626186E+03  0.12509106613E+03 0.  0.
          5    1    3    3  502    0 -0.81647499622E+01 -0.17074847760E+02 -0.60678530648E+03  0.60709479831E+03  0.41800000000E+01 0. -1.
         -5    1    3    3    0  502 -0.29542367388E+02  0.41237178100E+02 -0.10152708311E+03  0.11357146355E+03  0.41800000000E+01 0. -1.
        -11    1    1    2    0    0 -0.75948094540E+01  0.12895834627E+02 -0.92887286622E+01  0.17614316948E+02  0.00000000000E+00 0.  1.
         11    1    1    2    0    0  0.45301926804E+02 -0.37058164967E+02 -0.15691787278E+03  0.16747773273E+03  0.00000000000E+00 0. -1.
</event>
<event>
 7    1  0.2686828E-009  0.1003729E+03  0.7561462E-02  0.1279514E+00
         -1   -1    0    0    0  501 -0.00000000000E+00  0.00000000000E+00  0.13313165337E+03  0.13313165337E+03  0.00000000000E+00 0.  1.
          1   -1    0    0  501    0  0.00000000000E+00 -0.00000000000E+00 -0.92170867846E+02  0.92170867846E+02  0.00000000000E+00 0. -1.
         25    2    1    2    0    0  0.11704254217E+01  0.12088808804E+02  0.25477673838E+02  0.12823354331E+03  0.12508885071E+03 0.  0.
          5    1    3    3  502    0  0.18256953786E+01 -0.50960222770E+02 -0.14844396893E+02  0.53273877158E+02  0.41800000000E+01 0.  1.
         -5    1    3    3    0  502 -0.65526995692E+00  0.63049031574E+02  0.40322070731E+02  0.74959666148E+02  0.41800000000E+01 0.  1.
        -11    1    1    2    0    0 -0.36376617626E+02 -0.29759758805E+02  0.29230070009E+02  0.55347073516E+02  0.00000000000E+00 0.  1.
         11    1    1    2    0    0  0.35206192204E+02  0.17670950001E+02 -0.13746958319E+02  0.41721904397E+02  0.00000000000E+00 0. -1.
</event>
<event>
 7    1  0.2686828E-009  0.1117399E+03  0.7561462E-02  0.1257381E+00
         -2   -1    0    0    0  501 -0.00000000000E+00  0.00000000000E+00  0.15216642684E+03  0.15216642684E+03  0.00000000000E+00 0.  1.
          2   -1    0    0  501    0  0.00000000000E+00 -0.00000000000E+00 -0.13624114008E+03  0.13624114008E+03  0.00000000000E+00 0. -1.
         25    2    1    2    0    0  0.23495152555E+01 -0.82058460162E+02 -0.38734666529E+02  0.15455141164E+03  0.12508658338E+03 0.  0.
          5    1    3    3  502    0  0.31563701078E+00 -0.97712026126E+02  0.14497902303E+02  0.98870628841E+02  0.41800000000E+01 0. -1.
         -5    1    3    3    0  502  0.20338782448E+01  0.15653565963E+02 -0.53232568832E+02  0.55680782794E+02  0.41800000000E+01 0. -1.
        -11    1    1    2    0    0 -0.12556786875E+02  0.93313401937E+02  0.20344554055E+02  0.96327383217E+02  0.00000000000E+00 0.  1.
         11    1    1    2    0    0  0.10207271620E+02 -0.11254941774E+02  0.34315399234E+02  0.37528772067E+02  0.00000000000E+00 0. -1.
</event>
<event>
 7    1  0.2686828E-009  0.1193416E+03  0.7561462E-02  0.1244187E+00
          1   -1    0    0  501    0  0.00000000000E+00  0.00000000000E+00  0.22244309646E+04  0.22244309646E+04  0.00000000000E+00 0. -1.
         -1   -1    0    0    0  501 -0.00000000000E+00 -0.00000000000E+00 -0.78981998660E+01  0.78981998660E+01  0.00000000000E+00 0.  1.
         25    2    1    2    0    0  0.40150145754E+02  0.23207325552E+02  0.16952471840E+04  0.17004882639E+04  0.12508679629E+03 0.  0.
          5    1    3    3  502    0 -0.30748605935E+02 -0.31100617227E+02  0.53362707563E+03  0.53543258530E+03  0.41800000000E+01 0. -1.
         -5    1    3    3    0  502  0.70898751689E+02  0.54307942779E+02  0.11616201084E+04  0.11650556786E+04  0.41800000000E+01 0. -1.
        -11    1    1    2    0    0 -0.47320949240E+02  0.27097156338E+02  0.28078923456E+03  0.28603517679E+03  0.00000000000E+00 0. -1.
         11    1    1    2    0    0  0.71708034852E+01 -0.50304481890E+02  0.24049634619E+03  0.24580572379E+03  0.00000000000E+00 0.  1.
</event>
<event>
 7    1  0.2686828E-009  0.1195093E+03  0.7561462E-02  0.1243909E+00
          1   -1    0    0  501    0  0.00000000000E+00  0.00000000000E+00  0.16266985719E+03  0.16266985719E+03  0.00000000000E+00 0. -1.
         -1   -1    0    0    0  501 -0.00000000000E+00 -0.00000000000E+00 -0.95744479369E+02  0.95744479369E+02  0.00000000000E+00 0.  1.
         25    2    1    2    0    0 -0.53918490625E+02 -0.29192543127E+02  0.51384118756E+02  0.14848418543E+03  0.12509123654E+03 0.  0.
          5    1    3    3  502    0  0.20279653243E+02  0.33388590245E+02  0.16106346040E+01  0.39320844829E+02  0.41800000000E+01 0.  1.
         -5    1    3    3    0  502 -0.74198143868E+02 -0.62581133372E+02  0.49773484152E+02  0.10916334061E+03  0.41800000000E+01 0.  1.
        -11    1    1    2    0    0  0.87930686545E+01 -0.28215880912E+02  0.21677553886E+02  0.36652016786E+02  0.00000000000E+00 0. -1.
         11    1    1    2    0    0  0.45125421970E+02  0.57408424039E+02 -0.61362948176E+01  0.73278134343E+02  0.00000000000E+00 0.  1.
</event>
<event>
 7    1  0.2686828E-009  0.9295933E+02  0.7561462E-02  0.1295839E+00
          1   -1    0    0  501    0  0.00000000000E+00  0.00000000000E+00  0.16013762498E+03  0.16013762498E+03  0.00000000000E+00 0. -1.
         -1   -1    0    0    0  501 -0.00000000000E+00 -0.00000000000E+00 -0.83559958596E+02  0.83559958596E+02  0.00000000000E+00 0.  1.
         25    2    1    2    0    0 -0.25364355050E+02 -0.29775679604E+02  0.28227576903E+02  0.13407204795E+03  0.12509426981E+03 0.  0.
          5    1    3    3  502    0  0.28247183387E+02 -0.22991396719E+01 -0.35938420794E+02  0.45959024160E+02  0.41800000000E+01 0.  1.
         -5    1    3    3    0  502 -0.53611538438E+02 -0.27476539932E+02  0.64165997697E+02  0.88113023787E+02  0.41800000000E+01 0.  1.
        -11    1    1    2    0    0 -0.23588953720E+02 -0.17077996462E+02  0.23603106232E+02  0.37486041730E+02  0.00000000000E+00 0.  1.
         11    1    1    2    0    0  0.48953308770E+02  0.46853676066E+02  0.24746983250E+02  0.72139493902E+02  0.00000000000E+00 0. -1.
</event>
<event>
 7    1  0.2686828E-009  0.2698548E+03  0.7561462E-02  0.1101363E+00
         -2   -1    0    0    0  501 -0.00000000000E+00  0.00000000000E+00  0.13571417301E+03  0.13571417301E+03  0.00000000000E+00 0.  1.
          2   -1    0    0  501    0  0.00000000000E+00 -0.00000000000E+00 -0.55738551911E+03  0.55738551911E+03  0.00000000000E+00 0. -1.
         25    2    1    2    0    0  0.24824229743E+03  0.33846725188E+02 -0.17781426274E+03  0.33171584666E+03  0.12509057460E+03 0.  0.
          5    1    3    3  502    0  0.11747210955E+03 -0.38970792949E+02 -0.11613608918E+03  0.16977480035E+03  0.41800000000E+01 0.  1.
         -5    1    3    3    0  502  0.13077018788E+03  0.72817518137E+02 -0.61678173563E+02  0.16194104631E+03  0.41800000000E+01 0.  1.
        -11    1    1    2    0    0 -0.81443889444E+02  0.31043829919E+02 -0.68959238100E+02  0.11114046528E+03  0.00000000000E+00 0.  1.
         11    1    1    2    0    0 -0.16679840799E+03 -0.64890555107E+02 -0.17489784526E+03  0.25024338018E+03  0.00000000000E+00 0. -1.
</event>
<event>
 7    1  0.2686828E-009  0.8956928E+02  0.7561462E-02  0.1303898E+00
         -1   -1    0    0    0  501 -0.00000000000E+00  0.00000000000E+00  0.53627378319E+02  0.53627378319E+02  0.00000000000E+00 0.  1.
          1   -1    0    0  501    0  0.00000000000E+00 -0.00000000000E+00 -0.30960014299E+03  0.30960014299E+03  0.00000000000E+00 0. -1.
         25    2    1    2    0    0  0.55877763362E+02 -0.76453255094E+01 -0.21785282081E+03  0.25746443422E+03  0.12508919982E+03 0.  0.
          5    1    3    3  502    0  0.45403481793E+02  0.22608379665E+02 -0.16443245821E+02  0.53483340613E+02  0.41800000000E+01 0. -1.
         -5    1    3    3    0  502  0.10474281569E+02 -0.30253705175E+02 -0.20140957499E+03  0.20398109361E+03  0.41800000000E+01 0. -1.
        -11    1    1    2    0    0  0.75004805865E+01  0.28317480606E+02 -0.23400707555E+02  0.37493066439E+02  0.00000000000E+00 0. -1.
         11    1    1    2    0    0 -0.63378243948E+02 -0.20672155097E+02 -0.14719236304E+02  0.68270020651E+02  0.00000000000E+00 0.  1.
</event>
<event>
 7    1  0.2686828E-009  0.1167919E+03  0.7561462E-02  0.1248485E+00
         -1   -1    0    0    0  501 -0.00000000000E+00  0.00000000000E+00  0.40347795868E+03  0.40347795868E+03  0.00000000000E+00 0.  1.
          1   -1    0    0  501    0  0.00000000000E+00 -0.00000000000E+00 -0.60810397828E+02  0.60810397828E+02  0.00000000000E+00 0. -1.
         25    2    1    2    0    0 -0.68669839267E+02  0.43586739139E+02  0.29936454375E+03  0.33448795491E+03  0.12509081211E+03 0.  0.
          5    1    3    3  502    0  0.19242089170E+02 -0.18528584736E+02  0.16186536886E+02  0.31512582000E+02  0.41800000000E+01 0. -1.
         -5    1    3    3    0  502 -0.87911928437E+02  0.62115323875E+02  0.28317800686E+03  0.30297537291E+03  0.41800000000E+01 0. -1.
        -11    1    1    2    0    0  0.19720839594E+02  0.13291532468E+02 -0.20426113744E+02  0.31349680577E+02  0.00000000000E+00 0. -1.
         11    1    1    2    0    0  0.48948999673E+02 -0.56878271607E+02  0.63729130844E+02  0.98450721014E+02  0.00000000000E+00 0.  1.
</event>
<event>
 7    1  0.2686828E-009  0.1197334E+03  0.7561462E-02  0.1243537E+00
          1   -1    0    0  501    0  0.00000000000E+00  0.00000000000E+00  0.28323600733E+03  0.28323600733E+03  0.00000000000E+00 0. -1.
         -1   -1    0    0    0  501 -0.00000000000E+00 -0.00000000000E+00 -0.54939950491E+02  0.54939950491E+02  0.00000000000E+00 0.  1.
         25    2    1    2    0    0 -0.58314276686E+01  0.53766281077E+02  0.16610955249E+03  0.21485925810E+03  0.12508916354E+03 0.  0.
          5    1    3    3  502    0 -0.51857307873E+01 -0.40460854554E+02  0.62454655227E+02  0.74712976882E+02  0.41800000000E+01 0. -1.
         -5    1    3    3    0  502 -0.64569688135E+00  0.94227135631E+02  0.10365489726E+03  0.14014628122E+03  0.41800000000E+01 0. -1.
        -11    1    1    2    0    0 -0.18067430509E+02  0.19790693141E+02  0.53239262838E+01  0.27321196373E+02  0.00000000000E+00 0. -1.
         11    1    1    2    0    0  0.23898858178E+02 -0.73556974217E+02  0.56862578067E+02  0.95995503346E+02  0.00000000000E+00 0.  1.
</event>
<event>
 7    1  0.2686828E-009  0.2649219E+03  0.7561462E-02  0.1104222E+00
         -1   -1    0    0    0  501 -0.00000000000E+00  0.00000000000E+00  0.42363242088E+02  0.42363242088E+02  0.00000000000E+00 0.  1.
          1   -1    0    0  501    0  0.00000000000E+00 -0.00000000000E+00 -0.20660611484E+04  0.20660611484E+04  0.00000000000E+00 0. -1.
         25    2    1    2    0    0  0.18866098585E+03 -0.16677235984E+03 -0.14593995888E+04  0.14862364811E+04  0.12508289370E+03 0.  0.
          5    1    3    3  502    0  0.14756335558E+03 -0.59787610499E+02 -0.10075219603E+04  0.10200330756E+04  0.41800000000E+01 0.  1.
         -5    1    3    3    0  502  0.41097630262E+02 -0.10698474934E+03 -0.45187762851E+03  0.46620340555E+03  0.41800000000E+01 0.  1.
        -11    1    1    2    0    0 -0.96252763088E+02  0.54975496510E+02 -0.17957270281E+03  0.21102903879E+03  0.00000000000E+00 0.  1.
         11    1    1    2    0    0 -0.92408222758E+02  0.11179686333E+03 -0.38472561468E+03  0.41115887061E+03  0.00000000000E+00 0. -1.
</event>
<event>
 7    1  0.2686828E-009  0.1063914E+03  0.7561462E-02  0.1267402E+00
         -2   -1    0    0    0  501 -0.00000000000E+00  0.00000000000E+00  0.34288483633E+02  0.34288483633E+02  0.00000000000E+00 0.  1.
          2   -1    0    0  501    0  0.00000000000E+00 -0.00000000000E+00 -0.36731551392E+03  0.36731551392E+03  0.00000000000E+00 0. -1.
         25    2    1    2    0    0  0.17373459687E+01  0.27949297862E+01 -0.13904051951E+03  0.18705576508E+03  0.12508702244E+03 0.  0.
          5    1    3    3  502    0  0.43086539213E+02 -0.44411350783E+02 -0.63519027107E+02  0.88774755107E+02  0.41800000000E+01 0. -1.
         -5    1    3    3    0  502 -0.41349193244E+02  0.47206280569E+02 -0.75521492403E+02  0.98281009976E+02  0.41800000000E+01 0. -1.
        -11    1    1    2    0    0  0.35917281956E+02 -0.25363786713E+02 -0.66565520777E+02  0.79776822297E+02  0.00000000000E+00 0.  1.
         11    1    1    2    0    0 -0.37654627925E+02  0.22568856927E+02 -0.12742099000E+03  0.13477141017E+03  0.00000000000E+00 0. -1.
</event>
<event>
 7    1  0.2686828E-009  0.1019450E+03  0.7561462E-02  0.1276258E+00
         -1   -1    0    0    0  501 -0.00000000000E+00  0.00000000000E+00  0.48016477243E+02  0.48016477243E+02  0.00000000000E+00 0.  1.
          1   -1    0    0  501    0  0.00000000000E+00 -0.00000000000E+00 -0.12881831263E+04  0.12881831263E+04  0.00000000000E+00 0. -1.
         25    2    1    2    0    0 -0.81841221959E+02 -0.13613183878E+02 -0.11994481274E+04  0.12088045469E+04  0.12509723387E+03 0.  0.
          5    1    3    3  502    0 -0.31512670767E+02 -0.63257397940E+01 -0.10569439762E+04  0.10574408279E+04  0.41800000000E+01 0.  1.
         -5    1    3    3    0  502 -0.50328551191E+02 -0.72874440843E+01 -0.14250415118E+03  0.15136371893E+03  0.41800000000E+01 0.  1.
        -11    1    1    2    0    0  0.40612100542E+02  0.50726050631E+02 -0.17799244519E+02  0.67374238612E+02  0.00000000000E+00 0.  1.
         11    1    1    2    0    0  0.41229121416E+02 -0.37112866752E+02 -0.22919277138E+02  0.60020818020E+02  0.00000000000E+00 0. -1.
</event>
<event>
 7    1  0.2686828E-009  0.1921113E+03  0.7561462E-02  0.1156571E+00
         -2   -1    0    0    0  501 -0.00000000000E+00  0.00000000000E+00  0.85092322485E+02  0.85092322485E+02  0.00000000000E+00 0.  1.
          2   -1    0    0  501    0  0.00000000000E+00 -0.00000000000E+00 -0.54350951732E+03  0.54350951732E+03  0.00000000000E+00 0. -1.
         25    2    1    2    0    0 -0.16918207868E+03  0.30096796082E+02 -0.34086964267E+03  0.40170752663E+03  0.12509368797E+03 0.  0.
          5    1    3    3  502    0  0.19467720276E+02 -0.31174717094E+01 -0.43751078623E+02  0.48169908068E+02  0.41800000000E+01 0. -1.
         -5    1    3    3    0  502 -0.18864979896E+03  0.33214267792E+02 -0.29711856405E+03  0.35353761856E+03  0.41800000000E+01 0. -1.
        -11    1    1    2    0    0  0.13024558317E+03 -0.29431483091E+02 -0.12964864808E+03  0.18611527633E+03  0.00000000000E+00 0. -1.
         11    1    1    2    0    0  0.38936495510E+02 -0.66531299095E+00  0.12101095918E+02  0.40779036850E+02  0.00000000000E+00 0.  1.
</event>
<event>
 7    1  0.2686828E-009  0.1147699E+03  0.7561462E-02  0.1251983E+00
         -1   -1    0    0    0  501 -0.00000000000E+00  0.00000000000E+00  0.21169426200E+02  0.21169426200E+02  0.00000000000E+00 0.  1.
          1   -1    0    0  501    0  0.00000000000E+00 -0.00000000000E+00 -0.91038981226E+03  0.91038981226E+03  0.00000000000E+00 0. -1.
         25    2    1    2    0    0 -0.28124692072E+02 -0.81764247360E+02 -0.44219180142E+03  0.46760825232E+03  0.12508995941E+03 0.  0.
          5    1    3    3  502    0  0.16479198556E+02 -0.56924875539E+02 -0.38992535021E+03  0.39442522305E+03  0.41800000000E+01 0.  1.
         -5    1    3    3    0  502 -0.44603890628E+02 -0.24839371821E+02 -0.52266451210E+02  0.73183029274E+02  0.41800000000E+01 0.  1.
        -11    1    1    2    0    0 -0.27256204911E+02  0.11866195420E+02 -0.62396631398E+02  0.69116184137E+02  0.00000000000E+00 0.  1.
         11    1    1    2    0    0  0.55380896983E+02  0.69898051940E+02 -0.38463195324E+03  0.39483480200E+03  0.00000000000E+00 0. -1.
</event>
<event>
 7    1  0.2686828E-009  0.1169936E+03  0.7561462E-02  0.1248141E+00
         -2   -1    0    0    0  501 -0.00000000000E+00  0.00000000000E+00  0.15895028558E+02  0.15895028558E+02  0.00000000000E+00 0.  1.
          2   -1    0    0  501    0  0.00000000000E+00 -0.00000000000E+00 -0.10195045311E+04  0.10195045311E+04  0.00000000000E+00 0. -1.
         25    2    1    2    0    0  0.47490886195E+02  0.45609919702E+02 -0.50831141993E+03  0.52760221930E+03  0.12509177882E+03 0.  0.
          5    1    3    3  502    0 -0.32759857803E+02  0.25043947736E+01 -0.27686370295E+03  0.27883769955E+03  0.41800000000E+01 0. -1.
         -5    1    3    3    0  502  0.80250743998E+02  0.43105524928E+02 -0.23144771698E+03  0.24876451975E+03  0.41800000000E+01 0. -1.
        -11    1    1    2    0    0 -0.48887218947E+02 -0.69925730370E+02 -0.42263059410E+03  0.43115680096E+03  0.00000000000E+00 0. -1.
         11    1    1    2    0    0  0.13963327524E+01  0.24315810668E+02 -0.72667488540E+02  0.76640539431E+02  0.00000000000E+00 0.  1.
</event>
<event>
 7    1  0.2686828E-009  0.1021903E+03  0.7561462E-02  0.1275756E+00
         -1   -1    0    0    0  501 -0.00000000000E+00  0.00000000000E+00  0.12574006459E+03  0.12574006459E+03  0.00000000000E+00 0.  1.
          1   -1    0    0  501    0  0.00000000000E+00 -0.00000000000E+00 -0.14261456169E+03  0.14261456169E+03  0.00000000000E+00 0. -1.
         25    2    1    2    0    0  0.45866874992E+02 -0.10104479395E+02 -0.74270722628E+02  0.15287104327E+03  0.12509014711E+03 0.  0.
          5    1    3    3  502    0  0.73590299115E+02  0.81452629178E+01 -0.89401679341E+02  0.11615511225E+03  0.41800000000E+01 0.  1.
         -5    1    3    3    0  502 -0.27723424123E+02 -0.18249742312E+02  0.15130956714E+02  0.36715931020E+02  0.41800000000E+01 0.  1.
        -11    1    1    2    0    0 -0.67902362461E+02 -0.78383232651E+01  0.53500034808E+02  0.86801059117E+02  0.00000000000E+00 0.  1.
         11    1    1    2    0    0  0.22035487468E+02  0.17942802660E+02  0.38961907161E+01  0.28682523901E+02  0.00000000000E+00 0. -1.
</event>
<event>
 7    1  0.2686828E-009  0.1143475E+03  0.7561462E-02  0.1252724E+00
          1   -1    0    0  501    0  0.00000000000E+00  0.00000000000E+00  0.90290970534E+02  0.90290970534E+02  0.00000000000E+00 0. -1.
         -1   -1    0    0    0  501 -0.00000000000E+00 -0.00000000000E+00 -0.24568726952E+03  0.24568726952E+03  0.00000000000E+00 0.  1.
         25    2    1    2    0    0 -0.59926537270E+02 -0.79433072700E+02 -0.59026861910E+02  0.17038756122E+03  0.12508775993E+03 0.  0.
          5    1    3    3  502    0 -0.59508384483E+02 -0.60772172345E+02 -0.96263809262E+02  0.12852508755E+03  0.41800000000E+01 0.  1.
         -5    1    3    3    0  502 -0.41815278708E+00 -0.18660900355E+02  0.37236947352E+02  0.41862473672E+02  0.41800000000E+01 0.  1.
        -11    1    1    2    0    0 -0.13091712234E+02 -0.38526664643E+01 -0.38029422290E+02  0.40403872684E+02  0.00000000000E+00 0.  1.
         11    1    1    2    0    0  0.73018249504E+02  0.83285739165E+02 -0.58340014782E+02  0.12518680615E+03  0.00000000000E+00 0. -1.
</event>
<event>
 7    1  0.2686828E-009  0.1107806E+03  0.7561462E-02  0.1259131E+00
         -2   -1    0    0    0  501 -0.00000000000E+00  0.00000000000E+00  0.23141937691E+02  0.23141937691E+02  0.00000000000E+00 0. -1.
          2   -1    0    0  501    0  0.00000000000E+00 -0.00000000000E+00 -0.54502117796E+03  0.54502117796E+03  0.00000000000E+00 0.  1.
         25    2    1    2    0    0 -0.38557375525E+01 -0.31651510081E+02 -0.30486040104E+03  0.33106545402E+03  0.12509111047E+03 0.  0.
          5    1    3    3  502    0  0.49792300977E+02  0.20497415170E+02 -0.11991003764E+03  0.13151162227E+03  0.41800000000E+01 0.  1.
         -5    1    3    3    0  502 -0.53648038529E+02 -0.52148925251E+02 -0.18495036340E+03  0.19955383175E+03  0.41800000000E+01 0.  1.
        -11    1    1    2    0    0 -0.41486568860E+02  0.11883915723E+02 -0.13033805907E+03  0.13729665870E+03  0.00000000000E+00 0. -1.
         11    1    1    2    0    0  0.45342306412E+02  0.19767594359E+02 -0.86680780156E+02  0.99801002931E+02  0.00000000000E+00 0.  1.
</event>
<event>
 7    1  0.2686828E-009  0.1055549E+03  0.7561462E-02  0.1269030E+00
          2   -1    0    0  501    0  0.00000000000E+00  0.00000000000E+00  0.68148501245E+03  0.68148501245E+03  0.00000000000E+00 0. -1.
         -2   -1    0    0    0  501 -0.00000000000E+00 -0.00000000000E+00 -0.17835234089E+02  0.17835234089E+02  0.00000000000E+00 0.  1.
         25    2    1    2    0    0 -0.11411842500E+02 -0.23637660856E+02  0.35252717515E+03  0.37498300119E+03  0.12509145776E+03 0.  0.
          5    1    3    3  502    0 -0.41057170622E+02  0.39387301111E+02  0.18205827492E+03  0.19078715527E+03  0.41800000000E+01 0.  1.
         -5    1    3    3    0  502  0.29645328123E+02 -0.63024961966E+02  0.17046890023E+03  0.18419584592E+03  0.41800000000E+01 0.  1.
        -11    1    1    2    0    0  0.40095632757E+02  0.35205815548E+02  0.25228436216E+03  0.25786529159E+03  0.00000000000E+00 0. -1.
         11    1    1    2    0    0 -0.28683790258E+02 -0.11568154692E+02  0.58838241048E+02  0.66471953756E+02  0.00000000000E+00 0.  1.
</event>
<event>
 7    1  0.2686828E-009  0.7377455E+02  0.7561462E-02  0.1347708E+00
          1   -1    0    0  501    0  0.00000000000E+00  0.00000000000E+00  0.68690075165E+03  0.68690075165E+03  0.00000000000E+00 0. -1.
         -1   -1    0    0    0  501 -0.00000000000E+00 -0.00000000000E+00 -0.22532808415E+02  0.22532808415E+02  0.00000000000E+00 0.  1.
         25    2    1    2    0    0  0.42100519543E+02 -0.37571544907E+02  0.44064039426E+03  0.46151485224E+03  0.12509167456E+03 0.  0.
          5    1    3    3  502    0  0.14817696196E+02  0.94914714101E+01  0.37805192480E+03  0.37848432252E+03  0.41800000000E+01 0. -1.
         -5    1    3    3    0  502  0.27282823346E+02 -0.47063016317E+02  0.62588469465E+02  0.83030529714E+02  0.41800000000E+01 0. -1.
        -11    1    1    2    0    0 -0.51580375671E+02  0.20757235795E+02  0.22163544845E+03  0.22850310720E+03  0.00000000000E+00 0. -1.
         11    1    1    2    0    0  0.94798561279E+01  0.16814309112E+02  0.20921005227E+01  0.19415600627E+02  0.00000000000E+00 0.  1.
</event>
<event>
 7    1  0.2686828E-009  0.1199770E+03  0.7561462E-02  0.1243135E+00
          1   -1    0    0  501    0  0.00000000000E+00  0.00000000000E+00  0.45558740737E+03  0.45558740737E+03  0.00000000000E+00 0. -1.
         -1   -1    0    0    0  501 -0.00000000000E+00 -0.00000000000E+00 -0.45048834805E+02  0.45048834805E+02  0.00000000000E+00 0.  1.
         25    2    1    2    0    0  0.33027311241E+02  0.63990854857E+02  0.32644583781E+03  0.35693079829E+03  0.12508827663E+03 0.  0.
          5    1    3    3  502    0  0.63575750693E+02  0.83627138695E+02  0.20940986898E+03  0.23431888535E+03  0.41800000000E+01 0.  1.
         -5    1    3    3    0  502 -0.30548439452E+02 -0.19636283839E+02  0.11703596883E+03  0.12261191294E+03  0.41800000000E+01 0.  1.
        -11    1    1    2    0    0  0.20313362799E+02 -0.11097107852E+02  0.60800437092E+02  0.65057448931E+02  0.00000000000E+00 0. -1.
         11    1    1    2    0    0 -0.53340674040E+02 -0.52893747005E+02  0.23292297654E+02  0.78647994947E+02  0.00000000000E+00 0.  1.
</event>
<event>
 7    1  0.2686828E-009  0.1085498E+03  0.7561462E-02  0.1263279E+00
          1   -1    0    0  501    0  0.00000000000E+00  0.00000000000E+00  0.60409924269E+02  0.60409924269E+02  0.00000000000E+00 0. -1.
         -1   -1    0    0    0  501 -0.00000000000E+00 -0.00000000000E+00 -0.45428612017E+03  0.45428612017E+03  0.00000000000E+00 0.  1.
         25    2    1    2    0    0 -0.40974123063E+02  0.27044311581E+02 -0.38900480138E+03  0.41155730915E+03  0.12507761457E+03 0.  0.
          5    1    3    3  502    0 -0.67078599665E+02 -0.10911548001E+02 -0.11475864369E+03  0.13343769750E+03  0.41800000000E+01 0. -1.
         -5    1    3    3    0  502  0.26104476602E+02  0.37955859582E+02 -0.27424615769E+03  0.27811961165E+03  0.41800000000E+01 0. -1.
        -11    1    1    2    0    0  0.95844732622E+01  0.33345094708E+02  0.18694566562E+01  0.34745536936E+02  0.00000000000E+00 0.  1.
         11    1    1    2    0    0  0.31389649801E+02 -0.60389406289E+02 -0.67408511778E+01  0.68393198355E+02  0.00000000000E+00 0. -1.
</event>
<event>
 7    1  0.2686828E-009  0.7857504E+02  0.7561462E-02  0.1333145E+00
         -2   -1    0    0    0  501 -0.00000000000E+00  0.00000000000E+00  0.75752676729E+02  0.75752676729E+02  0.00000000000E+00 0. -1.
          2   -1    0    0  501    0  0.00000000000E+00 -0.00000000000E+00 -0.29826836315E+03  0.29826836315E+03  0.00000000000E+00 0.  1.
         25    2    1    2    0    0  0.50691339674E+02  0.11201018737E+02 -0.23174799455E+03  0.26842104860E+03  0.12509057364E+03 0.  0.
          5    1    3    3  502    0  0.65378681086E+02  0.71196827012E+01 -0.42280670893E+02  0.78295525756E+02  0.41800000000E+01 0. -1.
         -5    1    3    3    0  502 -0.14687341412E+02  0.40813360356E+01 -0.18946732366E+03  0.19012552284E+03  0.41800000000E+01 0. -1.
        -11    1    1    2    0    0 -0.35290801423E+02  0.20062378519E+02  0.41536998325E+02  0.58079789314E+02  0.00000000000E+00 0. -1.
         11    1    1    2    0    0 -0.15400538251E+02 -0.31263397256E+02 -0.32304690192E+02  0.47520201965E+02  0.00000000000E+00 0.  1.
</event>
<event>
 7    1  0.2686828E-009  0.9904002E+02  0.7561462E-02  0.1282328E+00
         -1   -1    0    0    0  501 -0.00000000000E+00  0.00000000000E+00  0.31275580922E+02  0.31275580922E+02  0.00000000000E+00 0.  1.
          1   -1    0    0  501    0  0.00000000000E+00 -0.00000000000E+00 -0.39036192766E+03  0.39036192766E+03  0.00000000000E+00 0. -1.
         25    2    1    2    0    0  0.25518517992E+01 -0.38375231737E+01 -0.29982055598E+03  0.32490178675E+03  0.12509023428E+03 0.  0.
          5    1    3    3  502    0  0.55364114912E+02  0.28592515888E+02 -0.13431553102E+03  0.14812444585E+03  0.41800000000E+01 0. -1.
         -5    1    3    3    0  502 -0.52812263112E+02 -0.32430039062E+02 -0.16550502496E+03  0.17677734090E+03  0.41800000000E+01 0. -1.
        -11    1    1    2    0    0  0.34697039301E+02  0.91604324614E+01 -0.42268394333E+02  0.55447409485E+02  0.00000000000E+00 0.  1.
         11    1    1    2    0    0 -0.37248891100E+02 -0.53229092876E+01 -0.16997396426E+02  0.41288312350E+02  0.00000000000E+00 0. -1.
</event>
<event>
 7    1  0.2686828E-009  0.1759466E+03  0.7561462E-02  0.1171785E+00
         -1   -1    0    0    0  501 -0.00000000000E+00  0.00000000000E+00  0.10595587797E+03  0.10595587797E+03  0.00000000000E+00 0.  1.
          1   -1    0    0  501    0  0.00000000000E+00 -0.00000000000E+00 -0.38582686472E+03  0.38582686472E+03  0.00000000000E+00 0. -1.
         25    2    1    2    0    0 -0.13496930744E+01  0.14431356603E+03 -0.37568369053E+02  0.19464462639E+03  0.12508765415E+03 0.  0.
          5    1    3    3  502    0  0.46275474201E+02  0.18403474424E+02  0.11538112789E+02  0.51290426301E+02  0.41800000000E+01 0.  1.
         -5    1    3    3    0  502 -0.47625167275E+02  0.12591009160E+03 -0.49106481842E+02  0.14335420009E+03  0.41800000000E+01 0.  1.
        -11    1    1    2    0    0  0.37818509611E+02 -0.11302664515E+03 -0.20145678336E+03  0.23407284709E+03  0.00000000000E+00 0.  1.
         11    1    1    2    0    0 -0.36468816537E+02 -0.31286920877E+02 -0.40845834333E+02  0.63065269205E+02  0.00000000000E+00 0. -1.
</event>
<event>
 7    1  0.2686828E-009  0.1663214E+03  0.7561462E-02  0.1181739E+00
         -2   -1    0    0    0  501 -0.00000000000E+00  0.00000000000E+00  0.98433509379E+03  0.98433509379E+03  0.00000000000E+00 0.  1.
          2   -1    0    0  501    0  0.00000000000E+00 -0.00000000000E+00 -0.49011019644E+02  0.49011019644E+02  0.00000000000E+00 0. -1.
         25    2    1    2    0    0 -0.51721732933E+02 -0.13999551703E+03  0.76708471242E+03  0.79141641382E+03  0.12508837509E+03 0.  0.
          5    1    3    3  502    0  0.58160314304E+01  0.12010607433E+02  0.22601176574E+03  0.22644397003E+03  0.41800000000E+01 0. -1.
         -5    1    3    3    0  502 -0.57537764364E+02 -0.15200612446E+03  0.54107294669E+03  0.56497244378E+03  0.41800000000E+01 0. -1.
        -11    1    1    2    0    0  0.48368902817E+02  0.65095000025E+02  0.14003809703E+03  0.16182576558E+03  0.00000000000E+00 0.  1.
         11    1    1    2    0    0  0.33528301164E+01  0.74900517002E+02  0.28201264697E+02  0.80103934032E+02  0.00000000000E+00 0. -1.
</event>
<event>
 7    1  0.2686828E-009  0.2815736E+03  0.7561462E-02  0.1094833E+00
          1   -1    0    0  501    0  0.00000000000E+00  0.00000000000E+00  0.22892968381E+03  0.22892968381E+03  0.00000000000E+00 0. -1.
         -1   -1    0    0    0  501 -0.00000000000E+00 -0.00000000000E+00 -0.42552599477E+03  0.42552599477E+03  0.00000000000E+00 0.  1.
         25    2    1    2    0    0 -0.12014513042E+03  0.24362504811E+03  0.12247204584E+02  0.29930743792E+03  0.12508769700E+03 0.  0.
          5    1    3    3  502    0  0.67058500948E+01 -0.50514622718E+01  0.17733386894E+02  0.20060685614E+02  0.41800000000E+01 0. -1.
         -5    1    3    3    0  502 -0.12685098052E+03  0.24867651039E+03 -0.54861823101E+01  0.27924675230E+03  0.41800000000E+01 0. -1.
        -11    1    1    2    0    0  0.35561255768E+02 -0.37050345371E+02 -0.86506745806E+02  0.10060192878E+03  0.00000000000E+00 0.  1.
         11    1    1    2    0    0  0.84583874654E+02 -0.20657470274E+03 -0.12233676974E+03  0.25454631189E+03  0.00000000000E+00 0. -1.
</event>
<event>
 7    1  0.2686828E-009  0.1215239E+03  0.7561462E-02  0.1240604E+00
         -1   -1    0    0    0  501 -0.00000000000E+00  0.00000000000E+00  0.12726341415E+03  0.12726341415E+03  0.00000000000E+00 0.  1.
          1   -1    0    0  501    0  0.00000000000E+00 -0.00000000000E+00 -0.12811145949E+03  0.12811145949E+03  0.00000000000E+00 0. -1.
         25    2    1    2    0    0  0.59647123131E+02  0.20514672046E+02 -0.24907071591E+02  0.14229069726E+03  0.12509056417E+03 0.  0.
          5    1    3    3  502    0 -0.34903933590E+02  0.15158936493E+02 -0.28025678335E+02  0.47444588541E+02  0.41800000000E+01 0. -1.
         -5    1    3    3    0  502  0.94551056721E+02  0.53557355528E+01  0.31186067437E+01  0.94846108715E+02  0.41800000000E+01 0. -1.
        -11    1    1    2    0    0  0.20578075283E+02 -0.21470609059E+02  0.11454261791E+02  0.31869175529E+02  0.00000000000E+00 0. -1.
         11    1    1    2    0    0 -0.80225198414E+02  0.95593701285E+00  0.12604764457E+02  0.81215000851E+02  0.00000000000E+00 0.  1.
</event>
<event>
 7    1  0.2686828E-009  0.7650471E+02  0.7561462E-02  0.1339274E+00
          1   -1    0    0  501    0  0.00000000000E+00  0.00000000000E+00  0.49638983585E+03  0.49638983585E+03  0.00000000000E+00 0. -1.
         -1   -1    0    0    0  501 -0.00000000000E+00 -0.00000000000E+00 -0.27082159178E+02  0.27082159178E+02  0.00000000000E+00 0.  1.
         25    2    1    2    0    0 -0.96342579025E+01 -0.24575542298E+02  0.35444667450E+03  0.37679826029E+03  0.12509079779E+03 0.  0.
          5    1    3    3  502    0  0.93136540871E+01  0.28146503476E+02  0.16445028916E+02  0.34159642657E+02  0.41800000000E+01 0. -1.
         -5    1    3    3    0  502 -0.18947911990E+02 -0.52722045774E+02  0.33800164558E+03  0.34263861763E+03  0.41800000000E+01 0. -1.
        -11    1    1    2    0    0  0.32262304511E+02 -0.15840563811E+01  0.10621944564E+03  0.11102223273E+03  0.00000000000E+00 0. -1.
         11    1    1    2    0    0 -0.22628046609E+02  0.26159598679E+02  0.86415565341E+01  0.35651502012E+02  0.00000000000E+00 0.  1.
</event>
<event>
 7    1  0.2686828E-009  0.1099708E+03  0.7561462E-02  0.1260624E+00
         -4   -1    0    0    0  501 -0.00000000000E+00  0.00000000000E+00  0.69784106183E+02  0.69784106183E+02  0.00000000000E+00 0.  1.
          4   -1    0    0  501    0  0.00000000000E+00 -0.00000000000E+00 -0.23582514882E+03  0.23582514882E+03  0.00000000000E+00 0. -1.
         25    2    1    2    0    0  0.12777729004E+02  0.75907313104E+02 -0.76981508603E+02  0.16583071116E+03  0.12509389096E+03 0.  0.
          5    1    3    3  502    0  0.21377875592E+02 -0.16020232629E+02 -0.67750919514E+02  0.72947384554E+02  0.41800000000E+01 0. -1.
         -5    1    3    3    0  502 -0.86001465886E+01  0.91927545733E+02 -0.92305890899E+01  0.92883326602E+02  0.41800000000E+01 0. -1.
        -11    1    1    2    0    0 -0.25050667543E+01  0.11855196773E+02 -0.32950007820E+02  0.35107322104E+02  0.00000000000E+00 0. -1.
         11    1    1    2    0    0 -0.10272662249E+02 -0.87762509877E+02 -0.56109526218E+02  0.10467122175E+03  0.00000000000E+00 0.  1.
</event>
<event>
 7    1  0.2686828E-009  0.2355607E+03  0.7561462E-02  0.1122786E+00
         -4   -1    0    0    0  501 -0.00000000000E+00  0.00000000000E+00  0.22408815656E+03  0.22408815656E+03  0.00000000000E+00 0. -1.
          4   -1    0    0  501    0  0.00000000000E+00 -0.00000000000E+00 -0.25133661082E+03  0.25133661082E+03  0.00000000000E+00 0.  1.
         25    2    1    2    0    0 -0.19534425285E+03 -0.78404530662E+02 -0.10761139376E+02  0.24509279509E+03  0.12509208021E+03 0.  0.
          5    1    3    3  502    0 -0.17647254623E+03 -0.10737324485E+03 -0.23642456437E+02  0.20796156239E+03  0.41800000000E+01 0.  1.
         -5    1    3    3    0  502 -0.18871706618E+02  0.28968714190E+02  0.12881317061E+02  0.37131232699E+02  0.41800000000E+01 0.  1.
        -11    1    1    2    0    0  0.63872917695E+02  0.74528760661E+02 -0.96127734115E+01  0.98623988934E+02  0.00000000000E+00 0.  1.
         11    1    1    2    0    0  0.13147133516E+03  0.38757700006E+01 -0.68745414777E+01  0.13170798336E+03  0.00000000000E+00 0. -1.
</event>
<event>
 7    1  0.2686828E-009  0.1484181E+03  0.7561462E-02  0.1202430E+00
          2   -1    0    0  501    0  0.00000000000E+00  0.00000000000E+00  0.30694425015E+03  0.30694425015E+03  0.00000000000E+00 0.  1.
         -2   -1    0    0    0  501 -0.00000000000E+00 -0.00000000000E+00 -0.14269454478E+03  0.14269454478E+03  0.00000000000E+00 0. -1.
         25    2    1    2    0    0 -0.24173343182E+02  0.14380144985E+03 -0.26079668998E+02  0.19388189909E+03  0.12508730615E+03 0.  0.
          5    1    3    3  502    0  0.43629556285E+01  0.10660858579E+02  0.40457455291E+02  0.42272536901E+02  0.41800000000E+01 0.  1.
         -5    1    3    3    0  502 -0.28536298810E+02  0.13314059127E+03 -0.66537124289E+02  0.15160936219E+03  0.41800000000E+01 0.  1.
        -11    1    1    2    0    0  0.27726987046E+02 -0.84227712486E+02  0.17168524333E+03  0.19323280296E+03  0.00000000000E+00 0.  1.
         11    1    1    2    0    0 -0.35536438641E+01 -0.59573737366E+02  0.18644131038E+02  0.62524092882E+02  0.00000000000E+00 0. -1.
</event>
<event>
 7    1  0.2686828E-009  0.8067224E+02  0.7561462E-02  0.1327154E+00
          1   -1    0    0  501    0  0.00000000000E+00  0.00000000000E+00  0.20049193461E+03  0.20049193461E+03  0.00000000000E+00 0.  1.
         -1   -1    0    0    0  501 -0.00000000000E+00 -0.00000000000E+00 -0.77680635698E+02  0.77680635698E+02  0.00000000000E+00 0. -1.
         25    2    1    2    0    0  0.11111136023E+02 -0.59834022467E+02  0.49347832960E+02  0.14760065893E+03  0.12508868178E+03 0.  0.
          5    1    3    3  502    0  0.75881097957E+01 -0.90064401831E+00  0.80326391560E+02  0.80797228609E+02  0.41800000000E+01 0. -1.
         -5    1    3    3    0  502  0.35230262270E+01 -0.58933378448E+02 -0.30978558600E+02  0.66803430317E+02  0.41800000000E+01 0. -1.
        -11    1    1    2    0    0 -0.29797336778E+02  0.67084652027E+02  0.80858411321E+02  0.10920766685E+03  0.00000000000E+00 0.  1.
         11    1    1    2    0    0  0.18686200756E+02 -0.72506295604E+01 -0.73949453660E+01  0.21364244538E+02  0.00000000000E+00 0. -1.
</event>
<event>
 7    1  0.2686828E-009  0.9476638E+02  0.7561462E-02  0.1291703E+00
         -3   -1    0    0    0  501 -0.00000000000E+00  0.00000000000E+00  0.17379453697E+03  0.17379453697E+03  0.00000000000E+00 0.  1.
          3   -1    0    0  501    0  0.00000000000E+00 -0.00000000000E+00 -0.68271083188E+02  0.68271083188E+02  0.00000000000E+00 0. -1.
         25    2    1    2    0    0  0.25103215639E+02  0.52336733609E+00  0.68246895786E+02  0.14469047270E+03  0.12508896337E+03 0.  0.
          5    1    3    3  502    0 -0.10384768052E+02 -0.52401583319E+02  0.59768496943E+02  0.80271507826E+02  0.41800000000E+01 0.  1.
         -5    1    3    3    0  502  0.35487983691E+02  0.52924950655E+02  0.84783988424E+01  0.64418964872E+02  0.41800000000E+01 0.  1.
        -11    1    1    2    0    0 -0.30555074610E+02  0.28965019014E+02  0.49507164629E+02  0.64988801039E+02  0.00000000000E+00 0.  1.
         11    1    1    2    0    0  0.54518589706E+01 -0.29488386350E+02 -0.12230606633E+02  0.32386346419E+02  0.00000000000E+00 0. -1.
</event>
<event>
 7    1  0.2686828E-009  0.1106290E+03  0.7561462E-02  0.1259409E+00
         -1   -1    0    0    0  501 -0.00000000000E+00  0.00000000000E+00  0.26674952737E+03  0.26674952737E+03  0.00000000000E+00 0.  1.
          1   -1    0    0  501    0  0.00000000000E+00 -0.00000000000E+00 -0.61968337475E+02  0.61968337475E+02  0.00000000000E+00 0. -1.
         25    2    1    2    0    0  0.12896228257E+02  0.67622174188E+02  0.12743574036E+03  0.19138358051E+03  0.12509490727E+03 0.  0.
          5    1    3    3  502    0  0.52284707577E+02  0.65504707963E+02  0.35237977860E+02  0.91015080593E+02  0.41800000000E+01 0. -1.
         -5    1    3    3    0  502 -0.39388479319E+02  0.21174662249E+01  0.92197762499E+02  0.10036849992E+03  0.41800000000E+01 0. -1.
        -11    1    1    2    0    0  0.23736935597E+02 -0.53290988207E+02  0.78711614035E+02  0.97973923671E+02  0.00000000000E+00 0. -1.
         11    1    1    2    0    0 -0.36633163854E+02 -0.14331185981E+02 -0.13661645023E+01  0.39360360657E+02  0.00000000000E+00 0.  1.
</event>
<event>
 7    1  0.2686828E-009  0.9657161E+02  0.7561462E-02  0.1287675E+00
         -1   -1    0    0    0  501 -0.00000000000E+00  0.00000000000E+00  0.13261253887E+03  0.13261253887E+03  0.00000000000E+00 0.  1.
          1   -1    0    0  501    0  0.00000000000E+00 -0.00000000000E+00 -0.10428546203E+03  0.10428546203E+03  0.00000000000E+00 0. -1.
         25    2    1    2    0    0 -0.24662472729E+02  0.30499217460E+02  0.41048031387E+02  0.13736969285E+03  0.12508817613E+03 0.  0.
          5    1    3    3  502    0 -0.91943500572E+01 -0.30124165900E+02 -0.29238113001E+02  0.43178016351E+02  0.41800000000E+01 0.  1.
         -5    1    3    3    0  502 -0.15468122672E+02  0.60623383360E+02  0.70286144388E+02  0.94191676500E+02  0.41800000000E+01 0.  1.
        -11    1    1    2    0    0 -0.27128819882E+02  0.13869169109E+02 -0.25251334559E+01  0.30572913157E+02  0.00000000000E+00 0.  1.
         11    1    1    2    0    0  0.51791292611E+02 -0.44368386569E+02 -0.10195821090E+02  0.68955394893E+02  0.00000000000E+00 0. -1.
</event>
<event>
 7    1  0.2686828E-009  0.1169415E+03  0.7561462E-02  0.1248230E+00
          2   -1    0    0  501    0  0.00000000000E+00  0.00000000000E+00  0.81793596765E+03  0.81793596765E+03  0.00000000000E+00 0. -1.
         -2   -1    0    0    0  501 -0.00000000000E+00 -0.00000000000E+00 -0.17777300622E+02  0.17777300622E+02  0.00000000000E+00 0.  1.
         25    2    1    2    0    0 -0.23031215880E+02 -0.40941535747E+02  0.54255912592E+03  0.55877094994E+03  0.12509165890E+03 0.  0.
          5    1    3    3  502    0  0.10262166479E+02 -0.80670355857E+02  0.34547205090E+03  0.35493862671E+03  0.41800000000E+01 0. -1.
         -5    1    3    3    0  502 -0.33293382359E+02  0.39728820110E+02  0.19708707501E+03  0.20383232323E+03  0.41800000000E+01 0. -1.
        -11    1    1    2    0    0 -0.22817749273E+02  0.48859242003E+02  0.11663057882E+03  0.12849345169E+03  0.00000000000E+00 0. -1.
         11    1    1    2    0    0  0.45848965153E+02 -0.79177062564E+01  0.14096896229E+03  0.14844886664E+03  0.00000000000E+00 0.  1.
</event>
<event>
 7    1  0.2686828E-009  0.1062592E+03  0.7561462E-02  0.1267658E+00
         -2   -1    0    0    0  501 -0.00000000000E+00  0.00000000000E+00  0.21791173926E+03  0.21791173926E+03  0.00000000000E+00 0. -1.
          2   -1    0    0  501    0  0.00000000000E+00 -0.00000000000E+00 -0.97541112317E+02  0.97541112317E+02  0.00000000000E+00 0.  1.
         25    2    1    2    0    0  0.95880831868E+01  0.11829697915E+01  0.17081450896E+03  0.21193975229E+03  0.12509009302E+03 0.  0.
          5    1    3    3  502    0 -0.48239472174E+02  0.30955711464E+02  0.10256575750E+03  0.11756917010E+03  0.41800000000E+01 0. -1.
         -5    1    3    3    0  502  0.57827555361E+02 -0.29772741673E+02  0.68248751462E+02  0.94370582185E+02  0.41800000000E+01 0. -1.
        -11    1    1    2    0    0 -0.12635664861E+01  0.43955128287E+02 -0.19158227886E+02  0.47965483410E+02  0.00000000000E+00 0. -1.
         11    1    1    2    0    0 -0.83245167007E+01 -0.45138098078E+02 -0.31285654125E+02  0.55547615884E+02  0.00000000000E+00 0.  1.
</event>
<event>
 7    1  0.2686828E-009  0.1582342E+03  0.7561462E-02  0.1190705E+00
         -2   -1    0    0    0  501 -0.00000000000E+00  0.00000000000E+00  0.35113224587E+02  0.35113224587E+02  0.00000000000E+00 0.  1.
          2   -1    0    0  501    0  0.00000000000E+00 -0.00000000000E+00 -0.92273361121E+03  0.92273361121E+03  0.00000000000E+00 0. -1.
         25    2    1    2    0    0  0.12991635148E+03 -0.66500596472E+02 -0.49283646782E+03  0.52899350707E+03  0.12508300763E+03 0.  0.
          5    1    3    3  502    0  0.58210300239E+02 -0.13336687180E+02 -0.38179516633E+03  0.38645999497E+03  0.41800000000E+01 0. -1.
         -5    1    3    3    0  502  0.71706051239E+02 -0.53163909292E+02 -0.11104130149E+03  0.14253351210E+03  0.41800000000E+01 0. -1.
        -11    1    1    2    0    0 -0.13567939112E+03  0.41939967241E+02 -0.32602134335E+03  0.35560901893E+03  0.00000000000E+00 0. -1.
         11    1    1    2    0    0  0.57630396403E+01  0.24560629231E+02 -0.68762575446E+02  0.73244309787E+02  0.00000000000E+00 0.  1.
</event>
<event>
 7    1  0.2686828E-009  0.1207172E+03  0.7561462E-02  0.1241919E+00
          1   -1    0    0  501    0  0.00000000000E+00  0.00000000000E+00  0.16917277289E+03  0.16917277289E+03  0.00000000000E+00 0. -1.
         -1   -1    0    0    0  501 -0.00000000000E+00 -0.00000000000E+00 -0.10372262231E+03  0.10372262231E+03  0.00000000000E+00 0.  1.
         25    2    1    2    0    0 -0.46254463539E+02 -0.44251205762E+02 -0.55069238435E+01  0.14062483447E+03  0.12508946099E+03 0.  0.
          5    1    3    3  502    0  0.77935301770E+01  0.37098984292E+02 -0.17817673387E+02  0.42095316046E+02  0.41800000000E+01 0. -1.
         -5    1    3    3    0  502 -0.54047993716E+02 -0.81350190053E+02  0.12310749543E+02  0.98529518423E+02  0.41800000000E+01 0. -1.
        -11    1    1    2    0    0  0.66263365933E+02  0.11639706700E+02  0.23395119077E+02  0.71229544667E+02  0.00000000000E+00 0.  1.
         11    1    1    2    0    0 -0.20008902394E+02  0.32611499062E+02  0.47561955350E+02  0.61041016070E+02  0.00000000000E+00 0. -1.
</event>
<event>
 7    1  0.2686828E-009  0.8852513E+02  0.7561462E-02  0.1306463E+00
          3   -1    0    0  501    0  0.00000000000E+00  0.00000000000E+00  0.15717335033E+03  0.15717335033E+03  0.00000000000E+00 0. -1.
         -3   -1    0    0    0  501 -0.00000000000E+00 -0.00000000000E+00 -0.87008082668E+02  0.87008082668E+02  0.00000000000E+00 0.  1.
         25    2    1    2    0    0 -0.13059762146E+02  0.14780463523E+02  0.17128600848E+00  0.12664042675E+03  0.12509495937E+03 0.  0.
          5    1    3    3  502    0  0.32260590487E+02 -0.10017838037E+02  0.46157437620E+02  0.57350538142E+02  0.41800000000E+01 0.  1.
         -5    1    3    3    0  502 -0.45320352634E+02  0.24798301560E+02 -0.45986151611E+02  0.69289888607E+02  0.41800000000E+01 0.  1.
        -11    1    1    2    0    0 -0.34892445458E+02 -0.24003030277E+02  0.17436852139E+02  0.45800349617E+02  0.00000000000E+00 0.  1.
         11    1    1    2    0    0  0.47952207604E+02  0.92225667542E+01  0.52557129518E+02  0.71740656638E+02  0.00000000000E+00 0. -1.
</event>
<event>
 7    1  0.2686828E-009  0.1673552E+03  0.7561462E-02  0.1180634E+00
          2   -1    0    0  501    0  0.00000000000E+00  0.00000000000E+00  0.12869773576E+04  0.12869773576E+04  0.00000000000E+00 0. -1.
         -2   -1    0    0    0  501 -0.00000000000E+00 -0.00000000000E+00 -0.30556277712E+02  0.30556277712E+02  0.00000000000E+00 0.  1.
         25    2    1    2    0    0  0.15519174864E+03 -0.91824915804E+01  0.46655590205E+03  0.50743320360E+03  0.12508097130E+03 0.  0.
          5    1    3    3  502    0  0.30334721744E+02 -0.26379693658E+01  0.74993157309E+01  0.31636472023E+02  0.41800000000E+01 0. -1.
         -5    1    3    3    0  502  0.12485702689E+03 -0.65445222146E+01  0.45905658632E+03  0.47579673157E+03  0.41800000000E+01 0. -1.
        -11    1    1    2    0    0 -0.20979397070E+02 -0.32198676560E+02  0.13624829346E+03  0.14156442825E+03  0.00000000000E+00 0.  1.
         11    1    1    2    0    0 -0.13421235157E+03  0.41381168141E+02  0.65361688437E+03  0.66853600346E+03  0.00000000000E+00 0. -1.
</event>
<event>
 7    1  0.2686828E-009  0.5797404E+02  0.7561462E-02  0.1406536E+00
         -2   -1    0    0    0  501 -0.00000000000E+00  0.00000000000E+00  0.35345109077E+03  0.35345109077E+03  0.00000000000E+00 0.  1.
          2   -1    0    0  501    0  0.00000000000E+00 -0.00000000000E+00 -0.31134097249E+02  0.31134097249E+02  0.00000000000E+00 0. -1.
         25    2    1    2    0    0 -0.46237774779E+01  0.80679342625E+01  0.27118290163E+03  0.29878795931E+03  0.12509039775E+03 0.  0.
          5    1    3    3  502    0  0.28563547531E+02  0.28286959317E+02  0.20955152415E+02  0.45526026926E+02  0.41800000000E+01 0. -1.
         -5    1    3    3    0  502 -0.33187325009E+02 -0.20219025055E+02  0.25022774922E+03  0.25326193238E+03  0.41800000000E+01 0. -1.
        -11    1    1    2    0    0 -0.12893193630E+02  0.57672310609E+01 -0.12188065945E+02  0.18655946708E+02  0.00000000000E+00 0. -1.
         11    1    1    2    0    0  0.17516971108E+02 -0.13835165323E+02  0.63322157828E+02  0.67141281998E+02  0.00000000000E+00 0.  1.
</event>
<event>
 7    1  0.2686828E-009  0.2703196E+03  0.7561462E-02  0.1101097E+00
         -2   -1    0    0    0  501 -0.00000000000E+00  0.00000000000E+00  0.71854576514E+03  0.71854576514E+03  0.00000000000E+00 0.  1.
          2   -1    0    0  501    0  0.00000000000E+00 -0.00000000000E+00 -0.11195791240E+03  0.11195791240E+03  0.00000000000E+00 0. -1.
         25    2    1    2    0    0 -0.26254370053E+03 -0.50137432410E+01  0.31790930883E+03  0.43089203534E+03  0.12508910892E+03 0.  0.
          5    1    3    3  502    0 -0.69806128205E+01  0.19638250696E+02 -0.12068039490E+01  0.21291280410E+02  0.41800000000E+01 0.  1.
         -5    1    3    3    0  502 -0.25556308771E+03 -0.24651993937E+02  0.31911611278E+03  0.40960075493E+03  0.41800000000E+01 0.  1.
        -11    1    1    2    0    0  0.85385325495E+02  0.72164724925E+00  0.15740965537E+03  0.17907812314E+03  0.00000000000E+00 0.  1.
         11    1    1    2    0    0  0.17715837503E+03  0.42920959918E+01  0.13126888853E+03  0.22053351906E+03  0.00000000000E+00 0. -1.
</event>
<event>
 7    1  0.2686828E-009  0.8837561E+02  0.7561462E-02  0.1306834E+00
          2   -1    0    0  501    0  0.00000000000E+00  0.00000000000E+00  0.26704087809E+02  0.26704087809E+02  0.00000000000E+00 0. -1.
         -2   -1    0    0    0  501 -0.00000000000E+00 -0.00000000000E+00 -0.58597111258E+03  0.58597111258E+03  0.00000000000E+00 0.  1.
         25    2    1    2    0    0  0.20968613468E+02 -0.57410092689E+02 -0.27760429187E+03  0.31055868817E+03  0.12508778693E+03 0.  0.
          5    1    3    3  502    0  0.76549302501E+01 -0.52734511014E+02 -0.27664037038E+02  0.60185529443E+02  0.41800000000E+01 0.  1.
         -5    1    3    3    0  502  0.13313683218E+02 -0.46755816750E+01 -0.24994025483E+03  0.25037315873E+03  0.41800000000E+01 0.  1.
        -11    1    1    2    0    0  0.17882415068E+01 -0.23992832652E+02 -0.49286444520E+02  0.54845304628E+02  0.00000000000E+00 0.  1.
         11    1    1    2    0    0 -0.22756854975E+02  0.81402925341E+02 -0.23237628838E+03  0.24727120760E+03  0.00000000000E+00 0. -1.
</event>
<event>
 7    1  0.2686828E-009  0.1734186E+03  0.7561462E-02  0.1174329E+00
         -1   -1    0    0    0  501 -0.00000000000E+00  0.00000000000E+00  0.50961974504E+02  0.50961974504E+02  0.00000000000E+00 0.  1.
          1   -1    0    0  501    0  0.00000000000E+00 -0.00000000000E+00 -0.83179508991E+03  0.83179508991E+03  0.00000000000E+00 0. -1.
         25    2    1    2    0    0 -0.89196685291E+02 -0.13778521678E+03 -0.53157218837E+03  0.57022688492E+03  0.12509554034E+03 0.  0.
          5    1    3    3  502    0 -0.25427105852E+02 -0.35364115692E+02 -0.27005885723E+02  0.51419341248E+02  0.41800000000E+01 0.  1.
         -5    1    3    3    0  502 -0.63769579439E+02 -0.10242110109E+03 -0.50456630264E+03  0.51880754367E+03  0.41800000000E+01 0.  1.
        -11    1    1    2    0    0  0.41197474755E+02  0.12651376359E+03 -0.14264455322E+03  0.19506520158E+03  0.00000000000E+00 0.  1.
         11    1    1    2    0    0  0.47999210536E+02  0.11271453185E+02 -0.10661637382E+03  0.11746497791E+03  0.00000000000E+00 0. -1.
</event>
<event>
 7    1  0.2686828E-009  0.1067357E+03  0.7561462E-02  0.1266737E+00
          2   -1    0    0  501    0  0.00000000000E+00  0.00000000000E+00  0.30061460396E+03  0.30061460396E+03  0.00000000000E+00 0. -1.
         -2   -1    0    0    0  501 -0.00000000000E+00 -0.00000000000E+00 -0.60908057385E+02  0.60908057385E+02  0.00000000000E+00 0.  1.
         25    2    1    2    0    0 -0.22559415909E+02 -0.68278532976E+02  0.17456674442E+03  0.22647650577E+03  0.12508866495E+03 0.  0.
          5    1    3    3  502    0 -0.67891000259E+02 -0.47680550292E+02  0.14841463399E+03  0.17007938962E+03  0.41800000000E+01 0. -1.
         -5    1    3    3    0  502  0.45331584350E+02 -0.20597982684E+02  0.26152110434E+02  0.56397116154E+02  0.41800000000E+01 0. -1.
        -11    1    1    2    0    0 -0.99653524917E+01  0.14690428503E+02  0.69958111272E+02  0.72175163821E+02  0.00000000000E+00 0. -1.
         11    1    1    2    0    0  0.32524768401E+02  0.53588104473E+02 -0.48183091199E+01  0.62870991747E+02  0.00000000000E+00 0.  1.
</event>
<event>
 7    1  0.2686828E-009  0.8523948E+02  0.7561462E-02  0.1314807E+00
          1   -1    0    0  501    0  0.00000000000E+00  0.00000000000E+00  0.40428818469E+03  0.40428818469E+03  0.00000000000E+00 0. -1.
         -1   -1    0    0    0  501 -0.00000000000E+00 -0.00000000000E+00 -0.30765295603E+02  0.30765295603E+02  0.00000000000E+00 0.  1.
         25    2    1    2    0    0  0.18672003685E+02 -0.20624567119E+02  0.20381854073E+03  0.24075550161E+03  0.12508875858E+03 0.  0.
          5    1    3    3  502    0 -0.51508109290E+02 -0.93020522514E+01  0.56518251035E+02  0.77145308339E+02  0.41800000000E+01 0.  1.
         -5    1    3    3    0  502  0.70180112974E+02 -0.11322514868E+02  0.14730028969E+03  0.16361019327E+03  0.41800000000E+01 0.  1.
        -11    1    1    2    0    0 -0.30185413637E+01 -0.11036201634E+02 -0.74525599002E+01  0.13654669075E+02  0.00000000000E+00 0.  1.
         11    1    1    2    0    0 -0.15653462321E+02  0.31660768753E+02  0.17715690826E+03  0.18064330960E+03  0.00000000000E+00 0. -1.
</event>
<event>
 7    1  0.2686828E-009  0.9465094E+02  0.7561462E-02  0.1291964E+00
          2   -1    0    0  501    0  0.00000000000E+00  0.00000000000E+00  0.18572557923E+03  0.18572557923E+03  0.00000000000E+00 0.  1.
         -2   -1    0    0    0  501 -0.00000000000E+00 -0.00000000000E+00 -0.84747440621E+02  0.84747440621E+02  0.00000000000E+00 0. -1.
         25    2    1    2    0    0  0.25314459360E+02  0.54208822619E+02  0.78753957904E+02  0.15946449718E+03  0.12508925482E+03 0.  0.
          5    1    3    3  502    0  0.10813445597E+02 -0.30933173178E+02  0.63614075116E+02  0.71679946717E+02  0.41800000000E+01 0. -1.
         -5    1    3    3    0  502  0.14501013763E+02  0.85141995797E+02  0.15139882788E+02  0.87784550459E+02  0.41800000000E+01 0. -1.
        -11    1    1    2    0    0  0.89431403658E+01 -0.17080865725E+02  0.49836991994E+02  0.53436518454E+02  0.00000000000E+00 0.  1.
         11    1    1    2    0    0 -0.34257599726E+02 -0.37127956894E+02 -0.27612811292E+02  0.57572004217E+02  0.00000000000E+00 0. -1.
</event>
<event>
 7    1  0.2686828E-009  0.8921645E+02  0.7561462E-02  0.1304760E+00
          2   -1    0    0  501    0  0.00000000000E+00  0.00000000000E+00  0.42599008954E+03  0.42599008954E+03  0.00000000000E+00 0. -1.
         -2   -1    0    0    0  501 -0.00000000000E+00 -0.00000000000E+00 -0.30679326189E+02  0.30679326189E+02  0.00000000000E+00 0.  1.
         25    2    1    2    0    0  0.54471508980E+01  0.29348632053E+02  0.18874304873E+03  0.22839015061E+03  0.12508840392E+03 0.  0.
          5    1    3    3  502    0  0.22888425428E+02 -0.28641802969E+02  0.15418975268E+03  0.15854395330E+03  0.41800000000E+01 0. -1.
         -5    1    3    3    0  502 -0.17441274530E+02  0.57990435022E+02  0.34553296053E+02  0.69846197315E+02  0.41800000000E+01 0. -1.
        -11    1    1    2    0    0  0.20445290670E+02 -0.45798598820E+02  0.18256376887E+03  0.18932789353E+03  0.00000000000E+00 0. -1.
         11    1    1    2    0    0 -0.25892441568E+02  0.16449966767E+02  0.24003945750E+02  0.38951371588E+02  0.00000000000E+00 0.  1.
</event>
<event>
 7    1  0.2686828E-009  0.1160365E+03  0.7561462E-02  0.1249783E+00
         -2   -1    0    0    0  501 -0.00000000000E+00  0.00000000000E+00  0.27967127353E+03  0.27967127353E+03  0.00000000000E+00 0.  1.
          2   -1    0    0  501    0  0.00000000000E+00 -0.00000000000E+00 -0.58967754675E+02  0.58967754675E+02  0.00000000000E+00 0. -1.
         25    2    1    2    0    0 -0.32863367518E+02 -0.30217837425E+02  0.19081621349E+03  0.23249040892E+03  0.12509134378E+03 0.  0.
          5    1    3    3  502    0 -0.28250457301E+02  0.47113675888E+02  0.84613058267E+02  0.10096845459E+03  0.41800000000E+01 0. -1.
         -5    1    3    3    0  502 -0.46129102171E+01 -0.77331513313E+02  0.10620315522E+03  0.13152195433E+03  0.41800000000E+01 0. -1.
        -11    1    1    2    0    0  0.63477415775E+02  0.25566901269E+02  0.95354651804E+01  0.69093949447E+02  0.00000000000E+00 0.  1.
         11    1    1    2    0    0 -0.30614048257E+02  0.46509361554E+01  0.20351840187E+02  0.37054669838E+02  0.00000000000E+00 0. -1.
</event>
<event>
 7    1  0.2686828E-009  0.8896830E+02  0.7561462E-02  0.1305370E+00
          2   -1    0    0  501    0  0.00000000000E+00  0.00000000000E+00  0.23817592898E+03  0.23817592898E+03  0.00000000000E+00 0. -1.
         -2   -1    0    0    0  501 -0.00000000000E+00 -0.00000000000E+00 -0.38650831818E+02  0.38650831818E+02  0.00000000000E+00 0.  1.
         25    2    1    2    0    0 -0.21784055717E+02 -0.23334481245E+02  0.11532236736E+03  0.17310595346E+03  0.12508948642E+03 0.  0.
          5    1    3    3  502    0  0.35206662211E+02  0.29395950298E+02  0.20315768437E+02  0.50337201006E+02  0.41800000000E+01 0.  1.
         -5    1    3    3    0  502 -0.56990717928E+02 -0.52730431543E+02  0.95006598923E+02  0.12276875246E+03  0.41800000000E+01 0.  1.
        -11    1    1    2    0    0 -0.17032404673E+01  0.29733546444E+02  0.22307006488E+02  0.37210043680E+02  0.00000000000E+00 0. -1.
         11    1    1    2    0    0  0.23487296184E+02 -0.63990651991E+01  0.61895723314E+02  0.66510763656E+02  0.00000000000E+00 0.  1.
</event>
<event>
 7    1  0.2686828E-009  0.1006446E+03  0.7561462E-02  0.1278946E+00
          2   -1    0    0  501    0  0.00000000000E+00  0.00000000000E+00  0.41708069194E+03  0.41708069194E+03  0.00000000000E+00 0.  1.
         -2   -1    0    0    0  501 -0.00000000000E+00 -0.00000000000E+00 -0.38117718029E+02  0.38117718029E+02  0.00000000000E+00 0. -1.
         25    2    1    2    0    0 -0.16510720149E+02 -0.21560504883E+02  0.32126363116E+03  0.34582601901E+03  0.12509138846E+03 0.  0.
          5    1    3    3  502    0 -0.60458493950E+02 -0.42744870644E+02  0.23740031464E+03  0.24871416375E+03  0.41800000000E+01 0.  1.
         -5    1    3    3    0  502  0.43947773801E+02  0.21184365760E+02  0.83863316517E+02  0.97111855260E+02  0.41800000000E+01 0.  1.
        -11    1    1    2    0    0  0.40843636584E+02  0.31799643315E+02  0.70301126407E+01  0.52238323557E+02  0.00000000000E+00 0. -1.
         11    1    1    2    0    0 -0.24332916435E+02 -0.10239138431E+02  0.50669230112E+02  0.57134067404E+02  0.00000000000E+00 0.  1.
</event>
<event>
 7    1  0.2686828E-009  0.1039518E+03  0.7561462E-02  0.1272199E+00
         -4   -1    0    0    0  501 -0.00000000000E+00  0.00000000000E+00  0.30145596641E+03  0.30145596641E+03  0.00000000000E+00 0.  1.
          4   -1    0    0  501    0  0.00000000000E+00 -0.00000000000E+00 -0.55767909265E+02  0.55767909265E+02  0.00000000000E+00 0. -1.
         25    2    1    2    0    0 -0.92087451010E+00  0.15148997065E+02  0.22600136734E+03  0.25875564729E+03  0.12509007491E+03 0.  0.
          5    1    3    3  502    0 -0.23343012211E+01 -0.54928889100E+02  0.11261367002E+03  0.12538717197E+03  0.41800000000E+01 0.  1.
         -5    1    3    3    0  502  0.14134267110E+01  0.70077886165E+02  0.11338769732E+03  0.13336847532E+03  0.41800000000E+01 0.  1.
        -11    1    1    2    0    0 -0.44672479108E+01  0.33402650208E+02 -0.16647304632E+02  0.37587579017E+02  0.00000000000E+00 0. -1.
         11    1    1    2    0    0  0.53881224209E+01 -0.48551647273E+02  0.36333994442E+02  0.60880649375E+02  0.00000000000E+00 0.  1.
</event>
<event>
 7    1  0.2686828E-009  0.1208397E+03  0.7561462E-02  0.1241718E+00
         -1   -1    0    0    0  501 -0.00000000000E+00  0.00000000000E+00  0.45720701089E+03  0.45720701089E+03  0.00000000000E+00 0.  1.
          1   -1    0    0  501    0  0.00000000000E+00 -0.00000000000E+00 -0.58980232010E+02  0.58980232010E+02  0.00000000000E+00 0. -1.
         25    2    1    2    0    0  0.71003651858E+02 -0.50626887749E+02  0.76749611409E+02  0.17071651413E+03  0.12509606311E+03 0.  0.
          5    1    3    3  502    0  0.12972201047E+02 -0.84005796963E+02  0.37495403702E+02  0.92998008700E+02  0.41800000000E+01 0. -1.
         -5    1    3    3    0  502  0.58031450810E+02  0.33378909214E+02  0.39254207708E+02  0.77718505429E+02  0.41800000000E+01 0. -1.
        -11    1    1    2    0    0 -0.61831241384E+02  0.34135888119E+02  0.31865770350E+03  0.32639101285E+03  0.00000000000E+00 0.  1.
         11    1    1    2    0    0 -0.91724104735E+01  0.16490999630E+02  0.28194639732E+01  0.19079715925E+02  0.00000000000E+00 0. -1.
</event>
<event>
 7    1  0.2686828E-009  0.1313276E+03  0.7561462E-02  0.1225499E+00
          1   -1    0    0  501    0  0.00000000000E+00  0.00000000000E+00  0.43827712600E+03  0.43827712600E+03  0.00000000000E+00 0. -1.
         -1   -1    0    0    0  501 -0.00000000000E+00 -0.00000000000E+00 -0.42883395349E+02  0.42883395349E+02  0.00000000000E+00 0.  1.
         25    2    1    2    0    0  0.51747258588E+01 -0.83561560964E+02  0.20062276422E+03  0.25080547449E+03  0.12507829649E+03 0.  0.
          5    1    3    3  502    0  0.41549755521E+02  0.14111620810E+02  0.41504233131E+02  0.60544147476E+02  0.41800000000E+01 0. -1.
         -5    1    3    3    0  502 -0.36375029662E+02 -0.97673181774E+02  0.15911853109E+03  0.19026132701E+03  0.41800000000E+01 0. -1.
        -11    1    1    2    0    0 -0.36309018436E+02  0.15613050573E+02  0.30646526413E+02  0.50013215745E+02  0.00000000000E+00 0.  1.
         11    1    1    2    0    0  0.31134292577E+02  0.67948510391E+02  0.16412444001E+03  0.18034183111E+03  0.00000000000E+00 0. -1.
</event>
<event>
 7    1  0.2686828E-009  0.1230927E+03  0.7561462E-02  0.1238081E+00
         -2   -1    0    0    0  501 -0.00000000000E+00  0.00000000000E+00  0.15371073730E+02  0.15371073730E+02  0.00000000000E+00 0.  1.
          2   -1    0    0  501    0  0.00000000000E+00 -0.00000000000E+00 -0.12529968269E+04  0.12529968269E+04  0.00000000000E+00 0. -1.
         25    2    1    2    0    0 -0.63074811932E+02 -0.55413352872E+02 -0.67072384579E+03  0.68743605165E+03  0.12509506872E+03 0.  0.
          5    1    3    3  502    0 -0.65735257758E+02 -0.75232220113E+02 -0.30152587655E+03  0.31767331913E+03  0.41800000000E+01 0.  1.
         -5    1    3    3    0  502  0.26604458254E+01  0.19818867241E+02 -0.36919796924E+03  0.36976273252E+03  0.41800000000E+01 0.  1.
        -11    1    1    2    0    0 -0.23298764062E+02  0.29183819565E+00 -0.77886455951E+02  0.81297094641E+02  0.00000000000E+00 0.  1.
         11    1    1    2    0    0  0.86373575994E+02  0.55121514676E+02 -0.48901545141E+03  0.49963475432E+03  0.00000000000E+00 0. -1.
</event>
<event>
 7    1  0.2686828E-009  0.9609069E+02  0.7561462E-02  0.1288738E+00
         -4   -1    0    0    0  501 -0.00000000000E+00  0.00000000000E+00  0.16401934308E+03  0.16401934308E+03  0.00000000000E+00 0.  1.
          4   -1    0    0  501    0  0.00000000000E+00 -0.00000000000E+00 -0.82752594140E+02  0.82752594140E+02  0.00000000000E+00 0. -1.
         25    2    1    2    0    0 -0.47398730421E+02 -0.10373700789E+01  0.57985330302E+02  0.14580057442E+03  0.12509113953E+03 0.  0.
          5    1    3    3  502    0 -0.87401904117E+02 -0.13770944289E+02  0.24405165594E+02  0.91879357081E+02  0.41800000000E+01 0. -1.
         -5    1    3    3    0  502  0.40003173696E+02  0.12733574210E+02  0.33580164707E+02  0.53921217342E+02  0.41800000000E+01 0. -1.
        -11    1    1    2    0    0  0.16626594150E+02  0.19423235765E+02 -0.28311598547E+02  0.38147769698E+02  0.00000000000E+00 0. -1.
         11    1    1    2    0    0  0.30772136271E+02 -0.18385865686E+02  0.51593017189E+02  0.62823593103E+02  0.00000000000E+00 0.  1.
</event>
<event>
 7    1  0.2686828E-009  0.1541779E+03  0.7561462E-02  0.1195431E+00
          2   -1    0    0  501    0  0.00000000000E+00  0.00000000000E+00  0.10770213781E+04  0.10770213781E+04  0.00000000000E+00 0. -1.
         -2   -1    0    0    0  501 -0.00000000000E+00 -0.00000000000E+00 -0.24345380924E+02  0.24345380924E+02  0.00000000000E+00 0.  1.
         25    2    1    2    0    0  0.84929635894E+02  0.75155586775E+02  0.48476891483E+03  0.51333424784E+03  0.12509893665E+03 0.  0.
          5    1    3    3  502    0 -0.92734797251E+01 -0.19757702481E+02  0.20720630942E+02  0.30383896725E+02  0.41800000000E+01 0.  1.
         -5    1    3    3    0  502  0.94203115619E+02  0.94913289257E+02  0.46404828389E+03  0.48295035112E+03  0.41800000000E+01 0.  1.
        -11    1    1    2    0    0  0.10461199802E+02 -0.53513579693E+02  0.18965006865E+03  0.19733293809E+03  0.00000000000E+00 0. -1.
         11    1    1    2    0    0 -0.95390835695E+02 -0.21642007082E+02  0.37825701365E+03  0.39069957305E+03  0.00000000000E+00 0.  1.
</event>
<event>
 7    1  0.2686828E-009  0.1293458E+03  0.7561462E-02  0.1228430E+00
          2   -1    0    0  501    0  0.00000000000E+00  0.00000000000E+00  0.69971440598E+03  0.69971440598E+03  0.00000000000E+00 0. -1.
         -2   -1    0    0    0  501 -0.00000000000E+00 -0.00000000000E+00 -0.32460191373E+02  0.32460191373E+02  0.00000000000E+00 0.  1.
         25    2    1    2    0    0 -0.27689710949E+02 -0.99426336842E+02  0.34265252669E+03  0.37909121910E+03  0.12508829601E+03 0.  0.
          5    1    3    3  502    0 -0.62650248170E+02 -0.43065678858E+02  0.90202658232E+02  0.11804108710E+03  0.41800000000E+01 0. -1.
         -5    1    3    3    0  502  0.34960537221E+02 -0.56360657984E+02  0.25244986846E+03  0.26105013200E+03  0.41800000000E+01 0. -1.
        -11    1    1    2    0    0  0.31662058773E+02  0.21966382014E+02  0.21726524096E+03  0.22065627758E+03  0.00000000000E+00 0. -1.
         11    1    1    2    0    0 -0.39723478234E+01  0.77459954827E+02  0.10733644696E+03  0.13242710068E+03  0.00000000000E+00 0.  1.
</event>
<event>
 7    1  0.2686828E-009  0.2644075E+03  0.7561462E-02  0.1104524E+00
         -1   -1    0    0    0  501 -0.00000000000E+00  0.00000000000E+00  0.10457569038E+03  0.10457569038E+03  0.00000000000E+00 0.  1.
          1   -1    0    0  501    0  0.00000000000E+00 -0.00000000000E+00 -0.79039552988E+03  0.79039552988E+03  0.00000000000E+00 0. -1.
         25    2    1    2    0    0  0.13767107340E+03 -0.20730425206E+03 -0.20488412801E+03  0.34576874418E+03  0.12510052425E+03 0.  0.
          5    1    3    3  502    0  0.14469176570E+03 -0.11310208646E+03 -0.12792606689E+03  0.22385338955E+03  0.41800000000E+01 0.  1.
         -5    1    3    3    0  502 -0.70206922927E+01 -0.94202165602E+02 -0.76958061121E+02  0.12191535464E+03  0.41800000000E+01 0.  1.
        -11    1    1    2    0    0 -0.12421222739E+03  0.16741824580E+03 -0.45304512009E+03  0.49870575222E+03  0.00000000000E+00 0.  1.
         11    1    1    2    0    0 -0.13458846010E+02  0.39886006259E+02 -0.27890591399E+02  0.50496723852E+02  0.00000000000E+00 0. -1.
</event>
<event>
 7    1  0.2686828E-009  0.1065949E+03  0.7561462E-02  0.1267009E+00
          2   -1    0    0  501    0  0.00000000000E+00  0.00000000000E+00  0.48628136395E+02  0.48628136395E+02  0.00000000000E+00 0. -1.
         -2   -1    0    0    0  501 -0.00000000000E+00 -0.00000000000E+00 -0.27433253237E+03  0.27433253237E+03  0.00000000000E+00 0.  1.
         25    2    1    2    0    0 -0.52133154310E+00  0.35500733980E+02 -0.15552915955E+03  0.20272342560E+03  0.12508754501E+03 0.  0.
          5    1    3    3  502    0 -0.41810175430E+02 -0.27638175380E+02 -0.88146525273E+02  0.10148518032E+03  0.41800000000E+01 0.  1.
         -5    1    3    3    0  502  0.41288843887E+02  0.63138909360E+02 -0.67382634275E+02  0.10123824528E+03  0.41800000000E+01 0.  1.
        -11    1    1    2    0    0 -0.38161023609E+02 -0.58625701835E+01 -0.58557838250E+02  0.70140244315E+02  0.00000000000E+00 0.  1.
         11    1    1    2    0    0  0.38682355152E+02 -0.29638163797E+02 -0.11617398176E+02  0.50096998850E+02  0.00000000000E+00 0. -1.
</event>
<event>
 7    1  0.2686828E-009  0.8507452E+02  0.7561462E-02  0.1315238E+00
          1   -1    0    0  501    0  0.00000000000E+00  0.00000000000E+00  0.18085726673E+03  0.18085726673E+03  0.00000000000E+00 0. -1.
         -1   -1    0    0    0  501 -0.00000000000E+00 -0.00000000000E+00 -0.73257084102E+02  0.73257084102E+02  0.00000000000E+00 0.  1.
         25    2    1    2    0    0 -0.23969509012E+02  0.21943312018E+02  0.60015035887E+02  0.14249994982E+03  0.12509350447E+03 0.  0.
          5    1    3    3  502    0 -0.24010011369E+02  0.73277455830E+02  0.29712233874E+02  0.82742706148E+02  0.41800000000E+01 0.  1.
         -5    1    3    3    0  502  0.40502356225E-01 -0.51334143813E+02  0.30302802014E+02  0.59757243672E+02  0.41800000000E+01 0.  1.
        -11    1    1    2    0    0  0.27292842265E+02 -0.10069865358E+02 -0.24775015852E+02  0.38211292018E+02  0.00000000000E+00 0.  1.
         11    1    1    2    0    0 -0.33233332524E+01 -0.11873446659E+02  0.72360162598E+02  0.73403108999E+02  0.00000000000E+00 0. -1.
</event>
<event>
 7    1  0.2686828E-009  0.6407329E+02  0.7561462E-02  0.1381492E+00
          3   -1    0    0  501    0  0.00000000000E+00  0.00000000000E+00  0.77184585385E+02  0.77184585385E+02  0.00000000000E+00 0. -1.
         -3   -1    0    0    0  501 -0.00000000000E+00 -0.00000000000E+00 -0.29730487415E+03  0.29730487415E+03  0.00000000000E+00 0.  1.
         25    2    1    2    0    0  0.56944228619E+01 -0.34297197792E+02 -0.24329276058E+03  0.27576776051E+03  0.12509103147E+03 0.  0.
          5    1    3    3  502    0  0.19683844601E+02  0.73423929255E+01 -0.22809511697E+03  0.22909871073E+03  0.41800000000E+01 0.  1.
         -5    1    3    3    0  502 -0.13989421739E+02 -0.41639590717E+02 -0.15197643615E+02  0.46669049778E+02  0.41800000000E+01 0.  1.
        -11    1    1    2    0    0  0.23113111619E+02  0.11234402492E+02 -0.26452203392E+02  0.36880168009E+02  0.00000000000E+00 0.  1.
         11    1    1    2    0    0 -0.28807534481E+02  0.23062795300E+02  0.49624675207E+02  0.61841531024E+02  0.00000000000E+00 0. -1.
</event>
<event>
 7    1  0.2686828E-009  0.1001220E+03  0.7561462E-02  0.1280040E+00
         -1   -1    0    0    0  501 -0.00000000000E+00  0.00000000000E+00  0.24054291411E+02  0.24054291411E+02  0.00000000000E+00 0.  1.
          1   -1    0    0  501    0  0.00000000000E+00 -0.00000000000E+00 -0.10323763596E+04  0.10323763596E+04  0.00000000000E+00 0. -1.
         25    2    1    2    0    0 -0.24879472435E+02  0.40627284152E+02 -0.89058771133E+03  0.90059077366E+03  0.12509078965E+03 0.  0.
          5    1    3    3  502    0  0.11175201897E+02  0.69225213542E+02 -0.29645572389E+03  0.30466454331E+03  0.41800000000E+01 0. -1.
         -5    1    3    3    0  502 -0.36054674332E+02 -0.28597929390E+02 -0.59413198745E+03  0.59592623035E+03  0.41800000000E+01 0. -1.
        -11    1    1    2    0    0  0.16674782212E+02  0.18031364474E+02 -0.84343475592E+02  0.87846458902E+02  0.00000000000E+00 0. -1.
         11    1    1    2    0    0  0.82046902229E+01 -0.58658648626E+02 -0.33390881252E+02  0.67993418440E+02  0.00000000000E+00 0.  1.
</event>
<event>
 7    1  0.2686828E-009  0.1871626E+03  0.7561462E-02  0.1161046E+00
         -1   -1    0    0    0  501 -0.00000000000E+00  0.00000000000E+00  0.78766903690E+03  0.78766903690E+03  0.00000000000E+00 0. -1.
          1   -1    0    0  501    0  0.00000000000E+00 -0.00000000000E+00 -0.49054839709E+02  0.49054839709E+02  0.00000000000E+00 0.  1.
         25    2    1    2    0    0 -0.87501189446E+02  0.13560821226E+03  0.44311294840E+03  0.48789573023E+03  0.12508842132E+03 0.  0.
          5    1    3    3  502    0 -0.74111924895E+02  0.15415828325E+03  0.42583732140E+03  0.45892510326E+03  0.41800000000E+01 0. -1.
         -5    1    3    3    0  502 -0.13389264551E+02 -0.18550070985E+02  0.17275627000E+02  0.28970626970E+02  0.41800000000E+01 0. -1.
        -11    1    1    2    0    0  0.28058141888E+02 -0.11290489310E+03  0.22858760273E+03  0.25648989519E+03  0.00000000000E+00 0. -1.
         11    1    1    2    0    0  0.59443047558E+02 -0.22703319168E+02  0.66913646064E+02  0.92338251195E+02  0.00000000000E+00 0.  1.
</event>
<event>
 7    1  0.2686828E-009  0.1134523E+03  0.7561462E-02  0.1254307E+00
          1   -1    0    0  501    0  0.00000000000E+00  0.00000000000E+00  0.15726730779E+04  0.15726730779E+04  0.00000000000E+00 0. -1.
         -1   -1    0    0    0  501 -0.00000000000E+00 -0.00000000000E+00 -0.98304005495E+01  0.98304005495E+01  0.00000000000E+00 0.  1.
         25    2    1    2    0    0 -0.49756855196E+02  0.20412313958E+02  0.10309238057E+04  0.10398772131E+04  0.12509323660E+03 0.  0.
          5    1    3    3  502    0 -0.12849365927E+02  0.65002689154E+02  0.33358606376E+03  0.34012878464E+03  0.41800000000E+01 0.  1.
         -5    1    3    3    0  502 -0.36907489270E+02 -0.44590375196E+02  0.69733774195E+03  0.69974842842E+03  0.41800000000E+01 0.  1.
        -11    1    1    2    0    0 -0.24533619613E+02  0.26850859012E+01  0.70509244390E+02  0.74703826689E+02  0.00000000000E+00 0.  1.
         11    1    1    2    0    0  0.74290474810E+02 -0.23097399860E+02  0.46140962729E+03  0.46792243875E+03  0.00000000000E+00 0. -1.
</event>
<event>
 7    1  0.2686828E-009  0.1189286E+03  0.7561462E-02  0.1244875E+00
         -2   -1    0    0    0  501 -0.00000000000E+00  0.00000000000E+00  0.12229265728E+02  0.12229265728E+02  0.00000000000E+00 0.  1.
          2   -1    0    0  501    0  0.00000000000E+00 -0.00000000000E+00 -0.13889765264E+04  0.13889765264E+04  0.00000000000E+00 0. -1.
         25    2    1    2    0    0 -0.63540756029E+02  0.16558730511E+02 -0.88966531850E+03  0.90081306570E+03  0.12509269031E+03 0.  0.
          5    1    3    3  502    0  0.19970873282E+02  0.32548667246E+02 -0.11002234406E+03  0.11653600350E+03  0.41800000000E+01 0.  1.
         -5    1    3    3    0  502 -0.83511629312E+02 -0.15989936735E+02 -0.77964297444E+03  0.78427706220E+03  0.41800000000E+01 0.  1.
        -11    1    1    2    0    0  0.27241977535E+02 -0.55038718439E+02 -0.24245744617E+03  0.25011397216E+03  0.00000000000E+00 0. -1.
         11    1    1    2    0    0  0.36298778495E+02  0.38479987928E+02 -0.24462449604E+03  0.25027875430E+03  0.00000000000E+00 0.  1.
</event>
<event>
 7    1  0.2686828E-009  0.2085671E+03  0.7561462E-02  0.1142706E+00
          2   -1    0    0  501    0  0.00000000000E+00  0.00000000000E+00  0.99571856490E+03  0.99571856490E+03  0.00000000000E+00 0. -1.
         -2   -1    0    0    0  501 -0.00000000000E+00 -0.00000000000E+00 -0.46293401148E+02  0.46293401148E+02  0.00000000000E+00 0.  1.
         25    2    1    2    0    0 -0.17774032909E+03  0.39956990882E+02  0.41254030926E+03  0.46800229858E+03  0.12509380083E+03 0.  0.
          5    1    3    3  502    0 -0.17884457261E+03  0.66413898965E+02  0.38427224747E+03  0.42904407664E+03  0.41800000000E+01 0.  1.
         -5    1    3    3    0  502  0.11042435230E+01 -0.26456908083E+02  0.28268061798E+02  0.38958221941E+02  0.41800000000E+01 0.  1.
        -11    1    1    2    0    0  0.30957641357E+02 -0.42643048154E+02  0.98702126690E+02  0.11188795703E+03  0.00000000000E+00 0. -1.
         11    1    1    2    0    0  0.14678268773E+03  0.26860572715E+01  0.43818272780E+03  0.46212171044E+03  0.00000000000E+00 0.  1.
</event>
<event>
 7    1  0.2686828E-009  0.1743153E+03  0.7561462E-02  0.1173421E+00
          2   -1    0    0  501    0  0.00000000000E+00  0.00000000000E+00  0.55193658868E+03  0.55193658868E+03  0.00000000000E+00 0. -1.
         -2   -1    0    0    0  501 -0.00000000000E+00 -0.00000000000E+00 -0.70841403972E+02  0.70841403972E+02  0.00000000000E+00 0.  1.
         25    2    1    2    0    0  0.14084754322E+03 -0.10578690298E+02  0.37711895992E+03  0.42168161897E+03  0.12508692469E+03 0.  0.
          5    1    3    3  502    0  0.16325004312E+03 -0.16148607687E+02  0.34351764984E+03  0.38070093547E+03  0.41800000000E+01 0.  1.
         -5    1    3    3    0  502 -0.22402499907E+02  0.55699173896E+01  0.33601310080E+02  0.40980683509E+02  0.41800000000E+01 0.  1.
        -11    1    1    2    0    0 -0.41336765914E+02  0.39774876898E+02  0.73041699973E+02  0.92875502601E+02  0.00000000000E+00 0. -1.
         11    1    1    2    0    0 -0.99510777302E+02 -0.29196186600E+02  0.30934524813E+02  0.10822087108E+03  0.00000000000E+00 0.  1.
</event>
<event>
 7    1  0.2686828E-009  0.9064342E+02  0.7561462E-02  0.1301301E+00
          1   -1    0    0  501    0  0.00000000000E+00  0.00000000000E+00  0.33265988395E+02  0.33265988395E+02  0.00000000000E+00 0. -1.
         -1   -1    0    0    0  501 -0.00000000000E+00 -0.00000000000E+00 -0.45007427293E+03  0.45007427293E+03  0.00000000000E+00 0.  1.
         25    2    1    2    0    0 -0.80151069815E+01 -0.54245989517E+02 -0.20135875849E+03  0.24331055852E+03  0.12509120253E+03 0.  0.
          5    1    3    3  502    0 -0.41527484492E+02 -0.49785302248E+02 -0.35586081081E+02  0.74073948557E+02  0.41800000000E+01 0. -1.
         -5    1    3    3    0  502  0.33512377511E+02 -0.44606872696E+01 -0.16577267741E+03  0.16923660997E+03  0.41800000000E+01 0. -1.
        -11    1    1    2    0    0  0.33925637690E+02  0.20244875334E+02 -0.18061571497E+03  0.18488601992E+03  0.00000000000E+00 0. -1.
         11    1    1    2    0    0 -0.25910530708E+02  0.34001114184E+02 -0.34833811082E+02  0.55143682882E+02  0.00000000000E+00 0.  1.
</event>
<event>
 7    1  0.2686828E-009  0.1275169E+03  0.7561462E-02  0.1231187E+00
          1   -1    0    0  501    0  0.00000000000E+00  0.00000000000E+00  0.11939352711E+04  0.11939352711E+04  0.00000000000E+00 0. -1.
         -1   -1    0    0    0  501 -0.00000000000E+00 -0.00000000000E+00 -0.14464263795E+02  0.14464263795E+02  0.00000000000E+00 0.  1.
         25    2    1    2    0    0  0.28471160146E+02 -0.66417912030E+02  0.58275991637E+03  0.60039800801E+03  0.12508677746E+03 0.  0.
          5    1    3    3  502    0  0.58145377547E+02  0.74488180248E+01  0.33543286993E+03  0.34054229172E+03  0.41800000000E+01 0. -1.
         -5    1    3    3    0  502 -0.29674217401E+02 -0.73866730055E+02  0.24732704644E+03  0.25985571629E+03  0.41800000000E+01 0. -1.
        -11    1    1    2    0    0 -0.46427421168E+02  0.81037777921E+02  0.48669522270E+03  0.49557528862E+03  0.00000000000E+00 0. -1.
         11    1    1    2    0    0  0.17956261022E+02 -0.14619865891E+02  0.11001586825E+03  0.11242623828E+03  0.00000000000E+00 0.  1.
</event>
<event>
 7    1  0.2686828E-009  0.1109635E+03  0.7561462E-02  0.1258796E+00
          1   -1    0    0  501    0  0.00000000000E+00  0.00000000000E+00  0.75134494938E+02  0.75134494938E+02  0.00000000000E+00 0. -1.
         -1   -1    0    0    0  501 -0.00000000000E+00 -0.00000000000E+00 -0.25477283481E+03  0.25477283481E+03  0.00000000000E+00 0.  1.
         25    2    1    2    0    0 -0.65380569081E+02  0.70708345470E+01 -0.16354528369E+03  0.21614578500E+03  0.12508926830E+03 0.  0.
          5    1    3    3  502    0 -0.37433210517E+02 -0.53592479578E+02 -0.43269436633E+02  0.78505513586E+02  0.41800000000E+01 0. -1.
         -5    1    3    3    0  502 -0.27947358564E+02  0.60663314125E+02 -0.12027584705E+03  0.13764027142E+03  0.41800000000E+01 0. -1.
        -11    1    1    2    0    0  0.51334596664E+02  0.23044910198E+02 -0.43149316634E+02  0.70909606025E+02  0.00000000000E+00 0.  1.
         11    1    1    2    0    0  0.14045972416E+02 -0.30115744745E+02  0.27056260448E+02  0.42851938720E+02  0.00000000000E+00 0. -1.
</event>
<event>
 7    1  0.2686828E-009  0.1045983E+03  0.7561462E-02  0.1270913E+00
         -3   -1    0    0    0  501 -0.00000000000E+00  0.00000000000E+00  0.26785106176E+03  0.26785106176E+03  0.00000000000E+00 0.  1.
          3   -1    0    0  501    0  0.00000000000E+00 -0.00000000000E+00 -0.47640901934E+02  0.47640901934E+02  0.00000000000E+00 0. -1.
         25    2    1    2    0    0 -0.31019872127E+02 -0.10618274798E+02  0.11886797573E+03  0.17564645347E+03  0.12508837170E+03 0.  0.
          5    1    3    3  502    0 -0.77964983096E+02 -0.99121590449E+01  0.53944376683E+02  0.95416233744E+02  0.41800000000E+01 0. -1.
         -5    1    3    3    0  502  0.46945110969E+02 -0.70611575264E+00  0.64923599047E+02  0.80230219722E+02  0.41800000000E+01 0. -1.
        -11    1    1    2    0    0  0.12206993802E+01  0.40872927639E+02  0.85035908515E+02  0.94356727676E+02  0.00000000000E+00 0.  1.
         11    1    1    2    0    0  0.29799172747E+02 -0.30254652842E+02  0.16306275583E+02  0.45488782555E+02  0.00000000000E+00 0. -1.
</event>
<event>
 7    1  0.2686828E-009  0.9683199E+02  0.7561462E-02  0.1287102E+00
          1   -1    0    0  501    0  0.00000000000E+00  0.00000000000E+00  0.52031586446E+02  0.52031586446E+02  0.00000000000E+00 0. -1.
         -1   -1    0    0    0  501 -0.00000000000E+00 -0.00000000000E+00 -0.32296935223E+03  0.32296935223E+03  0.00000000000E+00 0.  1.
         25    2    1    2    0    0 -0.72710497037E+02  0.18266018806E+02 -0.16903999554E+03  0.22325472124E+03  0.12509071365E+03 0.  0.
          5    1    3    3  502    0 -0.52291876341E+02 -0.32977709915E+02 -0.21340487464E+02  0.65535169853E+02  0.41800000000E+01 0.  1.
         -5    1    3    3    0  502 -0.20418620697E+02  0.51243728721E+02 -0.14769950807E+03  0.15771955139E+03  0.41800000000E+01 0.  1.
        -11    1    1    2    0    0  0.15637229780E+02  0.21104921891E+01 -0.88220259843E+02  0.89620262101E+02  0.00000000000E+00 0.  1.
         11    1    1    2    0    0  0.57073267258E+02 -0.20376510995E+02 -0.13677510408E+02  0.62125955339E+02  0.00000000000E+00 0. -1.
</event>
<event>
 7    1  0.2686828E-009  0.1428101E+03  0.7561462E-02  0.1209597E+00
         -1   -1    0    0    0  501 -0.00000000000E+00  0.00000000000E+00  0.18937087845E+02  0.18937087845E+02  0.00000000000E+00 0.  1.
          1   -1    0    0  501    0  0.00000000000E+00 -0.00000000000E+00 -0.11002373565E+04  0.11002373565E+04  0.00000000000E+00 0. -1.
         25    2    1    2    0    0 -0.39356230223E+01 -0.92937205412E+02 -0.66717638967E+03  0.68514636539E+03  0.12509354022E+03 0.  0.
          5    1    3    3  502    0 -0.63687424581E+02 -0.59580172416E+02 -0.36871362672E+03  0.37891040619E+03  0.41800000000E+01 0.  1.
         -5    1    3    3    0  502  0.59751801559E+02 -0.33357032996E+02 -0.29846276295E+03  0.30623595920E+03  0.41800000000E+01 0.  1.
        -11    1    1    2    0    0 -0.38856408653E+02  0.72656214856E+02 -0.25178849315E+03  0.26492676598E+03  0.00000000000E+00 0.  1.
         11    1    1    2    0    0  0.42792031675E+02  0.20280990556E+02 -0.16233538582E+03  0.16910131295E+03  0.00000000000E+00 0. -1.
</event>
<event>
 7    1  0.2686828E-009  0.1065739E+03  0.7561462E-02  0.1267049E+00
         -2   -1    0    0    0  501 -0.00000000000E+00  0.00000000000E+00  0.36472408162E+02  0.36472408162E+02  0.00000000000E+00 0.  1.
          2   -1    0    0  501    0  0.00000000000E+00 -0.00000000000E+00 -0.47912481513E+03  0.47912481513E+03  0.00000000000E+00 0. -1.
         25    2    1    2    0    0 -0.61203718800E+02 -0.36015396956E+02 -0.20706840522E+03  0.25212742891E+03  0.12509161424E+03 0.  0.
          5    1    3    3  502    0 -0.49770562401E+00 -0.40261923197E+02 -0.46850599216E+01  0.40751593305E+02  0.41800000000E+01 0.  1.
         -5    1    3    3    0  502 -0.60706013176E+02  0.42465262418E+01 -0.20238334530E+03  0.21137583560E+03  0.41800000000E+01 0.  1.
        -11    1    1    2    0    0  0.16964573098E+02 -0.28663473151E+02 -0.35954429746E+02  0.49011350235E+02  0.00000000000E+00 0.  1.
         11    1    1    2    0    0  0.44239145702E+02  0.64678870107E+02 -0.19962957199E+03  0.21445844415E+03  0.00000000000E+00 0. -1.
</event>
<event>
 7    1  0.2686828E-009  0.3679118E+03  0.7561462E-02  0.1055494E+00
          1   -1    0    0  501    0  0.00000000000E+00  0.00000000000E+00  0.64013694557E+03  0.64013694557E+03  0.00000000000E+00 0. -1.
         -1   -1    0    0    0  501 -0.00000000000E+00 -0.00000000000E+00 -0.24088352526E+03  0.24088352526E+03  0.00000000000E+00 0.  1.
         25    2    1    2    0    0  0.20980534944E+03  0.29488100626E+03  0.83284987410E+02  0.39186181516E+03  0.12508477345E+03 0.  0.
          5    1    3    3  502    0  0.10242989630E+03  0.88568638995E+02 -0.20718498057E+02  0.13705114386E+03  0.41800000000E+01 0.  1.
         -5    1    3    3    0  502  0.10737545314E+03  0.20631236727E+03  0.10400348547E+03  0.25481067131E+03  0.41800000000E+01 0.  1.
        -11    1    1    2    0    0 -0.10760326470E+03 -0.96354974426E+02  0.83563056066E+02  0.16686979358E+03  0.00000000000E+00 0.  1.
         11    1    1    2    0    0 -0.10220208474E+03 -0.19852603183E+03  0.23240537683E+03  0.32228886208E+03  0.00000000000E+00 0. -1.
</event>
<event>
 7    1  0.2686828E-009  0.2722927E+03  0.7561462E-02  0.1099975E+00
          1   -1    0    0  501    0  0.00000000000E+00  0.00000000000E+00  0.11597429856E+04  0.11597429856E+04  0.00000000000E+00 0. -1.
         -1   -1    0    0    0  501 -0.00000000000E+00 -0.00000000000E+00 -0.96954743360E+02  0.96954743360E+02  0.00000000000E+00 0.  1.
         25    2    1    2    0    0 -0.11508612841E+03  0.22410463180E+03  0.90073469869E+03  0.94363026988E+03  0.12508951142E+03 0.  0.
          5    1    3    3  502    0  0.20357473470E+02  0.66924758354E+02  0.16688824786E+03  0.18100417034E+03  0.41800000000E+01 0. -1.
         -5    1    3    3    0  502 -0.13544360188E+03  0.15717987345E+03  0.73384645082E+03  0.76262609953E+03  0.41800000000E+01 0. -1.
        -11    1    1    2    0    0  0.61527967900E+02 -0.35752837206E+02  0.54675300094E+02  0.89740429253E+02  0.00000000000E+00 0.  1.
         11    1    1    2    0    0  0.53558160509E+02 -0.18835179460E+03  0.10737824347E+03  0.22332702984E+03  0.00000000000E+00 0. -1.
</event>
<event>
 7    1  0.2686828E-009  0.1401247E+03  0.7561462E-02  0.1213161E+00
          2   -1    0    0  501    0  0.00000000000E+00  0.00000000000E+00  0.12953421261E+04  0.12953421261E+04  0.00000000000E+00 0. -1.
         -2   -1    0    0    0  501 -0.00000000000E+00 -0.00000000000E+00 -0.21066587294E+02  0.21066587294E+02  0.00000000000E+00 0.  1.
         25    2    1    2    0    0  0.14961612433E+02  0.97044452847E+02  0.98250205379E+03  0.99528864631E+03  0.12509087932E+03 0.  0.
          5    1    3    3  502    0 -0.41842569880E+02  0.54257817664E+01  0.44841965469E+03  0.45041969193E+03  0.41800000000E+01 0.  1.
         -5    1    3    3    0  502  0.56804182313E+02  0.91618671081E+02  0.53408239910E+03  0.54486895438E+03  0.41800000000E+01 0.  1.
        -11    1    1    2    0    0 -0.46195716222E+02 -0.27570942538E+02  0.83252892065E+02  0.99122374401E+02  0.00000000000E+00 0.  1.
         11    1    1    2    0    0  0.31234103789E+02 -0.69473510309E+02  0.20852059296E+03  0.22199769269E+03  0.00000000000E+00 0. -1.
</event>
<event>
 7    1  0.2686828E-009  0.1144812E+03  0.7561462E-02  0.1252489E+00
         -2   -1    0    0    0  501 -0.00000000000E+00  0.00000000000E+00  0.54338647394E+02  0.54338647394E+02  0.00000000000E+00 0.  1.
          2   -1    0    0  501    0  0.00000000000E+00 -0.00000000000E+00 -0.31960244015E+03  0.31960244015E+03  0.00000000000E+00 0. -1.
         25    2    1    2    0    0  0.50581715038E+02  0.23988220329E+01 -0.22934093699E+03  0.26610051321E+03  0.12509178033E+03 0.  0.
          5    1    3    3  502    0 -0.40803052095E+01 -0.52887428213E+02 -0.12548955437E+03  0.13630418046E+03  0.41800000000E+01 0. -1.
         -5    1    3    3    0  502  0.54662020248E+02  0.55286250246E+02 -0.10385138261E+03  0.12979633275E+03  0.41800000000E+01 0.  1.
        -11    1    1    2    0    0 -0.35247037311E+02 -0.42351634562E+02 -0.55830393497E+01  0.55382171478E+02  0.00000000000E+00 0.  1.
         11    1    1    2    0    0 -0.15334677727E+02  0.39952812530E+02 -0.30339816415E+02  0.52458402855E+02  0.00000000000E+00 0. -1.
</event>
<event>
 7    1  0.2686828E-009  0.9658268E+02  0.7561462E-02  0.1287651E+00
          1   -1    0    0  501    0  0.00000000000E+00  0.00000000000E+00  0.24113693870E+03  0.24113693870E+03  0.00000000000E+00 0.  1.
         -1   -1    0    0    0  501 -0.00000000000E+00 -0.00000000000E+00 -0.64645426372E+02  0.64645426372E+02  0.00000000000E+00 0. -1.
         25    2    1    2    0    0  0.57326802302E+01  0.55849945901E+02  0.11880200915E+03  0.18141992065E+03  0.12508872912E+03 0.  0.
          5    1    3    3  502    0  0.33237403546E+02  0.25578763009E+02  0.13174044643E+03  0.13831852999E+03  0.41800000000E+01 0.  1.
         -5    1    3    3    0  502 -0.27504723315E+02  0.30271182891E+02 -0.12938437279E+02  0.43101390668E+02  0.41800000000E+01 0.  1.
        -11    1    1    2    0    0  0.38587747193E+02  0.21747764379E-01  0.24441505505E+02  0.45677148529E+02  0.00000000000E+00 0.  1.
         11    1    1    2    0    0 -0.44320427423E+02 -0.55871693665E+02  0.33247997672E+02  0.78685295889E+02  0.00000000000E+00 0. -1.
</event>
<event>
 7    1  0.2686828E-009  0.1557982E+03  0.7561462E-02  0.1193524E+00
          1   -1    0    0  501    0  0.00000000000E+00  0.00000000000E+00  0.12972474086E+03  0.12972474086E+03  0.00000000000E+00 0. -1.
         -1   -1    0    0    0  501 -0.00000000000E+00 -0.00000000000E+00 -0.25478084980E+03  0.25478084980E+03  0.00000000000E+00 0.  1.
         25    2    1    2    0    0  0.79841371804E+02 -0.11473811087E+03 -0.15533229509E+02  0.18822413510E+03  0.12509022775E+03 0.  0.
          5    1    3    3  502    0  0.95581676541E+02 -0.11825790549E+03  0.15602248065E+02  0.15291073097E+03  0.41800000000E+01 0.  1.
         -5    1    3    3    0  502 -0.15740304737E+02  0.35197946246E+01 -0.31135477574E+02  0.35313404129E+02  0.41800000000E+01 0.  1.
        -11    1    1    2    0    0 -0.55295099592E+01  0.28283717809E+02  0.10568575721E+02  0.30695911230E+02  0.00000000000E+00 0. -1.
         11    1    1    2    0    0 -0.74311861845E+02  0.86454393061E+02 -0.12009145515E+03  0.16558554433E+03  0.00000000000E+00 0.  1.
</event>
<event>
 7    1  0.2686828E-009  0.1129609E+03  0.7561462E-02  0.1255183E+00
          2   -1    0    0  501    0  0.00000000000E+00  0.00000000000E+00  0.60393340126E+02  0.60393340126E+02  0.00000000000E+00 0. -1.
         -2   -1    0    0    0  501 -0.00000000000E+00 -0.00000000000E+00 -0.26570500064E+03  0.26570500064E+03  0.00000000000E+00 0.  1.
         25    2    1    2    0    0 -0.52672623168E+02 -0.65337951877E+01 -0.16232282538E+03  0.21169112485E+03  0.12508931604E+03 0.  0.
          5    1    3    3  502    0 -0.11257756151E+02  0.53570770242E+02 -0.10609850490E+03  0.11946099631E+03  0.41800000000E+01 0. -1.
         -5    1    3    3    0  502 -0.41414867017E+02 -0.60104565430E+02 -0.56224320482E+02  0.92230128533E+02  0.41800000000E+01 0. -1.
        -11    1    1    2    0    0  0.54490792021E+02  0.37974227225E+02 -0.48754170911E+02  0.82390882564E+02  0.00000000000E+00 0.  1.
         11    1    1    2    0    0 -0.18181688522E+01 -0.31440432038E+02  0.57653357829E+01  0.32016333353E+02  0.00000000000E+00 0. -1.
</event>
<event>
 7    1  0.2686828E-009  0.1565560E+03  0.7561462E-02  0.1192641E+00
         -2   -1    0    0    0  501 -0.00000000000E+00  0.00000000000E+00  0.22169994597E+03  0.22169994597E+03  0.00000000000E+00 0.  1.
          2   -1    0    0  501    0  0.00000000000E+00 -0.00000000000E+00 -0.18628911905E+03  0.18628911905E+03  0.00000000000E+00 0. -1.
         25    2    1    2    0    0 -0.15507893402E+02 -0.13203352303E+03  0.12422978556E+03  0.22080420866E+03  0.12509241775E+03 0.  0.
          5    1    3    3  502    0 -0.50155175517E+02 -0.62126737206E+02  0.74559159356E+01  0.80301532921E+02  0.41800000000E+01 0.  1.
         -5    1    3    3    0  502  0.34647282116E+02 -0.69906785825E+02  0.11677386962E+03  0.14050267573E+03  0.41800000000E+01 0.  1.
        -11    1    1    2    0    0 -0.30527999157E+02  0.79573617370E+02 -0.16749978676E+02  0.86858972476E+02  0.00000000000E+00 0.  1.
         11    1    1    2    0    0  0.46035892559E+02  0.52459905661E+02 -0.72068979954E+02  0.10032588388E+03  0.00000000000E+00 0. -1.
</event>
<event>
 7    1  0.2686828E-009  0.8900503E+02  0.7561462E-02  0.1305279E+00
         -2   -1    0    0    0  501 -0.00000000000E+00  0.00000000000E+00  0.14381026367E+04  0.14381026367E+04  0.00000000000E+00 0.  1.
          2   -1    0    0  501    0  0.00000000000E+00 -0.00000000000E+00 -0.14717173615E+02  0.14717173615E+02  0.00000000000E+00 0. -1.
         25    2    1    2    0    0 -0.55163603081E+02  0.10021942000E+02  0.11850022411E+04  0.11929043738E+04  0.12508825391E+03 0.  0.
          5    1    3    3  502    0  0.13467974856E+02  0.12584839918E+02  0.27557987186E+02  0.33416756279E+02  0.41800000000E+01 0. -1.
         -5    1    3    3    0  502 -0.68631577937E+02 -0.25628979189E+01  0.11574442539E+04  0.11594876175E+04  0.41800000000E+01 0. -1.
        -11    1    1    2    0    0  0.23872828098E+02  0.30736472023E+02  0.16988698962E+03  0.17428778465E+03  0.00000000000E+00 0.  1.
         11    1    1    2    0    0  0.31290774984E+02 -0.40758414023E+02  0.68496232395E+02  0.85627651872E+02  0.00000000000E+00 0. -1.
</event>
<event>
 7    1  0.2686828E-009  0.9270724E+02  0.7561462E-02  0.1296425E+00
          2   -1    0    0  501    0  0.00000000000E+00  0.00000000000E+00  0.10211282954E+02  0.10211282954E+02  0.00000000000E+00 0.  1.
         -2   -1    0    0    0  501 -0.00000000000E+00 -0.00000000000E+00 -0.19859579403E+04  0.19859579403E+04  0.00000000000E+00 0. -1.
         25    2    1    2    0    0  0.39880348605E+02 -0.38834019430E+02 -0.15007561594E+04  0.15069888123E+04  0.12509079530E+03 0.  0.
          5    1    3    3  502    0  0.53226610540E+02 -0.65946158005E+01 -0.13843223031E+04  0.13853671976E+04  0.41800000000E+01 0.  1.
         -5    1    3    3    0  502 -0.13346261935E+02 -0.32239403629E+02 -0.11643385632E+03  0.12162161465E+03  0.41800000000E+01 0.  1.
        -11    1    1    2    0    0 -0.62102082760E+02  0.40581443923E+02 -0.44834333119E+03  0.45443950631E+03  0.00000000000E+00 0. -1.
         11    1    1    2    0    0  0.22221734155E+02 -0.17474244935E+01 -0.26647166755E+02  0.34740904670E+02  0.00000000000E+00 0.  1.
</event>
<event>
 7    1  0.2686828E-009  0.1535140E+03  0.7561462E-02  0.1196220E+00
          2   -1    0    0  501    0  0.00000000000E+00  0.00000000000E+00  0.70897549030E+03  0.70897549030E+03  0.00000000000E+00 0. -1.
         -2   -1    0    0    0  501 -0.00000000000E+00 -0.00000000000E+00 -0.39835259033E+02  0.39835259033E+02  0.00000000000E+00 0.  1.
         25    2    1    2    0    0  0.12440578086E+03 -0.28265051318E+02  0.36027417503E+03  0.40214414196E+03  0.12508684299E+03 0.  0.
          5    1    3    3  502    0  0.12845945777E+03 -0.46488743100E+02  0.35759689354E+03  0.38282639171E+03  0.41800000000E+01 0.  1.
         -5    1    3    3    0  502 -0.40536769047E+01  0.18223691782E+02  0.26772814878E+01  0.19317750251E+02  0.41800000000E+01 0.  1.
        -11    1    1    2    0    0 -0.50614546936E+02 -0.28531001077E+02  0.74490333913E+02  0.94470419870E+02  0.00000000000E+00 0.  1.
         11    1    1    2    0    0 -0.73791233925E+02  0.56796052395E+02  0.23437572233E+03  0.25219618750E+03  0.00000000000E+00 0. -1.
</event>
<event>
 7    1  0.2686828E-009  0.1217955E+03  0.7561462E-02  0.1240164E+00
         -2   -1    0    0    0  501 -0.00000000000E+00  0.00000000000E+00  0.81100916097E+02  0.81100916097E+02  0.00000000000E+00 0.  1.
          2   -1    0    0  501    0  0.00000000000E+00 -0.00000000000E+00 -0.28794110275E+03  0.28794110275E+03  0.00000000000E+00 0. -1.
         25    2    1    2    0    0  0.75279951851E+02  0.25521929080E+02 -0.19775929589E+03  0.24713463539E+03  0.12509336066E+03 0.  0.
          5    1    3    3  502    0  0.89583936778E+02  0.61120578315E+02 -0.15839073750E+03  0.19200548156E+03  0.41800000000E+01 0. -1.
         -5    1    3    3    0  502 -0.14303984927E+02 -0.35598649236E+02 -0.39368558390E+02  0.55129153829E+02  0.41800000000E+01 0. -1.
        -11    1    1    2    0    0 -0.74853573290E+02 -0.40171491388E+01 -0.39437953314E+02  0.84702698205E+02  0.00000000000E+00 0. -1.
         11    1    1    2    0    0 -0.42637856130E+00 -0.21504779941E+02  0.30357062546E+02  0.37204685261E+02  0.00000000000E+00 0.  1.
</event>
<event>
 7    1  0.2686828E-009  0.1465121E+03  0.7561462E-02  0.1204826E+00
          1   -1    0    0  501    0  0.00000000000E+00  0.00000000000E+00  0.54094017777E+03  0.54094017777E+03  0.00000000000E+00 0. -1.
         -1   -1    0    0    0  501 -0.00000000000E+00 -0.00000000000E+00 -0.56721492692E+02  0.56721492692E+02  0.00000000000E+00 0.  1.
         25    2    1    2    0    0  0.24669253244E+02  0.13263331831E+03  0.21546639067E+03  0.28332636575E+03  0.12509154582E+03 0.  0.
          5    1    3    3  502    0  0.24880898014E+02  0.11246068618E+03  0.23057590765E+03  0.25777739740E+03  0.41800000000E+01 0. -1.
         -5    1    3    3    0  502 -0.21164477023E+00  0.20172632132E+02 -0.15109516973E+02  0.25548968351E+02  0.41800000000E+01 0. -1.
        -11    1    1    2    0    0 -0.37045245839E+02 -0.16805731917E+02  0.37155961256E+02  0.55093995330E+02  0.00000000000E+00 0.  1.
         11    1    1    2    0    0  0.12375992595E+02 -0.11582758640E+03  0.23159633314E+03  0.25924130938E+03  0.00000000000E+00 0. -1.
</event>
<event>
 7    1  0.2686828E-009  0.1736072E+03  0.7561462E-02  0.1174137E+00
         -2   -1    0    0    0  501 -0.00000000000E+00  0.00000000000E+00  0.66324971707E+02  0.66324971707E+02  0.00000000000E+00 0.  1.
          2   -1    0    0  501    0  0.00000000000E+00 -0.00000000000E+00 -0.57403747894E+03  0.57403747894E+03  0.00000000000E+00 0. -1.
         25    2    1    2    0    0 -0.14579088600E+03  0.69600942195E+02 -0.28112560827E+03  0.34753171414E+03  0.12508961233E+03 0.  0.
          5    1    3    3  502    0  0.84376192755E+01 -0.41082481920E+01 -0.91992984238E+02  0.92564856567E+02  0.41800000000E+01 0. -1.
         -5    1    3    3    0  502 -0.15422850528E+03  0.73709190387E+02 -0.18913262403E+03  0.25496685757E+03  0.41800000000E+01 0. -1.
        -11    1    1    2    0    0  0.46778200880E+02 -0.42735104260E+02 -0.27922217767E+02  0.69239724571E+02  0.00000000000E+00 0.  1.
         11    1    1    2    0    0  0.99012685123E+02 -0.26865837935E+02 -0.19866468120E+03  0.22359101194E+03  0.00000000000E+00 0. -1.
</event>
<event>
 7    1  0.2686828E-009  0.1579966E+03  0.7561462E-02  0.1190977E+00
          2   -1    0    0  501    0  0.00000000000E+00  0.00000000000E+00  0.21802314805E+03  0.21802314805E+03  0.00000000000E+00 0. -1.
         -2   -1    0    0    0  501 -0.00000000000E+00 -0.00000000000E+00 -0.13916728278E+03  0.13916728278E+03  0.00000000000E+00 0.  1.
         25    2    1    2    0    0 -0.12606272169E+03 -0.35443590380E+02  0.22772472410E+02  0.18251929753E+03  0.12508657230E+03 0.  0.
          5    1    3    3  502    0 -0.14765660339E+03 -0.46668814103E+02  0.27616704251E+02  0.15735503007E+03  0.41800000000E+01 0. -1.
         -5    1    3    3    0  502  0.21593881698E+02  0.11225223723E+02 -0.48442318403E+01  0.25164267455E+02  0.41800000000E+01 0. -1.
        -11    1    1    2    0    0  0.18744981930E+02  0.20922396559E+02  0.60057500985E+02  0.66302522199E+02  0.00000000000E+00 0.  1.
         11    1    1    2    0    0  0.10731773976E+03  0.14521193821E+02 -0.39741081317E+01  0.10836861111E+03  0.00000000000E+00 0. -1.
</event>
<event>
 7    1  0.2686828E-009  0.1239158E+03  0.7561462E-02  0.1236773E+00
          4   -1    0    0  501    0  0.00000000000E+00  0.00000000000E+00  0.22901775196E+03  0.22901775196E+03  0.00000000000E+00 0. -1.
         -4   -1    0    0    0  501 -0.00000000000E+00 -0.00000000000E+00 -0.76584650851E+02  0.76584650851E+02  0.00000000000E+00 0.  1.
         25    2    1    2    0    0  0.21342305788E+02  0.72670630739E+02  0.88657818835E+02  0.17101154838E+03  0.12509287050E+03 0.  0.
          5    1    3    3  502    0  0.48202727564E+02 -0.39528306673E+01  0.73842204988E+02  0.88370082338E+02  0.41800000000E+01 0.  1.
         -5    1    3    3    0  502 -0.26860421776E+02  0.76623461406E+02  0.14815613847E+02  0.82641466042E+02  0.41800000000E+01 0.  1.
        -11    1    1    2    0    0 -0.51792260115E+02 -0.16965920900E+02  0.35865058691E+02  0.65242494700E+02  0.00000000000E+00 0. -1.
         11    1    1    2    0    0  0.30449954327E+02 -0.55704709839E+02  0.27910223581E+02  0.69348359729E+02  0.00000000000E+00 0.  1.
</event>
<event>
 7    1  0.2686828E-009  0.1297049E+03  0.7561462E-02  0.1227894E+00
          2   -1    0    0  501    0  0.00000000000E+00  0.00000000000E+00  0.34156292886E+03  0.34156292886E+03  0.00000000000E+00 0. -1.
         -2   -1    0    0    0  501 -0.00000000000E+00 -0.00000000000E+00 -0.21278274511E+03  0.21278274511E+03  0.00000000000E+00 0.  1.
         25    2    1    2    0    0 -0.43841343829E+02 -0.93073181371E+02  0.29567741870E+03  0.33712838462E+03  0.12508289759E+03 0.  0.
          5    1    3    3  502    0 -0.52189919147E+02  0.95416157192E+01  0.61786036799E+02  0.81546409083E+02  0.41800000000E+01 0. -1.
         -5    1    3    3    0  502  0.83485753176E+01 -0.10261479709E+03  0.23389138191E+03  0.25558197554E+03  0.41800000000E+01 0. -1.
        -11    1    1    2    0    0  0.19605532447E+02  0.33158940200E+02 -0.14334257794E+03  0.14842838970E+03  0.00000000000E+00 0.  1.
         11    1    1    2    0    0  0.24235811382E+02  0.59914241171E+02 -0.23554657013E+02  0.68788899653E+02  0.00000000000E+00 0. -1.
</event>
<event>
 7    1  0.2686828E-009  0.8136515E+02  0.7561462E-02  0.1325221E+00
          3   -1    0    0  501    0  0.00000000000E+00  0.00000000000E+00  0.67661684194E+02  0.67661684194E+02  0.00000000000E+00 0. -1.
         -3   -1    0    0    0  501 -0.00000000000E+00 -0.00000000000E+00 -0.21738440004E+03  0.21738440004E+03  0.00000000000E+00 0.  1.
         25    2    1    2    0    0 -0.25131102698E+02 -0.47919199754E+02 -0.99744724736E+02  0.16889296165E+03  0.12509196759E+03 0.  0.
          5    1    3    3  502    0 -0.71175936502E+01  0.21207758678E+01  0.28631788685E+02  0.29873224683E+02  0.41800000000E+01 0.  1.
         -5    1    3    3    0  502 -0.18013509047E+02 -0.50039975622E+02 -0.12837651342E+03  0.13901973697E+03  0.41800000000E+01 0.  1.
        -11    1    1    2    0    0 -0.31531366703E+02  0.22624210418E+02 -0.35135328328E+02  0.52350485002E+02  0.00000000000E+00 0.  1.
         11    1    1    2    0    0  0.56662469401E+02  0.25294989336E+02 -0.14842662786E+02  0.63802637584E+02  0.00000000000E+00 0. -1.
</event>
<event>
 7    1  0.2686828E-009  0.8939877E+02  0.7561462E-02  0.1304314E+00
         -1   -1    0    0    0  501 -0.00000000000E+00  0.00000000000E+00  0.12557790907E+03  0.12557790907E+03  0.00000000000E+00 0.  1.
          1   -1    0    0  501    0  0.00000000000E+00 -0.00000000000E+00 -0.12501554366E+03  0.12501554366E+03  0.00000000000E+00 0. -1.
         25    2    1    2    0    0 -0.27526329849E+02  0.19991550537E+02  0.53471704046E+02  0.14023000682E+03  0.12509144955E+03 0.  0.
          5    1    3    3  502    0 -0.21178554558E+02  0.63849167127E+02 -0.40221639220E+01  0.67519608401E+02  0.41800000000E+01 0. -1.
         -5    1    3    3    0  502 -0.63477752903E+01 -0.43857616590E+02  0.57493867968E+02  0.72710398418E+02  0.41800000000E+01 0. -1.
        -11    1    1    2    0    0  0.19480634258E+02 -0.40453459755E+02  0.80003911020E+01  0.45606839125E+02  0.00000000000E+00 0.  1.
         11    1    1    2    0    0  0.80456955909E+01  0.20461909218E+02 -0.60909729735E+02  0.64756606789E+02  0.00000000000E+00 0. -1.
</event>
<event>
 7    1  0.2686828E-009  0.1369075E+03  0.7561462E-02  0.1217552E+00
         -3   -1    0    0    0  501 -0.00000000000E+00  0.00000000000E+00  0.21266453129E+03  0.21266453129E+03  0.00000000000E+00 0.  1.
          3   -1    0    0  501    0  0.00000000000E+00 -0.00000000000E+00 -0.12990732314E+03  0.12990732314E+03  0.00000000000E+00 0. -1.
         25    2    1    2    0    0  0.79770789730E+02 -0.92459083134E+02  0.14578141166E+02  0.17542263379E+03  0.12509403382E+03 0.  0.
          5    1    3    3  502    0  0.37618813075E+02  0.86516099832E+01  0.47133247251E+02  0.61065873030E+02  0.41800000000E+01 0.  1.
         -5    1    3    3    0  502  0.42151976655E+02 -0.10111069312E+03 -0.32555106085E+02  0.11435676076E+03  0.41800000000E+01 0.  1.
        -11    1    1    2    0    0 -0.59763469975E+02  0.48150404081E+02 -0.75927666943E+01  0.77121876681E+02  0.00000000000E+00 0. -1.
         11    1    1    2    0    0 -0.20007319755E+02  0.44308679053E+02  0.75771833672E+02  0.90027343964E+02  0.00000000000E+00 0.  1.
</event>
<event>
 7    1  0.2686828E-009  0.1249372E+03  0.7561462E-02  0.1235167E+00
         -2   -1    0    0    0  501 -0.00000000000E+00  0.00000000000E+00  0.30288647913E+03  0.30288647913E+03  0.00000000000E+00 0.  1.
          2   -1    0    0  501    0  0.00000000000E+00 -0.00000000000E+00 -0.65010611434E+02  0.65010611434E+02  0.00000000000E+00 0. -1.
         25    2    1    2    0    0 -0.69194137883E+02  0.22319179065E+02  0.18594567552E+03  0.23560438862E+03  0.12509060406E+03 0.  0.
          5    1    3    3  502    0 -0.56291349651E+02 -0.44700559525E+02  0.66722001531E+02  0.98163913714E+02  0.41800000000E+01 0. -1.
         -5    1    3    3    0  502 -0.12902788231E+02  0.67019738590E+02  0.11922367399E+03  0.13744047491E+03  0.41800000000E+01 0. -1.
        -11    1    1    2    0    0  0.58504045316E+02 -0.51796271640E+02  0.83194727358E+01  0.78579836477E+02  0.00000000000E+00 0.  1.
         11    1    1    2    0    0  0.10690092567E+02  0.29477092576E+02  0.43610719439E+02  0.53712865459E+02  0.00000000000E+00 0. -1.
</event>
<event>
 7    1  0.2686828E-009  0.1145776E+03  0.7561462E-02  0.1252320E+00
         -2   -1    0    0    0  501 -0.00000000000E+00  0.00000000000E+00  0.97907012225E+02  0.97907012225E+02  0.00000000000E+00 0.  1.
          2   -1    0    0  501    0  0.00000000000E+00 -0.00000000000E+00 -0.17978742004E+03  0.17978742004E+03  0.00000000000E+00 0. -1.
         25    2    1    2    0    0 -0.24704345871E+02  0.48828008826E+02  0.10510718312E+02  0.13693789873E+03  0.12508810399E+03 0.  0.
          5    1    3    3  502    0 -0.51527831910E+01  0.90226435256E+02  0.46127800073E+01  0.90587587080E+02  0.41800000000E+01 0.  1.
         -5    1    3    3    0  502 -0.19551562680E+02 -0.41398426430E+02  0.58979383047E+01  0.46350311654E+02  0.41800000000E+01 0.  1.
        -11    1    1    2    0    0  0.50385609550E+02 -0.20284470608E+02 -0.86169722060E+02  0.10185966031E+03  0.00000000000E+00 0. -1.
         11    1    1    2    0    0 -0.25681263679E+02 -0.28543538217E+02 -0.62214040656E+01  0.38896873225E+02  0.00000000000E+00 0.  1.
</event>
<event>
 7    1  0.2686828E-009  0.1954848E+03  0.7561462E-02  0.1153605E+00
          4   -1    0    0  501    0  0.00000000000E+00  0.00000000000E+00  0.21232093792E+04  0.21232093792E+04  0.00000000000E+00 0. -1.
         -4   -1    0    0    0  501 -0.00000000000E+00 -0.00000000000E+00 -0.21726546596E+02  0.21726546596E+02  0.00000000000E+00 0.  1.
         25    2    1    2    0    0 -0.92987454162E+01 -0.18369486941E+03  0.10385344864E+04  0.10620894891E+04  0.12509968687E+03 0.  0.
          5    1    3    3  502    0 -0.14143003217E+01 -0.22568283258E+02  0.48414765201E+03  0.48469345880E+03  0.41800000000E+01 0. -1.
         -5    1    3    3    0  502 -0.78844450945E+01 -0.16112658615E+03  0.55438683442E+03  0.57739603031E+03  0.41800000000E+01 0. -1.
        -11    1    1    2    0    0 -0.42625998772E+02  0.83104655316E+02  0.47096593729E+03  0.48013776522E+03  0.00000000000E+00 0. -1.
         11    1    1    2    0    0  0.51924744188E+02  0.10059021409E+03  0.59198240889E+03  0.60270867147E+03  0.00000000000E+00 0.  1.
</event>
<event>
 7    1  0.2686828E-009  0.1058950E+03  0.7561462E-02  0.1268366E+00
          4   -1    0    0  501    0  0.00000000000E+00  0.00000000000E+00  0.15763598833E+03  0.15763598833E+03  0.00000000000E+00 0. -1.
         -4   -1    0    0    0  501 -0.00000000000E+00 -0.00000000000E+00 -0.75713996583E+02  0.75713996583E+02  0.00000000000E+00 0.  1.
         25    2    1    2    0    0  0.17053867210E+02  0.17308178204E+02  0.54035502864E+02  0.13841087746E+03  0.12508928016E+03 0.  0.
          5    1    3    3  502    0  0.68779536967E+02  0.25258373567E+02  0.20819787239E+02  0.76285949435E+02  0.41800000000E+01 0. -1.
         -5    1    3    3    0  502 -0.51725669756E+02 -0.79501953632E+01  0.33215715625E+02  0.62124928029E+02  0.41800000000E+01 0. -1.
        -11    1    1    2    0    0 -0.45544178645E+02  0.97860083934E+01 -0.26282693370E+00  0.46584409910E+02  0.00000000000E+00 0.  1.
         11    1    1    2    0    0  0.28490311435E+02 -0.27094186597E+02  0.28149315817E+02  0.48354697538E+02  0.00000000000E+00 0. -1.
</event>
<event>
 7    1  0.2686828E-009  0.1285969E+03  0.7561462E-02  0.1229553E+00
          2   -1    0    0  501    0  0.00000000000E+00  0.00000000000E+00  0.43328762661E+03  0.43328762661E+03  0.00000000000E+00 0. -1.
         -2   -1    0    0    0  501 -0.00000000000E+00 -0.00000000000E+00 -0.86822012957E+02  0.86822012957E+02  0.00000000000E+00 0.  1.
         25    2    1    2    0    0 -0.96019988402E+02  0.10353201314E+02  0.98731069554E+01  0.15834041341E+03  0.12508869384E+03 0.  0.
          5    1    3    3  502    0  0.26992032216E+02  0.71067624110E+01  0.20312567625E+02  0.34772815224E+02  0.41800000000E+01 0. -1.
         -5    1    3    3    0  502 -0.12301202062E+03  0.32464389026E+01 -0.10439460670E+02  0.12356759818E+03  0.41800000000E+01 0. -1.
        -11    1    1    2    0    0  0.62050020732E+02 -0.27408326886E+02  0.30467470244E+03  0.31213473975E+03  0.00000000000E+00 0. -1.
         11    1    1    2    0    0  0.33969967670E+02  0.17055125573E+02  0.31917804257E+02  0.49634486402E+02  0.00000000000E+00 0.  1.
</event>
<event>
 7    1  0.2686828E-009  0.1464754E+03  0.7561462E-02  0.1204872E+00
          1   -1    0    0  501    0  0.00000000000E+00  0.00000000000E+00  0.38283881092E+03  0.38283881092E+03  0.00000000000E+00 0. -1.
         -1   -1    0    0    0  501 -0.00000000000E+00 -0.00000000000E+00 -0.81870992802E+02  0.81870992802E+02  0.00000000000E+00 0.  1.
         25    2    1    2    0    0  0.92913801301E+02 -0.67632442909E+02  0.62602647001E+02  0.18102354341E+03  0.12507321877E+03 0.  0.
          5    1    3    3  502    0  0.82361008078E+01 -0.55052522106E+02  0.75974880222E+02  0.94277613310E+02  0.41800000000E+01 0. -1.
         -5    1    3    3    0  502  0.84677700493E+02 -0.12579920804E+02 -0.13372233222E+02  0.86745930104E+02  0.41800000000E+01 0. -1.
        -11    1    1    2    0    0  0.16044273159E+02  0.33660225161E+02  0.82183050421E+02  0.90246790722E+02  0.00000000000E+00 0.  1.
         11    1    1    2    0    0 -0.10895807446E+03  0.33972217748E+02  0.15618212069E+03  0.19343946958E+03  0.00000000000E+00 0. -1.
</event>
<event>
 7    1  0.2686828E-009  0.7178684E+02  0.7561462E-02  0.1354120E+00
          1   -1    0    0  501    0  0.00000000000E+00  0.00000000000E+00  0.30730097204E+03  0.30730097204E+03  0.00000000000E+00 0.  1.
         -1   -1    0    0    0  501 -0.00000000000E+00 -0.00000000000E+00 -0.50813552782E+02  0.50813552782E+02  0.00000000000E+00 0. -1.
         25    2    1    2    0    0  0.65600753237E+01  0.93981685421E+01  0.22970902833E+03  0.26181201874E+03  0.12509170757E+03 0.  0.
          5    1    3    3  502    0  0.49040827816E+01  0.31023951548E+02  0.23657014955E+03  0.23868272592E+03  0.41800000000E+01 0.  1.
         -5    1    3    3    0  502  0.16559925422E+01 -0.21625783006E+02 -0.68611212212E+01  0.23129292820E+02  0.41800000000E+01 0.  1.
        -11    1    1    2    0    0 -0.26110610659E+02 -0.43358555128E+02  0.35239043064E+01  0.50736044321E+02  0.00000000000E+00 0.  1.
         11    1    1    2    0    0  0.19550535336E+02  0.33960386586E+02  0.23254486627E+02  0.45566461759E+02  0.00000000000E+00 0. -1.
</event>
<event>
 7    1  0.2686828E-009  0.6639572E+02  0.7561462E-02  0.1372797E+00
         -1   -1    0    0    0  501 -0.00000000000E+00  0.00000000000E+00  0.97821060777E+02  0.97821060777E+02  0.00000000000E+00 0.  1.
          1   -1    0    0  501    0  0.00000000000E+00 -0.00000000000E+00 -0.16200550539E+03  0.16200550539E+03  0.00000000000E+00 0. -1.
         25    2    1    2    0    0 -0.43894345367E+02 -0.23168040260E+02  0.36044614442E+01  0.13462393513E+03  0.12508852914E+03 0.  0.
          5    1    3    3  502    0 -0.61031100657E+02 -0.14836734560E+02  0.52508416901E+02  0.81972740502E+02  0.41800000000E+01 0.  1.
         -5    1    3    3    0  502  0.17136755291E+02 -0.83313057004E+01 -0.48903955457E+02  0.52651194630E+02  0.41800000000E+01 0.  1.
        -11    1    1    2    0    0  0.17673252009E+02  0.14041091596E+02  0.21818000155E+02  0.31393012288E+02  0.00000000000E+00 0.  1.
         11    1    1    2    0    0  0.26221093358E+02  0.91269486640E+01 -0.89606906210E+02  0.93809618746E+02  0.00000000000E+00 0. -1.
</event>
<event>
 7    1  0.2686828E-009  0.2146696E+03  0.7561462E-02  0.1137921E+00
          1   -1    0    0  501    0  0.00000000000E+00  0.00000000000E+00  0.83440634369E+03  0.83440634369E+03  0.00000000000E+00 0. -1.
         -1   -1    0    0    0  501 -0.00000000000E+00 -0.00000000000E+00 -0.61165931684E+02  0.61165931684E+02  0.00000000000E+00 0.  1.
         25    2    1    2    0    0 -0.17895188076E+03 -0.75000132202E+02  0.48185964185E+03  0.53430825771E+03  0.12509118416E+03 0.  0.
          5    1    3    3  502    0 -0.19336935654E+03 -0.47406590431E+02  0.42522694483E+03  0.46954714340E+03  0.41800000000E+01 0.  1.
         -5    1    3    3    0  502  0.14417475776E+02 -0.27593541771E+02  0.56632697024E+02  0.64761114315E+02  0.41800000000E+01 0.  1.
        -11    1    1    2    0    0  0.48731119940E+02  0.44275838445E+00  0.23236111608E+02  0.53989211591E+02  0.00000000000E+00 0.  1.
         11    1    1    2    0    0  0.13022076082E+03  0.74557373817E+02  0.26814465855E+03  0.30727480607E+03  0.00000000000E+00 0. -1.
</event>
<event>
 7    1  0.2686828E-009  0.1792472E+03  0.7561462E-02  0.1168534E+00
         -2   -1    0    0    0  501 -0.00000000000E+00  0.00000000000E+00  0.68474908352E+02  0.68474908352E+02  0.00000000000E+00 0.  1.
          2   -1    0    0  501    0  0.00000000000E+00 -0.00000000000E+00 -0.51199011350E+03  0.51199011350E+03  0.00000000000E+00 0. -1.
         25    2    1    2    0    0  0.13505102415E+03 -0.47818358175E+02 -0.31203579836E+03  0.36542947962E+03  0.12508793154E+03 0.  0.
          5    1    3    3  502    0  0.15844231515E+03 -0.40132103396E+02 -0.28541248227E+03  0.32892599531E+03  0.41800000000E+01 0. -1.
         -5    1    3    3    0  502 -0.23391291005E+02 -0.76862547790E+01 -0.26623316087E+02  0.36503484311E+02  0.41800000000E+01 0. -1.
        -11    1    1    2    0    0 -0.34827621203E+02 -0.27725258167E+02 -0.38256130094E+02  0.58695695148E+02  0.00000000000E+00 0.  1.
         11    1    1    2    0    0 -0.10022340295E+03  0.75543616342E+02 -0.93223276697E+02  0.15633984708E+03  0.00000000000E+00 0. -1.
</event>
<event>
 7    1  0.3305320E-009  0.1304622E+03  0.7561462E-02  0.1226771E+00
          2   -1    0    0  501    0  0.00000000000E+00  0.00000000000E+00  0.24849180046E+03  0.24849180046E+03  0.00000000000E+00 0. -1.
         -2   -1    0    0    0  501 -0.00000000000E+00 -0.00000000000E+00 -0.99843049524E+02  0.99843049524E+02  0.00000000000E+00 0.  1.
         25    2    1    2    0    0  0.10074977687E+03  0.50812979528E+02  0.97128778783E+02  0.19445729311E+03  0.12508861959E+03 0.  0.
          5    1    3    3  502    0 -0.16037819484E+02  0.17678605261E+02  0.64174868719E+02  0.68597601364E+02  0.41800000000E+01 0.  1.
         -5    1    3    3    0  502  0.11678759635E+03  0.33134374267E+02  0.32953910064E+02  0.12585969175E+03  0.41800000000E+01 0.  1.
        -11    1    1    2    0    0 -0.65860117442E+02 -0.20423739434E+02 -0.17168177815E+02  0.71059345138E+02  0.00000000000E+00 0.  1.
         11    1    1    2    0    0 -0.34889659424E+02 -0.30389240094E+02  0.68688149965E+02  0.82818211728E+02  0.00000000000E+00 0. -1.
</event>
<event>
 7    1  0.2951778E-009  0.1009850E+03  0.7561462E-02  0.1278238E+00
         -1   -1    0    0    0  501 -0.00000000000E+00  0.00000000000E+00  0.11698788238E+03  0.11698788238E+03  0.00000000000E+00 0.  1.
          1   -1    0    0  501    0  0.00000000000E+00 -0.00000000000E+00 -0.12043804595E+03  0.12043804595E+03  0.00000000000E+00 0. -1.
         25    2    1    2    0    0  0.13711059859E+02  0.25337547788E+02 -0.41998962087E+02  0.13505978096E+03  0.12508895685E+03 0.  0.
          5    1    3    3  502    0 -0.50558772315E+02  0.57970289559E+01  0.73692118052E+01  0.51590432110E+02  0.41800000000E+01 0. -1.
         -5    1    3    3    0  502  0.64269832174E+02  0.19540518832E+02 -0.49368173892E+02  0.83469348849E+02  0.41800000000E+01 0. -1.
        -11    1    1    2    0    0 -0.40986559618E+02  0.66975686920E+01  0.43333462090E+02  0.60021199858E+02  0.00000000000E+00 0.  1.
         11    1    1    2    0    0  0.27275499758E+02 -0.32035116480E+02 -0.47846635712E+01  0.42344947520E+02  0.00000000000E+00 0. -1.
</event>
<event>
 7    1  0.2686828E-009  0.1330814E+03  0.7561462E-02  0.1222954E+00
         -1   -1    0    0    0  501 -0.00000000000E+00  0.00000000000E+00  0.14094553153E+03  0.14094553153E+03  0.00000000000E+00 0.  1.
          1   -1    0    0  501    0  0.00000000000E+00 -0.00000000000E+00 -0.20824379461E+03  0.20824379461E+03  0.00000000000E+00 0. -1.
         25    2    1    2    0    0 -0.79336537884E+02 -0.18612646067E+02  0.69012686302E+02  0.16447245244E+03  0.12509084661E+03 0.  0.
          5    1    3    3  502    0  0.24999693191E+02  0.24971749406E+02  0.10560886715E+02  0.37115733271E+02  0.41800000000E+01 0.  1.
         -5    1    3    3    0  502 -0.10433623108E+03 -0.43584395473E+02  0.58451799587E+02  0.12735671917E+03  0.41800000000E+01 0.  1.
        -11    1    1    2    0    0 -0.15301194422E+02 -0.10334902661E+02 -0.50356873823E+02  0.53635356855E+02  0.00000000000E+00 0.  1.
         11    1    1    2    0    0  0.94637732306E+02  0.28947548729E+02 -0.85954075555E+02  0.13108151684E+03  0.00000000000E+00 0. -1.
</event>
<event>
 7    1  0.2686828E-009  0.1100365E+03  0.7561462E-02  0.1260502E+00
         -4   -1    0    0    0  501 -0.00000000000E+00  0.00000000000E+00  0.19798880463E+02  0.19798880463E+02  0.00000000000E+00 0.  1.
          4   -1    0    0  501    0  0.00000000000E+00 -0.00000000000E+00 -0.62494335207E+03  0.62494335207E+03  0.00000000000E+00 0. -1.
         25    2    1    2    0    0 -0.63832734145E-01 -0.22398689419E+02 -0.38608757417E+03  0.40646408366E+03  0.12509089102E+03 0.  0.
          5    1    3    3  502    0 -0.50636049105E+02 -0.47634343213E+02 -0.23473136173E+03  0.24484551191E+03  0.41800000000E+01 0.  1.
         -5    1    3    3    0  502  0.50572216371E+02  0.25235653794E+02 -0.15135621244E+03  0.16161857175E+03  0.41800000000E+01 0.  1.
        -11    1    1    2    0    0 -0.48519156457E+01  0.57804952521E+02 -0.13658196086E+03  0.14838997828E+03  0.00000000000E+00 0.  1.
         11    1    1    2    0    0  0.49157483798E+01 -0.35406263102E+02 -0.82474936570E+02  0.89888170586E+02  0.00000000000E+00 0. -1.
</event>
<event>
 7    1  0.2686828E-009  0.9923927E+02  0.7561462E-02  0.1281904E+00
         -1   -1    0    0    0  501 -0.00000000000E+00  0.00000000000E+00  0.11330364798E+03  0.11330364798E+03  0.00000000000E+00 0.  1.
          1   -1    0    0  501    0  0.00000000000E+00 -0.00000000000E+00 -0.10818082270E+03  0.10818082270E+03  0.00000000000E+00 0. -1.
         25    2    1    2    0    0 -0.51911038087E+02 -0.19288488270E+02 -0.42954998606E+01  0.13686918195E+03  0.12509164638E+03 0.  0.
          5    1    3    3  502    0 -0.64413759715E+02 -0.61677650527E+02  0.10915171527E+02  0.89943751226E+02  0.41800000000E+01 0. -1.
         -5    1    3    3    0  502  0.12502721628E+02  0.42389162257E+02 -0.15210671387E+02  0.46925430728E+02  0.41800000000E+01 0. -1.
        -11    1    1    2    0    0  0.48137470112E+02  0.31571051618E+01  0.31049035307E+02  0.57369207205E+02  0.00000000000E+00 0.  1.
         11    1    1    2    0    0  0.37735679750E+01  0.16131383108E+02 -0.21630710160E+02  0.27246081522E+02  0.00000000000E+00 0. -1.
</event>
<event>
 7    1  0.2686828E-009  0.2217244E+03  0.7561462E-02  0.1132604E+00
         -2   -1    0    0    0  501 -0.00000000000E+00  0.00000000000E+00  0.42551643275E+02  0.42551643275E+02  0.00000000000E+00 0.  1.
          2   -1    0    0  501    0  0.00000000000E+00 -0.00000000000E+00 -0.12581184981E+04  0.12581184981E+04  0.00000000000E+00 0. -1.
         25    2    1    2    0    0  0.13455505935E+03  0.13983646717E+03 -0.80681263419E+03  0.83919784491E+03  0.12508834746E+03 0.  0.
          5    1    3    3  502    0  0.58384044634E+02  0.14243944075E+03 -0.51141491353E+03  0.53409772245E+03  0.41800000000E+01 0.  1.
         -5    1    3    3    0  502  0.76171014715E+02 -0.26029735770E+01 -0.29539772066E+03  0.30510012246E+03  0.41800000000E+01 0.  1.
        -11    1    1    2    0    0 -0.11718973416E+03 -0.60458252057E+02 -0.23007844406E+03  0.26518809260E+03  0.00000000000E+00 0.  1.
         11    1    1    2    0    0 -0.17365325185E+02 -0.79378215111E+02 -0.17867577661E+03  0.19628420390E+03  0.00000000000E+00 0. -1.
</event>
<event>
 7    1  0.2686828E-009  0.1609233E+03  0.7561462E-02  0.1187658E+00
          2   -1    0    0  501    0  0.00000000000E+00  0.00000000000E+00  0.40662711030E+03  0.40662711030E+03  0.00000000000E+00 0. -1.
         -2   -1    0    0    0  501 -0.00000000000E+00 -0.00000000000E+00 -0.69231243470E+02  0.69231243470E+02  0.00000000000E+00 0.  1.
         25    2    1    2    0    0  0.11111690115E+03 -0.57856557249E+02  0.21171461038E+03  0.27597806320E+03  0.12508584326E+03 0.  0.
          5    1    3    3  502    0  0.22643203566E+02  0.36121562378E+02  0.84319846658E+02  0.94576904563E+02  0.41800000000E+01 0.  1.
         -5    1    3    3    0  502  0.88473697583E+02 -0.93978119627E+02  0.12739476372E+03  0.18140115864E+03  0.41800000000E+01 0.  1.
        -11    1    1    2    0    0 -0.55692139120E+02 -0.15613759603E+02  0.23684762716E+02  0.62500974661E+02  0.00000000000E+00 0.  1.
         11    1    1    2    0    0 -0.55424762029E+02  0.73470316852E+02  0.10199649373E+03  0.13737931590E+03  0.00000000000E+00 0. -1.
</event>
<event>
 7    1  0.2686828E-009  0.1027961E+03  0.7561462E-02  0.1274524E+00
          1   -1    0    0  501    0  0.00000000000E+00  0.00000000000E+00  0.13594886543E+03  0.13594886543E+03  0.00000000000E+00 0. -1.
         -1   -1    0    0    0  501 -0.00000000000E+00 -0.00000000000E+00 -0.12568048143E+03  0.12568048143E+03  0.00000000000E+00 0.  1.
         25    2    1    2    0    0 -0.26280040897E+02  0.66203856325E+02  0.14095111756E+02  0.14463919460E+03  0.12509289866E+03 0.  0.
          5    1    3    3  502    0  0.31965810247E+02  0.48095210512E+02 -0.33737472976E+02  0.67012325596E+02  0.41800000000E+01 0.  1.
         -5    1    3    3    0  502 -0.58245851144E+02  0.18108645813E+02  0.47832584732E+02  0.77626869000E+02  0.41800000000E+01 0.  1.
        -11    1    1    2    0    0  0.23980701515E+02 -0.40064081738E+01 -0.38657066313E+02  0.45667210639E+02  0.00000000000E+00 0. -1.
         11    1    1    2    0    0  0.22993393820E+01 -0.62197448151E+02  0.34830338562E+02  0.71322941628E+02  0.00000000000E+00 0.  1.
</event>
<event>
 7    1  0.2686828E-009  0.1900625E+03  0.7561462E-02  0.1158405E+00
         -1   -1    0    0    0  501 -0.00000000000E+00  0.00000000000E+00  0.21636123457E+03  0.21636123457E+03  0.00000000000E+00 0.  1.
          1   -1    0    0  501    0  0.00000000000E+00 -0.00000000000E+00 -0.20272811772E+03  0.20272811772E+03  0.00000000000E+00 0. -1.
         25    2    1    2    0    0 -0.28770906382E+02 -0.17368270158E+03 -0.26945590443E+02  0.21764073702E+03  0.12509188497E+03 0.  0.
          5    1    3    3  502    0  0.27671306759E+02 -0.12649448869E+02  0.24588031900E+02  0.39341498283E+02  0.41800000000E+01 0.  1.
         -5    1    3    3    0  502 -0.56442213141E+02 -0.16103325271E+03 -0.51533622343E+02  0.17829923873E+03  0.41800000000E+01 0.  1.
        -11    1    1    2    0    0  0.33554936060E+02  0.11361668690E+03 -0.15074946538E+02  0.11942336157E+03  0.00000000000E+00 0. -1.
         11    1    1    2    0    0 -0.47840296775E+01  0.60066014674E+02  0.55653653838E+02  0.82025253699E+02  0.00000000000E+00 0.  1.
</event>
<event>
 7    1  0.2686828E-009  0.1036066E+03  0.7561462E-02  0.1272889E+00
         -2   -1    0    0    0  501 -0.00000000000E+00  0.00000000000E+00  0.13490865036E+03  0.13490865036E+03  0.00000000000E+00 0.  1.
          2   -1    0    0  501    0  0.00000000000E+00 -0.00000000000E+00 -0.14868391157E+03  0.14868391157E+03  0.00000000000E+00 0. -1.
         25    2    1    2    0    0 -0.43304862968E+02  0.46059668080E+02  0.66418204214E+02  0.15508748844E+03  0.12507576519E+03 0.  0.
          5    1    3    3  502    0  0.89811756578E+01 -0.38923742867E+02  0.21897242878E+02  0.45745829544E+02  0.41800000000E+01 0.  1.
         -5    1    3    3    0  502 -0.52286038626E+02  0.84983410947E+02  0.44520961336E+02  0.10934165889E+03  0.41800000000E+01 0.  1.
        -11    1    1    2    0    0  0.27762491889E+02 -0.43240003952E+02 -0.49520247287E+01  0.51623409870E+02  0.00000000000E+00 0.  1.
         11    1    1    2    0    0  0.15542371078E+02 -0.28196641271E+01 -0.75241440690E+02  0.76881663625E+02  0.00000000000E+00 0. -1.
</event>
<event>
 7    1  0.2686828E-009  0.7681196E+02  0.7561462E-02  0.1338350E+00
         -2   -1    0    0    0  501 -0.00000000000E+00  0.00000000000E+00  0.52743178602E+02  0.52743178602E+02  0.00000000000E+00 0.  1.
          2   -1    0    0  501    0  0.00000000000E+00 -0.00000000000E+00 -0.24542009471E+03  0.24542009471E+03  0.00000000000E+00 0. -1.
         25    2    1    2    0    0  0.11239979204E+02  0.26503782715E+02 -0.12988672094E+03  0.18261343309E+03  0.12509323737E+03 0.  0.
          5    1    3    3  502    0  0.47147440002E+02  0.35611161057E+01 -0.13146205541E+03  0.13976876281E+03  0.41800000000E+01 0.  1.
         -5    1    3    3    0  502 -0.35907460798E+02  0.22942666609E+02  0.15753344685E+01  0.42844670273E+02  0.41800000000E+01 0.  1.
        -11    1    1    2    0    0  0.89841380388E+01  0.14822429792E+02 -0.67134388432E+02  0.69335743101E+02  0.00000000000E+00 0. -1.
         11    1    1    2    0    0 -0.20224117242E+02 -0.41326212507E+02  0.43441932575E+01  0.46214097129E+02  0.00000000000E+00 0.  1.
</event>
<event>
 7    1  0.2686828E-009  0.9946079E+02  0.7561462E-02  0.1281434E+00
         -1   -1    0    0    0  501 -0.00000000000E+00  0.00000000000E+00  0.10404606954E+03  0.10404606954E+03  0.00000000000E+00 0.  1.
          1   -1    0    0  501    0  0.00000000000E+00 -0.00000000000E+00 -0.11543586273E+03  0.11543586273E+03  0.00000000000E+00 0. -1.
         25    2    1    2    0    0 -0.12688046730E+02  0.10502492869E+02  0.51272394223E+01  0.12627187976E+03  0.12508800961E+03 0.  0.
          5    1    3    3  502    0 -0.44103130398E+02 -0.32187054691E+02 -0.30106264219E+02  0.62489616304E+02  0.41800000000E+01 0.  1.
         -5    1    3    3    0  502  0.31415083668E+02  0.42689547560E+02  0.35233503641E+02  0.63782263456E+02  0.41800000000E+01 0.  1.
        -11    1    1    2    0    0  0.36169200989E+02  0.28106718139E+02 -0.24062092817E+01  0.45869254930E+02  0.00000000000E+00 0. -1.
         11    1    1    2    0    0 -0.23481154259E+02 -0.38609211008E+02 -0.14110823327E+02  0.47340797575E+02  0.00000000000E+00 0.  1.
</event>
<event>
 7    1  0.2686828E-009  0.1134429E+03  0.7561462E-02  0.1254324E+00
         -2   -1    0    0    0  501 -0.00000000000E+00  0.00000000000E+00  0.22540916867E+03  0.22540916867E+03  0.00000000000E+00 0.  1.
          2   -1    0    0  501    0  0.00000000000E+00 -0.00000000000E+00 -0.73247977912E+02  0.73247977912E+02  0.00000000000E+00 0. -1.
         25    2    1    2    0    0  0.40761388959E+02 -0.20815468146E+02  0.14648669562E+03  0.19799289341E+03  0.12509220321E+03 0.  0.
          5    1    3    3  502    0  0.75565530678E+02  0.16254868059E+02  0.11298210248E+03  0.13695546007E+03  0.41800000000E+01 0. -1.
         -5    1    3    3    0  502 -0.34804141719E+02 -0.37070336204E+02  0.33504593136E+02  0.61037433336E+02  0.41800000000E+01 0. -1.
        -11    1    1    2    0    0 -0.20704248479E+02 -0.34156894087E+02  0.12251575106E+02  0.41778707631E+02  0.00000000000E+00 0.  1.
         11    1    1    2    0    0 -0.20057140481E+02  0.54972362232E+02 -0.65770799605E+01  0.58885545548E+02  0.00000000000E+00 0. -1.
</event>
<event>
 7    1  0.2686828E-009  0.1785939E+03  0.7561462E-02  0.1169171E+00
         -1   -1    0    0    0  501 -0.00000000000E+00  0.00000000000E+00  0.62790230824E+02  0.62790230824E+02  0.00000000000E+00 0.  1.
          1   -1    0    0  501    0  0.00000000000E+00 -0.00000000000E+00 -0.62014727196E+03  0.62014727196E+03  0.00000000000E+00 0. -1.
         25    2    1    2    0    0 -0.63042981307E+02 -0.13569007413E+03 -0.17327879871E+03  0.26088190009E+03  0.12509040731E+03 0.  0.
          5    1    3    3  502    0  0.32267234729E+02 -0.43422578003E+02 -0.87159019893E+02  0.10266869954E+03  0.41800000000E+01 0. -1.
         -5    1    3    3    0  502 -0.95310216036E+02 -0.92267496128E+02 -0.86119778814E+02  0.15821320054E+03  0.41800000000E+01 0. -1.
        -11    1    1    2    0    0 -0.15656008634E+02  0.56235169004E+02 -0.18153288311E+03  0.19068742090E+03  0.00000000000E+00 0.  1.
         11    1    1    2    0    0  0.78698989941E+02  0.79454905127E+02 -0.20254535932E+03  0.23136818180E+03  0.00000000000E+00 0. -1.
</event>
<event>
 7    1  0.2686828E-009  0.1094663E+03  0.7561462E-02  0.1261561E+00
         -1   -1    0    0    0  501 -0.00000000000E+00  0.00000000000E+00  0.16986360927E+02  0.16986360927E+02  0.00000000000E+00 0. -1.
          1   -1    0    0  501    0  0.00000000000E+00 -0.00000000000E+00 -0.88439210831E+03  0.88439210831E+03  0.00000000000E+00 0.  1.
         25    2    1    2    0    0 -0.40520104244E+02  0.30222362474E+02 -0.38688978860E+03  0.40973990951E+03  0.12509122623E+03 0.  0.
          5    1    3    3  502    0 -0.69424171713E+02  0.46717493976E+02 -0.34996990943E+03  0.35985920826E+03  0.41800000000E+01 0. -1.
         -5    1    3    3    0  502  0.28904067469E+02 -0.16495131502E+02 -0.36919879175E+02  0.49880701256E+02  0.41800000000E+01 0. -1.
        -11    1    1    2    0    0 -0.22674037124E+02 -0.31001904552E+02 -0.13353323517E+03  0.13894730995E+03  0.00000000000E+00 0. -1.
         11    1    1    2    0    0  0.63194141369E+02  0.77954207860E+00 -0.34698272360E+03  0.35269124978E+03  0.00000000000E+00 0.  1.
</event>
<event>
 7    1  0.2686828E-009  0.6062976E+02  0.7561462E-02  0.1395208E+00
         -2   -1    0    0    0  501 -0.00000000000E+00  0.00000000000E+00  0.54765083587E+02  0.54765083587E+02  0.00000000000E+00 0.  1.
          2   -1    0    0  501    0  0.00000000000E+00 -0.00000000000E+00 -0.35812190044E+03  0.35812190044E+03  0.00000000000E+00 0. -1.
         25    2    1    2    0    0  0.33277935255E+02 -0.41555158311E+01 -0.45629733256E+02  0.13731235747E+03  0.12509165308E+03 0.  0.
          5    1    3    3  502    0  0.35365663756E+02 -0.19187118158E+02  0.36016765850E+02  0.54162306989E+02  0.41800000000E+01 0.  1.
         -5    1    3    3    0  502 -0.20877285011E+01  0.15031602327E+02 -0.81646499105E+02  0.83150050481E+02  0.41800000000E+01 0.  1.
        -11    1    1    2    0    0  0.26763129238E+01  0.23898898784E+02 -0.12811688294E+02  0.27248107657E+02  0.00000000000E+00 0.  1.
         11    1    1    2    0    0 -0.35954248179E+02 -0.19743382953E+02 -0.24491539531E+03  0.24832651890E+03  0.00000000000E+00 0. -1.
</event>
<event>
 7    1  0.3299795E-009  0.9901676E+02  0.7561462E-02  0.1282377E+00
         -1   -1    0    0    0  501 -0.00000000000E+00  0.00000000000E+00  0.14363697163E+03  0.14363697163E+03  0.00000000000E+00 0.  1.
          1   -1    0    0  501    0  0.00000000000E+00 -0.00000000000E+00 -0.10201277231E+03  0.10201277231E+03  0.00000000000E+00 0. -1.
         25    2    1    2    0    0 -0.26292387260E+02  0.22124484330E+02  0.65379903465E+02  0.14526833147E+03  0.12509026308E+03 0.  0.
          5    1    3    3  502    0  0.37918901987E+02  0.45772095641E+02  0.19168171989E+02  0.62592484250E+02  0.41800000000E+01 0.  1.
         -5    1    3    3    0  502 -0.64211289248E+02 -0.23647611311E+02  0.46211731477E+02  0.82675847220E+02  0.41800000000E+01 0.  1.
        -11    1    1    2    0    0 -0.17116886563E+02 -0.20150625750E+02  0.24075745061E+02  0.35758593708E+02  0.00000000000E+00 0.  1.
         11    1    1    2    0    0  0.43409273823E+02 -0.19738585802E+01 -0.47831449202E+02  0.64622818758E+02  0.00000000000E+00 0. -1.
</event>
<event>
 7    1  0.2686828E-009  0.8183308E+02  0.7561462E-02  0.1323928E+00
         -1   -1    0    0    0  501 -0.00000000000E+00  0.00000000000E+00  0.15927095544E+03  0.15927095544E+03  0.00000000000E+00 0.  1.
          1   -1    0    0  501    0  0.00000000000E+00 -0.00000000000E+00 -0.74031226058E+02  0.74031226058E+02  0.00000000000E+00 0. -1.
         25    2    1    2    0    0  0.14295410526E+01 -0.74052135928E+01  0.48916433296E+02  0.13452527495E+03  0.12508937357E+03 0.  0.
          5    1    3    3  502    0 -0.12721438146E+02  0.39895136195E+02  0.69195697218E+02  0.80987491590E+02  0.41800000000E+01 0. -1.
         -5    1    3    3    0  502  0.14150979199E+02 -0.47300349788E+02 -0.20279263922E+02  0.53537783365E+02  0.41800000000E+01 0. -1.
        -11    1    1    2    0    0  0.19461781194E+02  0.33417994831E+02 -0.11608585333E+02  0.40376757661E+02  0.00000000000E+00 0. -1.
         11    1    1    2    0    0 -0.20891322247E+02 -0.26012781239E+02  0.47931881417E+02  0.58400148880E+02  0.00000000000E+00 0.  1.
</event>
<event>
 7    1  0.2686828E-009  0.1082967E+03  0.7561462E-02  0.1263757E+00
         -2   -1    0    0    0  501 -0.00000000000E+00  0.00000000000E+00  0.16624085686E+03  0.16624085686E+03  0.00000000000E+00 0.  1.
          2   -1    0    0  501    0  0.00000000000E+00 -0.00000000000E+00 -0.90829842410E+02  0.90829842410E+02  0.00000000000E+00 0. -1.
         25    2    1    2    0    0  0.16370450256E+02 -0.27441618601E+02  0.92798720228E+02  0.15899649068E+03  0.12508895834E+03 0.  0.
          5    1    3    3  502    0  0.13287122809E+02 -0.73575288900E+02  0.82550413237E+02  0.11145364011E+03  0.41800000000E+01 0.  1.
         -5    1    3    3    0  502  0.30833274472E+01  0.46133670299E+02  0.10248306991E+02  0.47542850562E+02  0.41800000000E+01 0.  1.
        -11    1    1    2    0    0 -0.11050824382E+02  0.60652928512E+02 -0.18666239610E+02  0.64415269601E+02  0.00000000000E+00 0. -1.
         11    1    1    2    0    0 -0.53196258737E+01 -0.33211309911E+02  0.12785338345E+01  0.33658938994E+02  0.00000000000E+00 0.  1.
</event>
<event>
 7    1  0.2686828E-009  0.1358548E+03  0.7561462E-02  0.1219018E+00
          2   -1    0    0  501    0  0.00000000000E+00  0.00000000000E+00  0.13166917941E+03  0.13166917941E+03  0.00000000000E+00 0.  1.
         -2   -1    0    0    0  501 -0.00000000000E+00 -0.00000000000E+00 -0.16303589104E+03  0.16303589104E+03  0.00000000000E+00 0. -1.
         25    2    1    2    0    0  0.20307310887E+02 -0.92726058545E+02 -0.38236740457E+02  0.16161714861E+03  0.12509014987E+03 0.  0.
          5    1    3    3  502    0 -0.48706874515E+02 -0.67255233228E+02 -0.24346083077E+02  0.86636194415E+02  0.41800000000E+01 0.  1.
         -5    1    3    3    0  502  0.69014185402E+02 -0.25470825317E+02 -0.13890657380E+02  0.74980954191E+02  0.41800000000E+01 0.  1.
        -11    1    1    2    0    0  0.17827894513E+02  0.65866793059E+02  0.36936955090E+02  0.77592569889E+02  0.00000000000E+00 0.  1.
         11    1    1    2    0    0 -0.38135205400E+02  0.26859265486E+02 -0.30066926265E+02  0.55495351953E+02  0.00000000000E+00 0. -1.
</event>
<event>
 7    1  0.2686828E-009  0.8522120E+02  0.7561462E-02  0.1314855E+00
         -2   -1    0    0    0  501 -0.00000000000E+00  0.00000000000E+00  0.19233244915E+03  0.19233244915E+03  0.00000000000E+00 0.  1.
          2   -1    0    0  501    0  0.00000000000E+00 -0.00000000000E+00 -0.72204298879E+02  0.72204298879E+02  0.00000000000E+00 0. -1.
         25    2    1    2    0    0  0.32446456927E+02  0.21006222773E+02  0.37196549001E+02  0.13610845102E+03  0.12509153936E+03 0.  0.
          5    1    3    3  502    0  0.29020257167E+01 -0.37670137309E+02 -0.25039499626E+02  0.45518237440E+02  0.41800000000E+01 0. -1.
         -5    1    3    3    0  502  0.29544431211E+02  0.58676360081E+02  0.62236048626E+02  0.90590213580E+02  0.41800000000E+01 0. -1.
        -11    1    1    2    0    0  0.13265258348E+02  0.48030769838E+01 -0.12928463923E+02  0.19135877481E+02  0.00000000000E+00 0. -1.
         11    1    1    2    0    0 -0.45711715276E+02 -0.25809299756E+02  0.95860065197E+02  0.10929241953E+03  0.00000000000E+00 0.  1.
</event>
<event>
 7    1  0.2686828E-009  0.9242114E+02  0.7561462E-02  0.1297092E+00
          2   -1    0    0  501    0  0.00000000000E+00  0.00000000000E+00  0.32469322961E+02  0.32469322961E+02  0.00000000000E+00 0. -1.
         -2   -1    0    0    0  501 -0.00000000000E+00 -0.00000000000E+00 -0.45586204083E+03  0.45586204083E+03  0.00000000000E+00 0.  1.
         25    2    1    2    0    0  0.34132278972E+02 -0.43392456670E+02 -0.26513552888E+03  0.29831998286E+03  0.12510014283E+03 0.  0.
          5    1    3    3  502    0  0.61170585861E+02 -0.47531504058E+02 -0.25846452650E+03  0.26985638461E+03  0.41800000000E+01 0.  1.
         -5    1    3    3    0  502 -0.27038306889E+02  0.41390473877E+01 -0.66710023756E+01  0.28463598252E+02  0.41800000000E+01 0.  1.
        -11    1    1    2    0    0 -0.49644981927E+02  0.25170475116E+02 -0.37998677703E+02  0.67394929744E+02  0.00000000000E+00 0. -1.
         11    1    1    2    0    0  0.15512702955E+02  0.18221981554E+02 -0.12025851128E+03  0.12261645118E+03  0.00000000000E+00 0.  1.
</event>
<event>
 7    1  0.2686828E-009  0.7663679E+02  0.7561462E-02  0.1338876E+00
          2   -1    0    0  501    0  0.00000000000E+00  0.00000000000E+00  0.33143611463E+03  0.33143611463E+03  0.00000000000E+00 0. -1.
         -2   -1    0    0    0  501 -0.00000000000E+00 -0.00000000000E+00 -0.38994990649E+02  0.38994990649E+02  0.00000000000E+00 0.  1.
         25    2    1    2    0    0 -0.13196635378E+02  0.72972016274E+01  0.21888522702E+03  0.25255884253E+03  0.12509127065E+03 0.  0.
          5    1    3    3  502    0 -0.86571461035E+01  0.36615625822E+02  0.21935166043E+03  0.22259441494E+03  0.41800000000E+01 0. -1.
         -5    1    3    3    0  502 -0.45394892746E+01 -0.29318424195E+02 -0.46643340291E+00  0.29964427581E+02  0.41800000000E+01 0. -1.
        -11    1    1    2    0    0  0.13682791817E+02  0.37880458364E+02  0.13005691201E+02  0.42323704013E+02  0.00000000000E+00 0.  1.
         11    1    1    2    0    0 -0.48615643877E+00 -0.45177659991E+02  0.60550205754E+02  0.75548558736E+02  0.00000000000E+00 0. -1.
</event>
<event>
 7    1  0.4552451E-009  0.1062108E+03  0.7561462E-02  0.1267752E+00
          1   -1    0    0  501    0  0.00000000000E+00  0.00000000000E+00  0.16635077341E+04  0.16635077341E+04  0.00000000000E+00 0. -1.
         -1   -1    0    0    0  501 -0.00000000000E+00 -0.00000000000E+00 -0.14198268315E+02  0.14198268315E+02  0.00000000000E+00 0.  1.
         25    2    1    2    0    0 -0.99774480263E+01 -0.73863632678E+02  0.13208787925E+04  0.13288808383E+04  0.12509241481E+03 0.  0.
          5    1    3    3  502    0  0.37569221385E+02 -0.19989196073E+01  0.80088662635E+03  0.80178070739E+03  0.41800000000E+01 0.  1.
         -5    1    3    3    0  502 -0.47546669412E+02 -0.71864713071E+02  0.51999216612E+03  0.52710013089E+03  0.41800000000E+01 0.  1.
        -11    1    1    2    0    0 -0.19096072590E+02  0.33358756915E+02  0.37664696337E+02  0.53815388147E+02  0.00000000000E+00 0.  1.
         11    1    1    2    0    0  0.29073520616E+02  0.40504875764E+02  0.29076597701E+03  0.29500977602E+03  0.00000000000E+00 0. -1.
</event>
<event>
 7    1  0.2686828E-009  0.3021704E+03  0.7561462E-02  0.1084161E+00
         -2   -1    0    0    0  501 -0.00000000000E+00  0.00000000000E+00  0.78925109200E+03  0.78925109200E+03  0.00000000000E+00 0.  1.
          2   -1    0    0  501    0  0.00000000000E+00 -0.00000000000E+00 -0.14198008805E+03  0.14198008805E+03  0.00000000000E+00 0. -1.
         25    2    1    2    0    0 -0.10402913997E+03  0.28099482436E+03  0.47122880611E+03  0.57226246796E+03  0.12509033234E+03 0.  0.
          5    1    3    3  502    0 -0.24670504490E+02  0.10330887444E+03  0.27956563449E+03  0.29909158082E+03  0.41800000000E+01 0.  1.
         -5    1    3    3    0  502 -0.79358635476E+02  0.17768594993E+03  0.19166317162E+03  0.27317088714E+03  0.41800000000E+01 0.  1.
        -11    1    1    2    0    0 -0.48554031934E+01 -0.20396493744E+02 -0.73523591912E+01  0.22218215115E+02  0.00000000000E+00 0.  1.
         11    1    1    2    0    0  0.10888454316E+03 -0.26059833062E+03  0.18339455704E+03  0.33675049697E+03  0.00000000000E+00 0. -1.
</event>
<event>
 7    1  0.2686828E-009  0.7315109E+02  0.7561462E-02  0.1349694E+00
          2   -1    0    0  501    0  0.00000000000E+00  0.00000000000E+00  0.91165650386E+03  0.91165650386E+03  0.00000000000E+00 0. -1.
         -2   -1    0    0    0  501 -0.00000000000E+00 -0.00000000000E+00 -0.15218584479E+02  0.15218584479E+02  0.00000000000E+00 0.  1.
         25    2    1    2    0    0 -0.33322940004E+02 -0.94852245371E+01  0.40802654544E+03  0.42817417212E+03  0.12508825715E+03 0.  0.
          5    1    3    3  502    0 -0.38217590991E+02 -0.11321469871E+02  0.29934940652E+02  0.50023324690E+02  0.41800000000E+01 0.  1.
         -5    1    3    3    0  502  0.48946509866E+01  0.18362453336E+01  0.37809160478E+03  0.37815084743E+03  0.41800000000E+01 0.  1.
        -11    1    1    2    0    0  0.26238814807E+02 -0.40931160253E+02  0.19956904851E+03  0.20540603790E+03  0.00000000000E+00 0.  1.
         11    1    1    2    0    0  0.70841251968E+01  0.50416384791E+02  0.28884232544E+03  0.29329487832E+03  0.00000000000E+00 0. -1.
</event>
<event>
 7    1  0.2686828E-009  0.1576040E+03  0.7561462E-02  0.1191429E+00
          2   -1    0    0  501    0  0.00000000000E+00  0.00000000000E+00  0.11307051850E+04  0.11307051850E+04  0.00000000000E+00 0. -1.
         -2   -1    0    0    0  501 -0.00000000000E+00 -0.00000000000E+00 -0.26445977958E+02  0.26445977958E+02  0.00000000000E+00 0.  1.
         25    2    1    2    0    0 -0.12241837926E+03 -0.11832899232E+02  0.76500606036E+03  0.78486191988E+03  0.12509070229E+03 0.  0.
          5    1    3    3  502    0  0.12918851733E+02 -0.32007846310E+02  0.98888191162E+02  0.10482244849E+03  0.41800000000E+01 0.  1.
         -5    1    3    3    0  502 -0.13533723099E+03  0.20174947078E+02  0.66611786920E+03  0.68003947139E+03  0.41800000000E+01 0.  1.
        -11    1    1    2    0    0  0.10688906547E+03  0.37724675828E+02  0.20081635514E+03  0.23059842145E+03  0.00000000000E+00 0.  1.
         11    1    1    2    0    0  0.15529313793E+02 -0.25891776597E+02  0.13843679150E+03  0.14169082159E+03  0.00000000000E+00 0. -1.
</event>
<event>
 7    1  0.2686828E-009  0.1171049E+03  0.7561462E-02  0.1247951E+00
          1   -1    0    0  501    0  0.00000000000E+00  0.00000000000E+00  0.24774755563E+03  0.24774755563E+03  0.00000000000E+00 0. -1.
         -1   -1    0    0    0  501 -0.00000000000E+00 -0.00000000000E+00 -0.11038354521E+03  0.11038354521E+03  0.00000000000E+00 0.  1.
         25    2    1    2    0    0  0.63813037595E+02 -0.84570055170E+01  0.18962631513E+03  0.23611410463E+03  0.12509239108E+03 0.  0.
          5    1    3    3  502    0 -0.18803096174E+01  0.45964925455E+02  0.11016167614E+03  0.11945449856E+03  0.41800000000E+01 0.  1.
         -5    1    3    3    0  502  0.65693347213E+02 -0.54421930972E+02  0.79464638989E+02  0.11665960607E+03  0.41800000000E+01 0.  1.
        -11    1    1    2    0    0 -0.82960907736E+02  0.46980275459E+01 -0.21910992589E+02  0.85934133331E+02  0.00000000000E+00 0. -1.
         11    1    1    2    0    0  0.19147870140E+02  0.37589779711E+01 -0.30351312123E+02  0.36082862884E+02  0.00000000000E+00 0.  1.
</event>
<event>
 7    1  0.2686828E-009  0.1208451E+03  0.7561462E-02  0.1241709E+00
          1   -1    0    0  501    0  0.00000000000E+00  0.00000000000E+00  0.83638628919E+03  0.83638628919E+03  0.00000000000E+00 0. -1.
         -1   -1    0    0    0  501 -0.00000000000E+00 -0.00000000000E+00 -0.20177843893E+02  0.20177843893E+02  0.00000000000E+00 0.  1.
         25    2    1    2    0    0 -0.88694760343E+01 -0.67510650031E+02  0.51778426781E+03  0.53701382159E+03  0.12508773369E+03 0.  0.
          5    1    3    3  502    0 -0.35167550479E+02  0.20762522375E+02  0.26033747228E+03  0.26355437923E+03  0.41800000000E+01 0. -1.
         -5    1    3    3    0  502  0.26298074444E+02 -0.88273172405E+02  0.25744679553E+03  0.27345944236E+03  0.41800000000E+01 0. -1.
        -11    1    1    2    0    0  0.22372226813E+02 -0.13618016824E+02  0.12362877802E+03  0.12637263022E+03  0.00000000000E+00 0.  1.
         11    1    1    2    0    0 -0.13502750779E+02  0.81128666855E+02  0.17479539947E+03  0.19317768127E+03  0.00000000000E+00 0. -1.
</event>
<event>
 7    1  0.2686828E-009  0.1840908E+03  0.7561462E-02  0.1163902E+00
         -1   -1    0    0    0  501 -0.00000000000E+00  0.00000000000E+00  0.35630515367E+02  0.35630515367E+02  0.00000000000E+00 0.  1.
          1   -1    0    0  501    0  0.00000000000E+00 -0.00000000000E+00 -0.10187817005E+04  0.10187817005E+04  0.00000000000E+00 0. -1.
         25    2    1    2    0    0 -0.14700595780E+03  0.35023063386E+02 -0.40780163504E+03  0.45253472884E+03  0.12509252841E+03 0.  0.
          5    1    3    3  502    0 -0.72445022761E+02 -0.43922150082E+02 -0.21648121649E+03  0.23250596999E+03  0.41800000000E+01 0. -1.
         -5    1    3    3    0  502 -0.74560935040E+02  0.78945213468E+02 -0.19132041855E+03  0.22002875884E+03  0.41800000000E+01 0. -1.
        -11    1    1    2    0    0  0.20328326135E+02  0.26875042459E+02 -0.15115688022E+03  0.15486739873E+03  0.00000000000E+00 0. -1.
         11    1    1    2    0    0  0.12667763167E+03 -0.61898105844E+02 -0.42419266990E+03  0.44701008833E+03  0.00000000000E+00 0.  1.
</event>
<event>
 7    1  0.2686828E-009  0.1248426E+03  0.7561462E-02  0.1235316E+00
         -1   -1    0    0    0  501 -0.00000000000E+00  0.00000000000E+00  0.31278465183E+02  0.31278465183E+02  0.00000000000E+00 0.  1.
          1   -1    0    0  501    0  0.00000000000E+00 -0.00000000000E+00 -0.91113308989E+03  0.91113308989E+03  0.00000000000E+00 0. -1.
         25    2    1    2    0    0 -0.10917160377E+03 -0.37291985879E+02 -0.41294563409E+03  0.44663385285E+03  0.12509424653E+03 0.  0.
          5    1    3    3  502    0 -0.43845409750E+02 -0.27478682138E+02 -0.34241892141E+02  0.62189046509E+02  0.41800000000E+01 0.  1.
         -5    1    3    3    0  502 -0.65326194019E+02 -0.98133037403E+01 -0.37870374195E+03  0.38444480634E+03  0.41800000000E+01 0.  1.
        -11    1    1    2    0    0  0.59772237639E+02 -0.12909096232E+02 -0.71224134309E+02  0.93873545080E+02  0.00000000000E+00 0.  1.
         11    1    1    2    0    0  0.49399366131E+02  0.50201082110E+02 -0.39568485631E+03  0.40190415715E+03  0.00000000000E+00 0. -1.
</event>
<event>
 7    1  0.2686828E-009  0.9757234E+02  0.7561462E-02  0.1285485E+00
          2   -1    0    0  501    0  0.00000000000E+00  0.00000000000E+00  0.63837346638E+02  0.63837346638E+02  0.00000000000E+00 0. -1.
         -2   -1    0    0    0  501 -0.00000000000E+00 -0.00000000000E+00 -0.38143413880E+03  0.38143413880E+03  0.00000000000E+00 0.  1.
         25    2    1    2    0    0 -0.53490223761E+02 -0.12315047140E+02 -0.30960967351E+03  0.33840654330E+03  0.12509186300E+03 0.  0.
          5    1    3    3  502    0 -0.49407540428E+02  0.43266120071E+02 -0.88153019671E+02  0.11000677013E+03  0.41800000000E+01 0.  1.
         -5    1    3    3    0  502 -0.40826833323E+01 -0.55581167211E+02 -0.22145665384E+03  0.22839977317E+03  0.41800000000E+01 0.  1.
        -11    1    1    2    0    0  0.19105140254E+01 -0.14974902128E+02 -0.38256445160E+02  0.41127282355E+02  0.00000000000E+00 0.  1.
         11    1    1    2    0    0  0.51579709735E+02  0.27289949268E+02  0.30269326508E+02  0.65737659790E+02  0.00000000000E+00 0. -1.
</event>
<event>
 7    1  0.2686828E-009  0.9233627E+02  0.7561462E-02  0.1297291E+00
          1   -1    0    0  501    0  0.00000000000E+00  0.00000000000E+00  0.33653509532E+03  0.33653509532E+03  0.00000000000E+00 0. -1.
         -1   -1    0    0    0  501 -0.00000000000E+00 -0.00000000000E+00 -0.39429327709E+02  0.39429327709E+02  0.00000000000E+00 0.  1.
         25    2    1    2    0    0 -0.24274508194E+02  0.19082212246E+02  0.13272451344E+03  0.18498012645E+03  0.12509383734E+03 0.  0.
          5    1    3    3  502    0 -0.64612672765E+02  0.87954983493E+00  0.26752180943E+02  0.70062277118E+02  0.41800000000E+01 0. -1.
         -5    1    3    3    0  502  0.40338164571E+02  0.18202662411E+02  0.10597233250E+03  0.11491784933E+03  0.41800000000E+01 0. -1.
        -11    1    1    2    0    0 -0.22682962245E+02  0.41774357298E+01  0.12034641111E+03  0.12253663294E+03  0.00000000000E+00 0. -1.
         11    1    1    2    0    0  0.46957470439E+02 -0.23259647976E+02  0.44034843052E+02  0.68447663631E+02  0.00000000000E+00 0.  1.
</event>
<event>
 7    1  0.2686828E-009  0.1399750E+03  0.7561462E-02  0.1213363E+00
          1   -1    0    0  501    0  0.00000000000E+00  0.00000000000E+00  0.11040823205E+03  0.11040823205E+03  0.00000000000E+00 0. -1.
         -1   -1    0    0    0  501 -0.00000000000E+00 -0.00000000000E+00 -0.29621460800E+03  0.29621460800E+03  0.00000000000E+00 0.  1.
         25    2    1    2    0    0 -0.64622844018E+02 -0.73928633511E+02 -0.21541429223E+03  0.26775432534E+03  0.12508999407E+03 0.  0.
          5    1    3    3  502    0  0.29827385886E+02 -0.22944748338E+02 -0.11364279013E+03  0.11978435028E+03  0.41800000000E+01 0.  1.
         -5    1    3    3    0  502 -0.94450229904E+02 -0.50983885173E+02 -0.10177150211E+03  0.14796997505E+03  0.41800000000E+01 0.  1.
        -11    1    1    2    0    0 -0.21792428136E+02  0.31761773781E+02  0.93593783684E+00  0.38530457789E+02  0.00000000000E+00 0.  1.
         11    1    1    2    0    0  0.86415272154E+02  0.42166859730E+02  0.28671978445E+02  0.10033805693E+03  0.00000000000E+00 0. -1.
</event>
<event>
 7    1  0.2686828E-009  0.1537360E+03  0.7561462E-02  0.1195956E+00
         -1   -1    0    0    0  501 -0.00000000000E+00  0.00000000000E+00  0.42283250053E+02  0.42283250053E+02  0.00000000000E+00 0.  1.
          1   -1    0    0  501    0  0.00000000000E+00 -0.00000000000E+00 -0.75914982607E+03  0.75914982607E+03  0.00000000000E+00 0. -1.
         25    2    1    2    0    0 -0.69370949320E+02  0.95994402710E+02 -0.20111063554E+03  0.26480223236E+03  0.12508988998E+03 0.  0.
          5    1    3    3  502    0  0.34062221973E+02  0.98353249197E+01 -0.27432961567E+02  0.45022309607E+02  0.41800000000E+01 0. -1.
         -5    1    3    3    0  502 -0.10343317129E+03  0.86159077790E+02 -0.17367767398E+03  0.21977992276E+03  0.41800000000E+01 0. -1.
        -11    1    1    2    0    0  0.44042446813E+02 -0.10196284536E+03 -0.47827494869E+03  0.49100212372E+03  0.00000000000E+00 0. -1.
         11    1    1    2    0    0  0.25328502507E+02  0.59684426499E+01 -0.37480991785E+02  0.45628720036E+02  0.00000000000E+00 0.  1.
</event>
<event>
 7    1  0.2686828E-009  0.1602645E+03  0.7561462E-02  0.1188398E+00
         -2   -1    0    0    0  501 -0.00000000000E+00  0.00000000000E+00  0.94002101361E+02  0.94002101361E+02  0.00000000000E+00 0.  1.
          2   -1    0    0  501    0  0.00000000000E+00 -0.00000000000E+00 -0.38716191747E+03  0.38716191747E+03  0.00000000000E+00 0. -1.
         25    2    1    2    0    0  0.79264184095E+02  0.87011518370E+02 -0.25468977575E+02  0.17364030496E+03  0.12509385068E+03 0.  0.
          5    1    3    3  502    0  0.82855013858E+02  0.69125586337E+00 -0.26642860139E+02  0.87136361827E+02  0.41800000000E+01 0.  1.
         -5    1    3    3    0  502 -0.35908297625E+01  0.86320262507E+02  0.11738825633E+01  0.86503943135E+02  0.41800000000E+01 0.  1.
        -11    1    1    2    0    0 -0.49792094570E+02 -0.10523392897E+03 -0.21413220644E+03  0.24373353139E+03  0.00000000000E+00 0.  1.
         11    1    1    2    0    0 -0.29472089525E+02  0.18222410601E+02 -0.53558632093E+02  0.63790182480E+02  0.00000000000E+00 0. -1.
</event>
<event>
 7    1  0.2686828E-009  0.1152649E+03  0.7561462E-02  0.1251119E+00
         -2   -1    0    0    0  501 -0.00000000000E+00  0.00000000000E+00  0.21370281064E+03  0.21370281064E+03  0.00000000000E+00 0.  1.
          2   -1    0    0  501    0  0.00000000000E+00 -0.00000000000E+00 -0.68359106557E+02  0.68359106557E+02  0.00000000000E+00 0. -1.
         25    2    1    2    0    0  0.47404311697E+02 -0.11623125027E+02  0.53853582131E+02  0.14467133965E+03  0.12508925775E+03 0.  0.
          5    1    3    3  502    0  0.51418454017E+02  0.48461133706E+02  0.44450486042E+02  0.83580242898E+02  0.41800000000E+01 0. -1.
         -5    1    3    3    0  502 -0.40141423198E+01 -0.60084258733E+02  0.94030960892E+01  0.61091096750E+02  0.41800000000E+01 0. -1.
        -11    1    1    2    0    0 -0.72319179863E+02  0.10652125751E+01  0.80404135589E+02  0.10814815520E+03  0.00000000000E+00 0. -1.
         11    1    1    2    0    0  0.24914868166E+02  0.10557912452E+02  0.11085986365E+02  0.29242422348E+02  0.00000000000E+00 0.  1.
</event>
<event>
 7    1  0.2686828E-009  0.1242311E+03  0.7561462E-02  0.1236276E+00
          2   -1    0    0  501    0  0.00000000000E+00  0.00000000000E+00  0.20848958856E+03  0.20848958856E+03  0.00000000000E+00 0. -1.
         -2   -1    0    0    0  501 -0.00000000000E+00 -0.00000000000E+00 -0.97473225332E+02  0.97473225332E+02  0.00000000000E+00 0.  1.
         25    2    1    2    0    0  0.47966211087E+02  0.78210606583E+02  0.83326595390E+02  0.17609176634E+03  0.12508929725E+03 0.  0.
          5    1    3    3  502    0  0.45778469012E+02 -0.10342597955E+02  0.72900689297E+02  0.86802191548E+02  0.41800000000E+01 0.  1.
         -5    1    3    3    0  502  0.21877420751E+01  0.88553204538E+02  0.10425906092E+02  0.89289574795E+02  0.41800000000E+01 0.  1.
        -11    1    1    2    0    0  0.76061142039E+01 -0.49563560383E+02 -0.17080428715E+02  0.52973017058E+02  0.00000000000E+00 0.  1.
         11    1    1    2    0    0 -0.55572325291E+02 -0.28647046199E+02  0.44770196557E+02  0.76898030494E+02  0.00000000000E+00 0. -1.
</event>
<event>
 7    1  0.2686828E-009  0.1530077E+03  0.7561462E-02  0.1196825E+00
          2   -1    0    0  501    0  0.00000000000E+00  0.00000000000E+00  0.15671229661E+02  0.15671229661E+02  0.00000000000E+00 0. -1.
         -2   -1    0    0    0  501 -0.00000000000E+00 -0.00000000000E+00 -0.20023642679E+04  0.20023642679E+04  0.00000000000E+00 0.  1.
         25    2    1    2    0    0  0.71642573621E+02  0.10309980333E+03 -0.13872411485E+04  0.13985164755E+04  0.12509236756E+03 0.  0.
          5    1    3    3  502    0  0.40362586875E+02 -0.96871977726E+01 -0.14843253484E+03  0.15418388378E+03  0.41800000000E+01 0. -1.
         -5    1    3    3    0  502  0.31279986746E+02  0.11278700110E+03 -0.12388086136E+04  0.12443325917E+04  0.41800000000E+01 0. -1.
        -11    1    1    2    0    0 -0.55649374244E+02 -0.14996306921E+02 -0.34477713944E+03  0.34956117913E+03  0.00000000000E+00 0.  1.
         11    1    1    2    0    0 -0.15993199378E+02 -0.88103496410E+02 -0.25467475029E+03  0.26995784289E+03  0.00000000000E+00 0. -1.
</event>
<event>
 7    1  0.2686828E-009  0.1966339E+03  0.7561462E-02  0.1152610E+00
         -2   -1    0    0    0  501 -0.00000000000E+00  0.00000000000E+00  0.41925308451E+02  0.41925308451E+02  0.00000000000E+00 0.  1.
          2   -1    0    0  501    0  0.00000000000E+00 -0.00000000000E+00 -0.13654732044E+04  0.13654732044E+04  0.00000000000E+00 0. -1.
         25    2    1    2    0    0 -0.18844425861E+02 -0.18308501355E+03 -0.10077285855E+04  0.10320076180E+04  0.12509031514E+03 0.  0.
          5    1    3    3  502    0  0.34585723054E+02 -0.11351161719E+03 -0.37870348982E+03  0.39688142445E+03  0.41800000000E+01 0.  1.
         -5    1    3    3    0  502 -0.53430148915E+02 -0.69573396364E+02 -0.62902509566E+03  0.63512619350E+03  0.41800000000E+01 0.  1.
        -11    1    1    2    0    0  0.31396442960E+01  0.15053620652E+03 -0.17913345224E+03  0.23400812069E+03  0.00000000000E+00 0.  1.
         11    1    1    2    0    0  0.15704781565E+02  0.32548807035E+02 -0.13668585827E+03  0.14138277424E+03  0.00000000000E+00 0. -1.
</event>
<event>
 7    1  0.2686828E-009  0.1053779E+03  0.7561462E-02  0.1269377E+00
         -1   -1    0    0    0  501 -0.00000000000E+00  0.00000000000E+00  0.78764123970E+02  0.78764123970E+02  0.00000000000E+00 0.  1.
          1   -1    0    0  501    0  0.00000000000E+00 -0.00000000000E+00 -0.21861698406E+03  0.21861698406E+03  0.00000000000E+00 0. -1.
         25    2    1    2    0    0 -0.58891373468E+02 -0.16478011533E+02 -0.11905941118E+03  0.18320150976E+03  0.12509169059E+03 0.  0.
          5    1    3    3  502    0 -0.30182898784E+02  0.46676422537E+02 -0.94072323582E+02  0.10934701763E+03  0.41800000000E+01 0.  1.
         -5    1    3    3    0  502 -0.28708474684E+02 -0.63154434070E+02 -0.24987087601E+02  0.73854492133E+02  0.41800000000E+01 0.  1.
        -11    1    1    2    0    0  0.40288322097E+02 -0.19690319185E+02 -0.47656473987E+02  0.65436970283E+02  0.00000000000E+00 0. -1.
         11    1    1    2    0    0  0.18603051372E+02  0.36168330718E+02  0.26863025075E+02  0.48742627991E+02  0.00000000000E+00 0.  1.
</event>
<event>
 7    1  0.2686828E-009  0.1025694E+03  0.7561462E-02  0.1274984E+00
         -1   -1    0    0    0  501 -0.00000000000E+00  0.00000000000E+00  0.89073372705E+02  0.89073372705E+02  0.00000000000E+00 0.  1.
          1   -1    0    0  501    0  0.00000000000E+00 -0.00000000000E+00 -0.16231553338E+03  0.16231553338E+03  0.00000000000E+00 0. -1.
         25    2    1    2    0    0  0.49362883723E+02  0.93418539130E+01 -0.52898974270E+02  0.14481207291E+03  0.12509304720E+03 0.  0.
          5    1    3    3  502    0 -0.10719426752E+02  0.43449905891E+02 -0.60293081839E+02  0.75203248264E+02  0.41800000000E+01 0.  1.
         -5    1    3    3    0  502  0.60082310475E+02 -0.34108051978E+02  0.73941075684E+01  0.69608824646E+02  0.41800000000E+01 0.  1.
        -11    1    1    2    0    0 -0.68807466912E+02  0.12805867882E+01  0.94315305177E+01  0.69462660281E+02  0.00000000000E+00 0.  1.
         11    1    1    2    0    0  0.19444583189E+02 -0.10622440701E+02 -0.29774716922E+02  0.37114172894E+02  0.00000000000E+00 0. -1.
</event>
<event>
 7    1  0.2686828E-009  0.1600689E+03  0.7561462E-02  0.1188619E+00
         -2   -1    0    0    0  501 -0.00000000000E+00  0.00000000000E+00  0.30825608427E+02  0.30825608427E+02  0.00000000000E+00 0.  1.
          2   -1    0    0  501    0  0.00000000000E+00 -0.00000000000E+00 -0.16803179480E+04  0.16803179480E+04  0.00000000000E+00 0. -1.
         25    2    1    2    0    0 -0.13660043681E+02  0.15010049040E+03 -0.13136776884E+04  0.13281981814E+04  0.12507832057E+03 0.  0.
          5    1    3    3  502    0  0.18520500771E+01  0.18251696141E+02 -0.70259409813E+03  0.70284599567E+03  0.41800000000E+01 0.  1.
         -5    1    3    3    0  502 -0.15512093758E+02  0.13184879426E+03 -0.61108359022E+03  0.62535218577E+03  0.41800000000E+01 0.  1.
        -11    1    1    2    0    0  0.27951450581E+02 -0.13301850127E+02 -0.16081878887E+02  0.34883371897E+02  0.00000000000E+00 0.  1.
         11    1    1    2    0    0 -0.14291406899E+02 -0.13679864028E+03 -0.31973277229E+03  0.34806200306E+03  0.00000000000E+00 0. -1.
</event>
<event>
 7    1  0.3638826E-009  0.8929407E+02  0.7561462E-02  0.1304570E+00
         -2   -1    0    0    0  501 -0.00000000000E+00  0.00000000000E+00  0.68947769560E+02  0.68947769560E+02  0.00000000000E+00 0.  1.
          2   -1    0    0  501    0  0.00000000000E+00 -0.00000000000E+00 -0.21275911418E+03  0.21275911418E+03  0.00000000000E+00 0. -1.
         25    2    1    2    0    0  0.17156855826E+02  0.11967279698E+02 -0.22856791700E+02  0.12887795601E+03  0.12509804608E+03 0.  0.
          5    1    3    3  502    0 -0.16277431300E+02 -0.31048739938E+02  0.34708420494E+02  0.49508846428E+02  0.41800000000E+01 0.  1.
         -5    1    3    3    0  502  0.33434287126E+02  0.43016019636E+02 -0.57565212194E+02  0.79369109582E+02  0.41800000000E+01 0.  1.
        -11    1    1    2    0    0 -0.52024942762E+02 -0.13471875567E+02 -0.95673986083E+02  0.10973421396E+03  0.00000000000E+00 0. -1.
         11    1    1    2    0    0  0.34868086936E+02  0.15045958682E+01 -0.25280566839E+02  0.43094713771E+02  0.00000000000E+00 0.  1.
</event>
<event>
 7    1  0.2686828E-009  0.2437934E+03  0.7561462E-02  0.1117291E+00
          1   -1    0    0  501    0  0.00000000000E+00  0.00000000000E+00  0.43036042472E+03  0.43036042472E+03  0.00000000000E+00 0. -1.
         -1   -1    0    0    0  501 -0.00000000000E+00 -0.00000000000E+00 -0.23530088796E+03  0.23530088796E+03  0.00000000000E+00 0.  1.
         25    2    1    2    0    0  0.12433647538E+03 -0.19457076545E+03 -0.10163297713E+03  0.28159206363E+03  0.12508991318E+03 0.  0.
          5    1    3    3  502    0 -0.18591046153E+02 -0.40693162727E+02  0.63914170538E+01  0.45385935065E+02  0.41800000000E+01 0. -1.
         -5    1    3    3    0  502  0.14292752153E+03 -0.15387760272E+03 -0.10802439419E+03  0.23620612856E+03  0.41800000000E+01 0. -1.
        -11    1    1    2    0    0 -0.78431387521E+02  0.14620347130E+03  0.15314061570E+03  0.22578526468E+03  0.00000000000E+00 0.  1.
         11    1    1    2    0    0 -0.45905087860E+02  0.48367294145E+02  0.14355189819E+03  0.15828398437E+03  0.00000000000E+00 0. -1.
</event>
<event>
 7    1  0.2686828E-009  0.1651116E+03  0.7561462E-02  0.1183044E+00
          1   -1    0    0  501    0  0.00000000000E+00  0.00000000000E+00  0.16321234241E+04  0.16321234241E+04  0.00000000000E+00 0. -1.
         -1   -1    0    0    0  501 -0.00000000000E+00 -0.00000000000E+00 -0.21530944050E+02  0.21530944050E+02  0.00000000000E+00 0.  1.
         25    2    1    2    0    0 -0.13678418394E+03 -0.24734602942E+02  0.11143393830E+04  0.11299200159E+04  0.12508104637E+03 0.  0.
          5    1    3    3  502    0 -0.22815922921E+02 -0.44769655175E+02  0.62655494879E+03  0.62858051561E+03  0.41800000000E+01 0.  1.
         -5    1    3    3    0  502 -0.11396826102E+03  0.20035052233E+02  0.48778443424E+03  0.50133950027E+03  0.41800000000E+01 0.  1.
        -11    1    1    2    0    0  0.60285105303E+02  0.55131437943E+02  0.19461455724E+03  0.21106538149E+03  0.00000000000E+00 0.  1.
         11    1    1    2    0    0  0.76499078635E+02 -0.30396835001E+02  0.30163853978E+03  0.31266897078E+03  0.00000000000E+00 0. -1.
</event>
<event>
 7    1  0.2686828E-009  0.8251655E+02  0.7561462E-02  0.1322058E+00
          1   -1    0    0  501    0  0.00000000000E+00  0.00000000000E+00  0.43714714962E+03  0.43714714962E+03  0.00000000000E+00 0. -1.
         -1   -1    0    0    0  501 -0.00000000000E+00 -0.00000000000E+00 -0.44389052764E+02  0.44389052764E+02  0.00000000000E+00 0.  1.
         25    2    1    2    0    0 -0.29224687198E+02  0.23888772563E+02  0.37836150585E+03  0.40028649974E+03  0.12508835664E+03 0.  0.
          5    1    3    3  502    0  0.16599420359E+02  0.63765878729E+02  0.14885370340E+03  0.16283895561E+03  0.41800000000E+01 0. -1.
         -5    1    3    3    0  502 -0.45824107557E+02 -0.39877106165E+02  0.22950780244E+03  0.23744754413E+03  0.41800000000E+01 0. -1.
        -11    1    1    2    0    0  0.11981114454E+02 -0.64973790430E+01  0.42112760123E+02  0.44263388970E+02  0.00000000000E+00 0. -1.
         11    1    1    2    0    0  0.17243572744E+02 -0.17391393520E+02 -0.27716169111E+02  0.36986313682E+02  0.00000000000E+00 0.  1.
</event>
<event>
 7    1  0.2686828E-009  0.7048043E+02  0.7561462E-02  0.1358467E+00
          2   -1    0    0  501    0  0.00000000000E+00  0.00000000000E+00  0.49963817082E+03  0.49963817082E+03  0.00000000000E+00 0. -1.
         -2   -1    0    0    0  501 -0.00000000000E+00 -0.00000000000E+00 -0.38024461536E+02  0.38024461536E+02  0.00000000000E+00 0.  1.
         25    2    1    2    0    0  0.28332510807E+02  0.28040746399E+02  0.40059861021E+03  0.42156292365E+03  0.12508811883E+03 0.  0.
          5    1    3    3  502    0  0.12778119944E+02 -0.34243268170E+01 -0.47588818416E+01  0.14667164683E+02  0.41800000000E+01 0.  1.
         -5    1    3    3    0  502  0.15554390863E+02  0.31465073216E+02  0.40535749205E+03  0.40689575897E+03  0.41800000000E+01 0.  1.
        -11    1    1    2    0    0 -0.55716783801E+02 -0.49804056627E+01  0.15221613287E+02  0.57972941522E+02  0.00000000000E+00 0.  1.
         11    1    1    2    0    0  0.27384272993E+02 -0.23060340737E+02  0.45793485796E+02  0.58126767187E+02  0.00000000000E+00 0. -1.
</event>
<event>
 7    1  0.2686828E-009  0.1133650E+03  0.7561462E-02  0.1254462E+00
         -2   -1    0    0    0  501 -0.00000000000E+00  0.00000000000E+00  0.42473252922E+02  0.42473252922E+02  0.00000000000E+00 0.  1.
          2   -1    0    0  501    0  0.00000000000E+00 -0.00000000000E+00 -0.50412473217E+03  0.50412473217E+03  0.00000000000E+00 0. -1.
         25    2    1    2    0    0 -0.20409968396E+02 -0.52658243141E+02 -0.40107535385E+03  0.42390813298E+03  0.12508880192E+03 0.  0.
          5    1    3    3  502    0  0.42032690258E+02 -0.35533245245E+02 -0.85773472304E+02  0.10199960549E+03  0.41800000000E+01 0.  1.
         -5    1    3    3    0  502 -0.62442658654E+02 -0.17124997896E+02 -0.31530188154E+03  0.32190852750E+03  0.41800000000E+01 0.  1.
        -11    1    1    2    0    0 -0.35178821940E+02  0.31333897485E+02 -0.28511335121E+02  0.55065950233E+02  0.00000000000E+00 0.  1.
         11    1    1    2    0    0  0.55588790336E+02  0.21324345656E+02 -0.32064790278E+02  0.67623901871E+02  0.00000000000E+00 0. -1.
</event>
<event>
 7    1  0.2686828E-009  0.9420160E+02  0.7561462E-02  0.1292984E+00
         -3   -1    0    0    0  501 -0.00000000000E+00  0.00000000000E+00  0.60157787776E+03  0.60157787776E+03  0.00000000000E+00 0.  1.
          3   -1    0    0  501    0  0.00000000000E+00 -0.00000000000E+00 -0.61305621679E+02  0.61305621679E+02  0.00000000000E+00 0. -1.
         25    2    1    2    0    0  0.92132103699E+02 -0.91774983632E+00  0.50430289241E+03  0.52768848571E+03  0.12507823094E+03 0.  0.
          5    1    3    3  502    0  0.53185730797E+02  0.11781217431E+02  0.47253035761E+03  0.47567838958E+03  0.41800000000E+01 0. -1.
         -5    1    3    3    0  502  0.38946372902E+02 -0.12698967267E+02  0.31772534800E+02  0.52010096130E+02  0.41800000000E+01 0. -1.
        -11    1    1    2    0    0 -0.50389533632E+02  0.50622128246E+01  0.66300976950E+02  0.83429914556E+02  0.00000000000E+00 0.  1.
         11    1    1    2    0    0 -0.41742570067E+02 -0.41444629882E+01 -0.30331613276E+02  0.51765099181E+02  0.00000000000E+00 0. -1.
</event>
<event>
 7    1  0.2686828E-009  0.1977786E+03  0.7561462E-02  0.1151627E+00
          2   -1    0    0  501    0  0.00000000000E+00  0.00000000000E+00  0.54490949090E+03  0.54490949090E+03  0.00000000000E+00 0.  1.
         -2   -1    0    0    0  501 -0.00000000000E+00 -0.00000000000E+00 -0.14419290350E+03  0.14419290350E+03  0.00000000000E+00 0. -1.
         25    2    1    2    0    0 -0.18286858866E+03  0.11154144138E+02  0.42826514976E+03  0.48230882985E+03  0.12508170609E+03 0.  0.
          5    1    3    3  502    0 -0.80044023134E+02  0.52216693843E+02  0.28854062032E+03  0.30398485279E+03  0.41800000000E+01 0.  1.
         -5    1    3    3    0  502 -0.10282456552E+03 -0.41062549706E+02  0.13972452944E+03  0.17832397705E+03  0.41800000000E+01 0.  1.
        -11    1    1    2    0    0  0.84241629880E+02 -0.28548148595E+02  0.26735668556E+02  0.92878657215E+02  0.00000000000E+00 0.  1.
         11    1    1    2    0    0  0.98626958775E+02  0.17394004458E+02 -0.54284230916E+02  0.11391490734E+03  0.00000000000E+00 0. -1.
</event>
<event>
 7    1  0.2686828E-009  0.8602936E+02  0.7561462E-02  0.1312762E+00
          3   -1    0    0  501    0  0.00000000000E+00  0.00000000000E+00  0.28758660924E+03  0.28758660924E+03  0.00000000000E+00 0. -1.
         -3   -1    0    0    0  501 -0.00000000000E+00 -0.00000000000E+00 -0.47619991602E+02  0.47619991602E+02  0.00000000000E+00 0.  1.
         25    2    1    2    0    0 -0.34726690513E+02 -0.22532687760E+02  0.16047499256E+03  0.20763673292E+03  0.12508846697E+03 0.  0.
          5    1    3    3  502    0 -0.40121324223E+02 -0.50070457920E+02  0.16663068068E+03  0.17860578815E+03  0.41800000000E+01 0. -1.
         -5    1    3    3    0  502  0.53946337104E+01  0.27537770160E+02 -0.61556881247E+01  0.29030944775E+02  0.41800000000E+01 0. -1.
        -11    1    1    2    0    0  0.37844037922E+02  0.43806176760E+02  0.87253812958E+02  0.10471093641E+03  0.00000000000E+00 0. -1.
         11    1    1    2    0    0 -0.31173474093E+01 -0.21273489000E+02 -0.77621878795E+01  0.22858931510E+02  0.00000000000E+00 0.  1.
</event>
<event>
 7    1  0.2686828E-009  0.8734496E+02  0.7561462E-02  0.1309412E+00
         -2   -1    0    0    0  501 -0.00000000000E+00  0.00000000000E+00  0.28221781138E+03  0.28221781138E+03  0.00000000000E+00 0.  1.
          2   -1    0    0  501    0  0.00000000000E+00 -0.00000000000E+00 -0.82680786620E+02  0.82680786620E+02  0.00000000000E+00 0. -1.
         25    2    1    2    0    0  0.56352657449E+02  0.54482551844E+01  0.21700754010E+03  0.25679891281E+03  0.12509238056E+03 0.  0.
          5    1    3    3  502    0  0.41964915578E+02  0.29924532321E+02  0.22176083196E+03  0.22771005855E+03  0.41800000000E+01 0. -1.
         -5    1    3    3    0  502  0.14387741872E+02 -0.24476277137E+02 -0.47532918571E+01  0.29088854259E+02  0.41800000000E+01 0. -1.
        -11    1    1    2    0    0 -0.17663942758E+02  0.34444248811E+02  0.17456348503E+02  0.42463457855E+02  0.00000000000E+00 0.  1.
         11    1    1    2    0    0 -0.38688714691E+02 -0.39892503996E+02 -0.34926863851E+02  0.65636227329E+02  0.00000000000E+00 0. -1.
</event>
<event>
 7    1  0.2686828E-009  0.1397658E+03  0.7561462E-02  0.1213645E+00
         -4   -1    0    0    0  501 -0.00000000000E+00  0.00000000000E+00  0.27299528145E+02  0.27299528145E+02  0.00000000000E+00 0.  1.
          4   -1    0    0  501    0  0.00000000000E+00 -0.00000000000E+00 -0.76466589879E+03  0.76466589879E+03  0.00000000000E+00 0. -1.
         25    2    1    2    0    0  0.87994515647E+02 -0.23210120430E+02 -0.38323382189E+03  0.41327641443E+03  0.12508991971E+03 0.  0.
          5    1    3    3  502    0 -0.31647827749E+02 -0.13175722199E+02 -0.82777773688E+02  0.89692903138E+02  0.41800000000E+01 0.  1.
         -5    1    3    3    0  502  0.11964234340E+03 -0.10034398232E+02 -0.30045604820E+03  0.32358351130E+03  0.41800000000E+01 0.  1.
        -11    1    1    2    0    0 -0.58021656896E+02 -0.28843310198E+02 -0.11369862701E+03  0.13086568304E+03  0.00000000000E+00 0.  1.
         11    1    1    2    0    0 -0.29972858751E+02  0.52053430628E+02 -0.24043392175E+03  0.24782332947E+03  0.00000000000E+00 0. -1.
</event>
<event>
 7    1  0.2686828E-009  0.9195954E+02  0.7561462E-02  0.1298175E+00
         -4   -1    0    0    0  501 -0.00000000000E+00  0.00000000000E+00  0.33161309819E+03  0.33161309819E+03  0.00000000000E+00 0.  1.
          4   -1    0    0  501    0  0.00000000000E+00 -0.00000000000E+00 -0.67661888121E+02  0.67661888121E+02  0.00000000000E+00 0. -1.
         25    2    1    2    0    0 -0.31974150071E+02  0.53595457060E+02  0.33399103389E+02  0.14372416538E+03  0.12508523621E+03 0.  0.
          5    1    3    3  502    0 -0.67520443063E+02  0.40770006782E+02  0.58391573861E+02  0.98225515944E+02  0.41800000000E+01 0. -1.
         -5    1    3    3    0  502  0.35546292992E+02  0.12825450278E+02 -0.24992470472E+02  0.45498649437E+02  0.41800000000E+01 0. -1.
        -11    1    1    2    0    0  0.18230784758E+02 -0.91617347463E+01  0.50387292865E-01  0.20403466258E+02  0.00000000000E+00 0.  1.
         11    1    1    2    0    0  0.13743365313E+02 -0.44433722314E+02  0.23050171939E+03  0.23514735468E+03  0.00000000000E+00 0. -1.
</event>
<event>
 7    1  0.2686828E-009  0.1267142E+03  0.7561462E-02  0.1232414E+00
         -1   -1    0    0    0  501 -0.00000000000E+00  0.00000000000E+00  0.18800031450E+02  0.18800031450E+02  0.00000000000E+00 0.  1.
          1   -1    0    0  501    0  0.00000000000E+00 -0.00000000000E+00 -0.11892063217E+04  0.11892063217E+04  0.00000000000E+00 0. -1.
         25    2    1    2    0    0  0.43076900170E+02  0.92881448774E+02 -0.68514951684E+03  0.70396040069E+03  0.12509117657E+03 0.  0.
          5    1    3    3  502    0 -0.28786768104E+01  0.75983890804E+02 -0.16767939883E+03  0.18416213409E+03  0.41800000000E+01 0.  1.
         -5    1    3    3    0  502  0.45955576980E+02  0.16897557970E+02 -0.51747011801E+03  0.51979826660E+03  0.41800000000E+01 0.  1.
        -11    1    1    2    0    0  0.21964196452E+02 -0.14677016620E+02 -0.44903638379E+02  0.52097768496E+02  0.00000000000E+00 0.  1.
         11    1    1    2    0    0 -0.65041096622E+02 -0.78204432155E+02 -0.44035313506E+03  0.45194818399E+03  0.00000000000E+00 0. -1.
</event>
<event>
 7    1  0.2686828E-009  0.1327449E+03  0.7561462E-02  0.1223439E+00
         -3   -1    0    0    0  501 -0.00000000000E+00  0.00000000000E+00  0.36763199365E+03  0.36763199365E+03  0.00000000000E+00 0.  1.
          3   -1    0    0  501    0  0.00000000000E+00 -0.00000000000E+00 -0.71298126074E+02  0.71298126074E+02  0.00000000000E+00 0. -1.
         25    2    1    2    0    0 -0.87477218429E+02 -0.55384524696E+02  0.80662226061E+02  0.18131136441E+03  0.12509079436E+03 0.  0.
          5    1    3    3  502    0 -0.10846142259E+03 -0.14635948338E+02  0.79386300591E+02  0.13526916979E+03  0.41800000000E+01 0. -1.
         -5    1    3    3    0  502  0.20984204166E+02 -0.40748576358E+02  0.12759254697E+01  0.46042194621E+02  0.41800000000E+01 0. -1.
        -11    1    1    2    0    0  0.63011045460E+02  0.18483558617E+02  0.40980765406E+02  0.77404501951E+02  0.00000000000E+00 0. -1.
         11    1    1    2    0    0  0.24466172969E+02  0.36900966080E+02  0.17469087611E+03  0.18021425336E+03  0.00000000000E+00 0.  1.
</event>
<event>
 7    1  0.2686828E-009  0.5532595E+02  0.7561462E-02  0.1418564E+00
          1   -1    0    0  501    0  0.00000000000E+00  0.00000000000E+00  0.82181116973E+03  0.82181116973E+03  0.00000000000E+00 0. -1.
         -1   -1    0    0    0  501 -0.00000000000E+00 -0.00000000000E+00 -0.27620826352E+02  0.27620826352E+02  0.00000000000E+00 0.  1.
         25    2    1    2    0    0 -0.38261561108E+02 -0.11186151151E+02  0.69947661038E+03  0.71168870462E+03  0.12507680347E+03 0.  0.
          5    1    3    3  502    0 -0.32668256451E+02 -0.18345105348E+02  0.52492644525E+02  0.64627455458E+02  0.41800000000E+01 0. -1.
         -5    1    3    3    0  502 -0.55933046567E+01  0.71589541967E+01  0.64698396586E+03  0.64706124916E+03  0.41800000000E+01 0. -1.
        -11    1    1    2    0    0 -0.11843944126E+02  0.22806362486E+01 -0.13534533745E+02  0.18129090375E+02  0.00000000000E+00 0.  1.
         11    1    1    2    0    0  0.50105505234E+02  0.89055149029E+01  0.10824826673E+03  0.11961420109E+03  0.00000000000E+00 0. -1.
</event>
<event>
 7    1  0.2686828E-009  0.9623896E+02  0.7561462E-02  0.1288410E+00
         -1   -1    0    0    0  501 -0.00000000000E+00  0.00000000000E+00  0.23782397380E+03  0.23782397380E+03  0.00000000000E+00 0.  1.
          1   -1    0    0  501    0  0.00000000000E+00 -0.00000000000E+00 -0.71167989317E+02  0.71167989317E+02  0.00000000000E+00 0. -1.
         25    2    1    2    0    0 -0.38810747184E+02  0.59437792327E+02  0.99149624484E+02  0.17468737430E+03  0.12508359385E+03 0.  0.
          5    1    3    3  502    0 -0.22528091965E+02  0.21398715409E+01 -0.26785126828E+02  0.35313020219E+02  0.41800000000E+01 0. -1.
         -5    1    3    3    0  502 -0.16282655220E+02  0.57297920786E+02  0.12593475131E+03  0.13937435408E+03  0.41800000000E+01 0. -1.
        -11    1    1    2    0    0  0.57942391630E+02 -0.67529018103E+02  0.70227069744E+02  0.11335488679E+03  0.00000000000E+00 0.  1.
         11    1    1    2    0    0 -0.19131644446E+02  0.80912257758E+01 -0.27207097429E+01  0.20949702033E+02  0.00000000000E+00 0. -1.
</event>
<event>
 7    1  0.2686828E-009  0.1125232E+03  0.7561462E-02  0.1255967E+00
          1   -1    0    0  501    0  0.00000000000E+00  0.00000000000E+00  0.32715941764E+02  0.32715941764E+02  0.00000000000E+00 0. -1.
         -1   -1    0    0    0  501 -0.00000000000E+00 -0.00000000000E+00 -0.55217192547E+03  0.55217192547E+03  0.00000000000E+00 0.  1.
         25    2    1    2    0    0  0.43773625932E+02  0.54054972909E+02 -0.36458920972E+03  0.39167577705E+03  0.12508617853E+03 0.  0.
          5    1    3    3  502    0  0.69419804930E+02  0.53844819989E+02 -0.35196123372E+03  0.36278444895E+03  0.41800000000E+01 0. -1.
         -5    1    3    3    0  502 -0.25646178998E+02  0.21015292034E+00 -0.12627975991E+02  0.28891328094E+02  0.41800000000E+01 0. -1.
        -11    1    1    2    0    0 -0.68253358966E+02 -0.53328704525E+02 -0.95158726768E+02  0.12867655193E+03  0.00000000000E+00 0. -1.
         11    1    1    2    0    0  0.24479733034E+02 -0.72626838405E+00 -0.59708047217E+02  0.64535538254E+02  0.00000000000E+00 0.  1.
</event>
<event>
 7    1  0.2686828E-009  0.9702137E+02  0.7561462E-02  0.1286687E+00
         -2   -1    0    0    0  501 -0.00000000000E+00  0.00000000000E+00  0.14296057309E+03  0.14296057309E+03  0.00000000000E+00 0.  1.
          2   -1    0    0  501    0  0.00000000000E+00 -0.00000000000E+00 -0.14049941691E+03  0.14049941691E+03  0.00000000000E+00 0. -1.
         25    2    1    2    0    0 -0.88646557340E+02 -0.11767183480E+02 -0.11713546756E+02  0.15421027196E+03  0.12508765753E+03 0.  0.
          5    1    3    3  502    0 -0.44229649261E+02 -0.14276871541E+02  0.56117279637E+02  0.72984329884E+02  0.41800000000E+01 0. -1.
         -5    1    3    3    0  502 -0.44416908079E+02  0.25096880612E+01 -0.67830826393E+02  0.81225942079E+02  0.41800000000E+01 0. -1.
        -11    1    1    2    0    0  0.12724795420E+01  0.15200013738E+02  0.36023660012E+02  0.39119863273E+02  0.00000000000E+00 0.  1.
         11    1    1    2    0    0  0.87374077798E+02 -0.34328302580E+01 -0.21848957076E+02  0.90129854765E+02  0.00000000000E+00 0. -1.
</event>
<event>
 7    1  0.2686828E-009  0.1303350E+03  0.7561462E-02  0.1226959E+00
          1   -1    0    0  501    0  0.00000000000E+00  0.00000000000E+00  0.15491800339E+03  0.15491800339E+03  0.00000000000E+00 0. -1.
         -1   -1    0    0    0  501 -0.00000000000E+00 -0.00000000000E+00 -0.11052125865E+03  0.11052125865E+03  0.00000000000E+00 0.  1.
         25    2    1    2    0    0 -0.50703982935E+02  0.50598862582E+02  0.24293852721E+02  0.14617976071E+03  0.12508873803E+03 0.  0.
          5    1    3    3  502    0  0.11924432610E+02 -0.34875802290E+02 -0.11958950471E+01  0.37113558754E+02  0.41800000000E+01 0. -1.
         -5    1    3    3    0  502 -0.62628415545E+02  0.85474664871E+02  0.25489747769E+02  0.10906620196E+03  0.41800000000E+01 0. -1.
        -11    1    1    2    0    0  0.28738639310E+02  0.25440654753E+02  0.54594589054E+01  0.38767795851E+02  0.00000000000E+00 0.  1.
         11    1    1    2    0    0  0.21965343625E+02 -0.76039517335E+02  0.14643433113E+02  0.80491705476E+02  0.00000000000E+00 0. -1.
</event>
<event>
 7    1  0.2686828E-009  0.1605429E+03  0.7561462E-02  0.1188085E+00
         -2   -1    0    0    0  501 -0.00000000000E+00  0.00000000000E+00  0.27326995937E+03  0.27326995937E+03  0.00000000000E+00 0.  1.
          2   -1    0    0  501    0  0.00000000000E+00 -0.00000000000E+00 -0.13200616068E+03  0.13200616068E+03  0.00000000000E+00 0. -1.
         25    2    1    2    0    0 -0.13056408932E+03 -0.28153910721E+02 -0.98217292544E+01  0.18325094286E+03  0.12507924522E+03 0.  0.
          5    1    3    3  502    0 -0.28083247610E+02  0.44782601946E+02  0.14709657255E+02  0.55027235528E+02  0.41800000000E+01 0. -1.
         -5    1    3    3    0  502 -0.10248084171E+03 -0.72936512666E+02 -0.24531386509E+02  0.12822370733E+03  0.41800000000E+01 0. -1.
        -11    1    1    2    0    0  0.38975870690E+02  0.32158565322E+02  0.11101676698E+03  0.12197546626E+03  0.00000000000E+00 0.  1.
         11    1    1    2    0    0  0.91588218635E+02 -0.40046546012E+01  0.40068760959E+02  0.10004971092E+03  0.00000000000E+00 0. -1.
</event>
<event>
 7    1  0.2686828E-009  0.9702018E+02  0.7561462E-02  0.1286690E+00
         -2   -1    0    0    0  501 -0.00000000000E+00  0.00000000000E+00  0.11317139659E+02  0.11317139659E+02  0.00000000000E+00 0.  1.
          2   -1    0    0  501    0  0.00000000000E+00 -0.00000000000E+00 -0.14143301913E+04  0.14143301913E+04  0.00000000000E+00 0. -1.
         25    2    1    2    0    0 -0.36655413240E+02 -0.32507580397E+02 -0.10409354195E+04  0.10495686180E+04  0.12508946449E+03 0.  0.
          5    1    3    3  502    0 -0.14225358727E+02  0.25982678168E+02 -0.80089576708E+03  0.80145427975E+03  0.41800000000E+01 0. -1.
         -5    1    3    3    0  502 -0.22430054513E+02 -0.58490258566E+02 -0.24003965246E+03  0.24811433826E+03  0.41800000000E+01 0. -1.
        -11    1    1    2    0    0 -0.27851779178E+02  0.23034668451E+02 -0.11519230185E+03  0.12072938316E+03  0.00000000000E+00 0. -1.
         11    1    1    2    0    0  0.64507192418E+02  0.94729119469E+01 -0.24688533022E+03  0.25534932977E+03  0.00000000000E+00 0.  1.
</event>
<event>
 7    1  0.3252713E-009  0.1382919E+03  0.7561462E-02  0.1215646E+00
         -1   -1    0    0    0  501 -0.00000000000E+00  0.00000000000E+00  0.12019270970E+02  0.12019270970E+02  0.00000000000E+00 0.  1.
          1   -1    0    0  501    0  0.00000000000E+00 -0.00000000000E+00 -0.19192906119E+04  0.19192906119E+04  0.00000000000E+00 0. -1.
         25    2    1    2    0    0 -0.45881068400E+02 -0.90645119321E+02 -0.12188428466E+04  0.12294496558E+04  0.12508781405E+03 0.  0.
          5    1    3    3  502    0 -0.71868028353E+02 -0.32905460758E+02 -0.37706100284E+03  0.38527945067E+03  0.41800000000E+01 0. -1.
         -5    1    3    3    0  502  0.25986959953E+02 -0.57739658563E+02 -0.84178184381E+03  0.84417020513E+03  0.41800000000E+01 0. -1.
        -11    1    1    2    0    0 -0.26212640909E+02  0.19345369514E+02 -0.11453430377E+03  0.11907750671E+03  0.00000000000E+00 0.  1.
         11    1    1    2    0    0  0.72093709309E+02  0.71299749807E+02 -0.57389419053E+03  0.58278272038E+03  0.00000000000E+00 0. -1.
</event>
<event>
 7    1  0.2686828E-009  0.1206112E+03  0.7561462E-02  0.1242092E+00
          2   -1    0    0  501    0  0.00000000000E+00  0.00000000000E+00  0.96355629385E+02  0.96355629385E+02  0.00000000000E+00 0. -1.
         -2   -1    0    0    0  501 -0.00000000000E+00 -0.00000000000E+00 -0.16047557806E+03  0.16047557806E+03  0.00000000000E+00 0.  1.
         25    2    1    2    0    0 -0.56546655181E+02 -0.75602539323E+01 -0.59847755931E+02  0.14994192564E+03  0.12508455350E+03 0.  0.
          5    1    3    3  502    0 -0.87087873209E+01 -0.63211108450E+02 -0.29419710279E+02  0.70388059790E+02  0.41800000000E+01 0.  1.
         -5    1    3    3    0  502 -0.47837867860E+02  0.55650854517E+02 -0.30428045652E+02  0.79553865853E+02  0.41800000000E+01 0.  1.
        -11    1    1    2    0    0 -0.20825700050E+01 -0.32626387620E+02  0.10407431033E+02  0.34309370261E+02  0.00000000000E+00 0. -1.
         11    1    1    2    0    0  0.58629225186E+02  0.40186641553E+02 -0.14679623778E+02  0.72579911542E+02  0.00000000000E+00 0.  1.
</event>
<event>
 7    1  0.2686828E-009  0.1018329E+03  0.7561462E-02  0.1276488E+00
          2   -1    0    0  501    0  0.00000000000E+00  0.00000000000E+00  0.50355517905E+02  0.50355517905E+02  0.00000000000E+00 0. -1.
         -2   -1    0    0    0  501 -0.00000000000E+00 -0.00000000000E+00 -0.25663891559E+03  0.25663891559E+03  0.00000000000E+00 0.  1.
         25    2    1    2    0    0  0.88661158092E+00  0.14678463099E+02 -0.15020963063E+03  0.19602757790E+03  0.12509050646E+03 0.  0.
          5    1    3    3  502    0 -0.60202015030E+02 -0.10156229708E+01 -0.54453214870E+02  0.81289231227E+02  0.41800000000E+01 0. -1.
         -5    1    3    3    0  502  0.61088626611E+02  0.15694086070E+02 -0.95756415760E+02  0.11473834668E+03  0.41800000000E+01 0. -1.
        -11    1    1    2    0    0 -0.16042124184E+02  0.29398044232E+02 -0.54941128607E+02  0.64343782649E+02  0.00000000000E+00 0.  1.
         11    1    1    2    0    0  0.15155512603E+02 -0.44076507331E+02 -0.11326384472E+01  0.46623072943E+02  0.00000000000E+00 0. -1.
</event>
<event>
 7    1  0.2686828E-009  0.2067067E+03  0.7561462E-02  0.1144201E+00
          1   -1    0    0  501    0  0.00000000000E+00  0.00000000000E+00  0.31483985565E+03  0.31483985565E+03  0.00000000000E+00 0. -1.
         -1   -1    0    0    0  501 -0.00000000000E+00 -0.00000000000E+00 -0.15618842927E+03  0.15618842927E+03  0.00000000000E+00 0.  1.
         25    2    1    2    0    0  0.16825058106E+03 -0.95042507180E+02  0.80080833716E+02  0.24372086703E+03  0.12508231249E+03 0.  0.
          5    1    3    3  502    0  0.82988764296E+02 -0.83279021302E+01 -0.20341184429E+02  0.85951876868E+02  0.41800000000E+01 0.  1.
         -5    1    3    3    0  502  0.85261816766E+02 -0.86714605050E+02  0.10042201814E+03  0.15776899016E+03  0.41800000000E+01 0.  1.
        -11    1    1    2    0    0 -0.27447039299E+02  0.55587134619E+02  0.46782233236E+02  0.77664965383E+02  0.00000000000E+00 0. -1.
         11    1    1    2    0    0 -0.14080354176E+03  0.39455372561E+02  0.31788359435E+02  0.14964245251E+03  0.00000000000E+00 0.  1.
</event>
<event>
 7    1  0.2686828E-009  0.8966578E+02  0.7561462E-02  0.1303663E+00
         -4   -1    0    0    0  501 -0.00000000000E+00  0.00000000000E+00  0.34133142346E+02  0.34133142346E+02  0.00000000000E+00 0.  1.
          4   -1    0    0  501    0  0.00000000000E+00 -0.00000000000E+00 -0.38548323831E+03  0.38548323831E+03  0.00000000000E+00 0. -1.
         25    2    1    2    0    0 -0.35410467376E+02 -0.50929341866E+00 -0.16936691878E+03  0.21350843631E+03  0.12508612480E+03 0.  0.
          5    1    3    3  502    0  0.11594191715E+02 -0.51460828060E+02 -0.11031000136E+03  0.12234545723E+03  0.41800000000E+01 0.  1.
         -5    1    3    3    0  502 -0.47004659091E+02  0.50951534641E+02 -0.59056917421E+02  0.91162979074E+02  0.41800000000E+01 0.  1.
        -11    1    1    2    0    0  0.24241480152E+02 -0.21425778504E+02 -0.17830898684E+03  0.18122033035E+03  0.00000000000E+00 0. -1.
         11    1    1    2    0    0  0.11168987224E+02  0.21935071923E+02 -0.36741903481E+01  0.24887614000E+02  0.00000000000E+00 0.  1.
</event>
<event>
 7    1  0.2686828E-009  0.1051255E+03  0.7561462E-02  0.1269873E+00
          3   -1    0    0  501    0  0.00000000000E+00  0.00000000000E+00  0.12994207331E+03  0.12994207331E+03  0.00000000000E+00 0. -1.
         -3   -1    0    0    0  501 -0.00000000000E+00 -0.00000000000E+00 -0.12759550169E+03  0.12759550169E+03  0.00000000000E+00 0.  1.
         25    2    1    2    0    0 -0.46078183712E+02 -0.44921124859E+02 -0.30234633738E+02  0.14388320014E+03  0.12508851160E+03 0.  0.
          5    1    3    3  502    0 -0.95549800591E+01 -0.75753152112E+02  0.15019651739E+02  0.77928813909E+02  0.41800000000E+01 0. -1.
         -5    1    3    3    0  502 -0.36523203653E+02  0.30832027253E+02 -0.45254285477E+02  0.65954386235E+02  0.41800000000E+01 0. -1.
        -11    1    1    2    0    0  0.59510127880E+02  0.34361462275E+02 -0.84235564959E+01  0.69232374753E+02  0.00000000000E+00 0.  1.
         11    1    1    2    0    0 -0.13431944168E+02  0.10559662584E+02  0.41004761860E+02  0.44422000104E+02  0.00000000000E+00 0. -1.
</event>
<event>
 7    1  0.2686828E-009  0.1565695E+03  0.7561462E-02  0.1192625E+00
         -1   -1    0    0    0  501 -0.00000000000E+00  0.00000000000E+00  0.53087199495E+02  0.53087199495E+02  0.00000000000E+00 0.  1.
          1   -1    0    0  501    0  0.00000000000E+00 -0.00000000000E+00 -0.68255857623E+03  0.68255857623E+03  0.00000000000E+00 0. -1.
         25    2    1    2    0    0  0.94484320715E+02 -0.10297876851E+03 -0.46507670275E+03  0.50147308165E+03  0.12508796326E+03 0.  0.
          5    1    3    3  502    0  0.98421502363E+02 -0.99282959753E+02 -0.25139108570E+03  0.28767837701E+03  0.41800000000E+01 0. -1.
         -5    1    3    3    0  502 -0.39371816482E+01 -0.36958087547E+01 -0.21368561704E+03  0.21379470464E+03  0.41800000000E+01 0. -1.
        -11    1    1    2    0    0 -0.70343357350E+01  0.73982655845E+02 -0.66237301717E+02  0.99550466518E+02  0.00000000000E+00 0.  1.
         11    1    1    2    0    0 -0.87449984980E+02  0.28996112663E+02 -0.98157372276E+02  0.13462222757E+03  0.00000000000E+00 0. -1.
</event>
<event>
 7    1  0.2686828E-009  0.6534391E+02  0.7561462E-02  0.1376682E+00
         -2   -1    0    0    0  501 -0.00000000000E+00  0.00000000000E+00  0.77330762090E+02  0.77330762090E+02  0.00000000000E+00 0.  1.
          2   -1    0    0  501    0  0.00000000000E+00 -0.00000000000E+00 -0.22389878469E+03  0.22389878469E+03  0.00000000000E+00 0. -1.
         25    2    1    2    0    0 -0.56287776168E+02  0.20959134119E+02 -0.31047880818E+02  0.14219675323E+03  0.12509335185E+03 0.  0.
          5    1    3    3  502    0 -0.22338430672E+02  0.11403266288E+02 -0.78734229072E+02  0.82738087931E+02  0.41800000000E+01 0. -1.
         -5    1    3    3    0  502 -0.33949345496E+02  0.95558678313E+01  0.47686348254E+02  0.59458665302E+02  0.41800000000E+01 0. -1.
        -11    1    1    2    0    0  0.25213470063E+02  0.88146551358E+01  0.82815615965E+01  0.27964289375E+02  0.00000000000E+00 0.  1.
         11    1    1    2    0    0  0.31074306106E+02 -0.29773789255E+02 -0.12380170338E+03  0.13106850417E+03  0.00000000000E+00 0. -1.
</event>
<event>
 7    1  0.2686828E-009  0.1450093E+03  0.7561462E-02  0.1206743E+00
          2   -1    0    0  501    0  0.00000000000E+00  0.00000000000E+00  0.15469676362E+03  0.15469676362E+03  0.00000000000E+00 0. -1.
         -2   -1    0    0    0  501 -0.00000000000E+00 -0.00000000000E+00 -0.33173303707E+03  0.33173303707E+03  0.00000000000E+00 0.  1.
         25    2    1    2    0    0 -0.97558677718E+02 -0.96414860853E+02 -0.24529605559E+03  0.30762223958E+03  0.12509103247E+03 0.  0.
          5    1    3    3  502    0 -0.10444075116E+03 -0.81445485686E+02 -0.11273738578E+03  0.17397824058E+03  0.41800000000E+01 0.  1.
         -5    1    3    3    0  502  0.68820734445E+01 -0.14969375166E+02 -0.13255866981E+03  0.13364399900E+03  0.41800000000E+01 0.  1.
        -11    1    1    2    0    0  0.41882155319E+02  0.62767718246E+02 -0.11014917982E+02  0.76257654082E+02  0.00000000000E+00 0.  1.
         11    1    1    2    0    0  0.55676522399E+02  0.33647142607E+02  0.79274700126E+02  0.10254990703E+03  0.00000000000E+00 0. -1.
</event>
<event>
 7    1  0.2686828E-009  0.1014384E+03  0.7561462E-02  0.1277300E+00
          1   -1    0    0  501    0  0.00000000000E+00  0.00000000000E+00  0.43405849250E+03  0.43405849250E+03  0.00000000000E+00 0. -1.
         -1   -1    0    0    0  501 -0.00000000000E+00 -0.00000000000E+00 -0.38287234950E+02  0.38287234950E+02  0.00000000000E+00 0.  1.
         25    2    1    2    0    0 -0.22994751365E+02  0.64683432302E+02  0.26002223073E+03  0.29659936964E+03  0.12508765164E+03 0.  0.
          5    1    3    3  502    0 -0.14601070650E+02  0.79095693533E+02  0.72729334416E+02  0.10851888538E+03  0.41800000000E+01 0. -1.
         -5    1    3    3    0  502 -0.83936807143E+01 -0.14412261231E+02  0.18729289631E+03  0.18808048426E+03  0.41800000000E+01 0. -1.
        -11    1    1    2    0    0 -0.18800742211E+02  0.86804438982E+01  0.55591827454E+02  0.59323429551E+02  0.00000000000E+00 0. -1.
         11    1    1    2    0    0  0.41795493576E+02 -0.73363876200E+02  0.80157199371E+02  0.11642292826E+03  0.00000000000E+00 0.  1.
</event>
<event>
 7    1  0.2686828E-009  0.8883183E+02  0.7561462E-02  0.1305705E+00
         -4   -1    0    0    0  501 -0.00000000000E+00  0.00000000000E+00  0.25629887876E+02  0.25629887876E+02  0.00000000000E+00 0. -1.
          4   -1    0    0  501    0  0.00000000000E+00 -0.00000000000E+00 -0.51422882154E+03  0.51422882154E+03  0.00000000000E+00 0.  1.
         25    2    1    2    0    0 -0.86525937902E+01 -0.33806906988E+02 -0.29581567550E+03  0.32306577708E+03  0.12508720201E+03 0.  0.
          5    1    3    3  502    0 -0.33656069473E+02 -0.46830466404E+02 -0.52540360177E+02  0.78126726819E+02  0.41800000000E+01 0. -1.
         -5    1    3    3    0  502  0.25003475683E+02  0.13023559416E+02 -0.24327531532E+03  0.24493905026E+03  0.41800000000E+01 0. -1.
        -11    1    1    2    0    0  0.18087570855E+01  0.62154205095E+02 -0.86163618459E+02  0.10625716898E+03  0.00000000000E+00 0. -1.
         11    1    1    2    0    0  0.68438367047E+01 -0.28347298107E+02 -0.10661963971E+03  0.11053576336E+03  0.00000000000E+00 0.  1.
</event>
<event>
 7    1  0.2686828E-009  0.8175447E+02  0.7561462E-02  0.1324145E+00
         -2   -1    0    0    0  501 -0.00000000000E+00  0.00000000000E+00  0.31221234104E+03  0.31221234104E+03  0.00000000000E+00 0.  1.
          2   -1    0    0  501    0  0.00000000000E+00 -0.00000000000E+00 -0.39004598048E+02  0.39004598048E+02  0.00000000000E+00 0. -1.
         25    2    1    2    0    0  0.16091773264E+02 -0.14270343623E+02  0.15057916323E+03  0.19693743779E+03  0.12509069562E+03 0.  0.
          5    1    3    3  502    0  0.52510635892E+01 -0.59163784802E+02  0.27839919477E+02  0.65730210843E+02  0.41800000000E+01 0.  1.
         -5    1    3    3    0  502  0.10840709675E+02  0.44893441180E+02  0.12273924375E+03  0.13120722695E+03  0.41800000000E+01 0.  1.
        -11    1    1    2    0    0 -0.35380101864E+02  0.14669341907E+02  0.12852150020E+03  0.13410711097E+03  0.00000000000E+00 0.  1.
         11    1    1    2    0    0  0.19288328600E+02 -0.39899828402E+00 -0.58929204405E+01  0.20172390318E+02  0.00000000000E+00 0. -1.
</event>
<event>
 7    1  0.2686828E-009  0.1001653E+03  0.7561462E-02  0.1279949E+00
         -4   -1    0    0    0  501 -0.00000000000E+00  0.00000000000E+00  0.43858351492E+02  0.43858351492E+02  0.00000000000E+00 0.  1.
          4   -1    0    0  501    0  0.00000000000E+00 -0.00000000000E+00 -0.39423216315E+03  0.39423216315E+03  0.00000000000E+00 0. -1.
         25    2    1    2    0    0  0.16270993304E+02 -0.67783112877E+02 -0.23736891818E+03  0.27721998633E+03  0.12509045483E+03 0.  0.
          5    1    3    3  502    0  0.35395488526E+02 -0.57717325580E+02 -0.24477066945E+03  0.25399662065E+03  0.41800000000E+01 0.  1.
         -5    1    3    3    0  502 -0.19124495221E+02 -0.10065787297E+02  0.74017512738E+01  0.23223365675E+02  0.41800000000E+01 0.  1.
        -11    1    1    2    0    0 -0.44662677746E+02  0.68854541717E+02 -0.10070030812E+03  0.12990864003E+03  0.00000000000E+00 0. -1.
         11    1    1    2    0    0  0.28391684442E+02 -0.10714288398E+01 -0.12304585360E+02  0.30961888284E+02  0.00000000000E+00 0.  1.
</event>
<event>
 7    1  0.3241041E-009  0.2133876E+03  0.7561462E-02  0.1138911E+00
          1   -1    0    0  501    0  0.00000000000E+00  0.00000000000E+00  0.86407457478E+03  0.86407457478E+03  0.00000000000E+00 0.  1.
         -1   -1    0    0    0  501 -0.00000000000E+00 -0.00000000000E+00 -0.61971442401E+02  0.61971442401E+02  0.00000000000E+00 0. -1.
         25    2    1    2    0    0  0.24672416835E+02  0.19565867880E+03  0.30965448438E+03  0.38784614712E+03  0.12509071668E+03 0.  0.
          5    1    3    3  502    0  0.55069360805E+02  0.86065357934E+02  0.74248696107E+02  0.12637334216E+03  0.41800000000E+01 0.  1.
         -5    1    3    3    0  502 -0.30396943970E+02  0.10959332086E+03  0.23540578827E+03  0.26147280496E+03  0.41800000000E+01 0.  1.
        -11    1    1    2    0    0  0.11528214793E+02 -0.15818019854E+03  0.30669576101E+03  0.34527693924E+03  0.00000000000E+00 0. -1.
         11    1    1    2    0    0 -0.36200631628E+02 -0.37478480252E+02  0.18575288698E+03  0.19292293082E+03  0.00000000000E+00 0.  1.
</event>
<event>
 7    1  0.2686828E-009  0.7320632E+02  0.7561462E-02  0.1349517E+00
          2   -1    0    0  501    0  0.00000000000E+00  0.00000000000E+00  0.47435447973E+03  0.47435447973E+03  0.00000000000E+00 0. -1.
         -2   -1    0    0    0  501 -0.00000000000E+00 -0.00000000000E+00 -0.37276701215E+02  0.37276701215E+02  0.00000000000E+00 0.  1.
         25    2    1    2    0    0 -0.16393438263E+02 -0.15931801684E+02  0.37838360057E+03  0.39917818448E+03  0.12508599708E+03 0.  0.
          5    1    3    3  502    0 -0.10455159176E+02 -0.39312105735E+02  0.31986120931E+02  0.51916628770E+02  0.41800000000E+01 0.  1.
         -5    1    3    3    0  502 -0.59382790867E+01  0.23380304051E+02  0.34639747964E+03  0.34726155571E+03  0.41800000000E+01 0.  1.
        -11    1    1    2    0    0  0.33427057444E+02 -0.21615705967E+02 -0.10992912680E+01  0.39822297211E+02  0.00000000000E+00 0.  1.
         11    1    1    2    0    0 -0.17033619181E+02  0.37547507651E+02  0.59793469219E+02  0.72630699257E+02  0.00000000000E+00 0. -1.
</event>
<event>
 7    1  0.2686828E-009  0.8096790E+02  0.7561462E-02  0.1326327E+00
         -4   -1    0    0    0  501 -0.00000000000E+00  0.00000000000E+00  0.29365414598E+03  0.29365414598E+03  0.00000000000E+00 0. -1.
          4   -1    0    0  501    0  0.00000000000E+00 -0.00000000000E+00 -0.40247018548E+02  0.40247018548E+02  0.00000000000E+00 0.  1.
         25    2    1    2    0    0  0.29448582313E+01 -0.18984092225E+02  0.13729193982E+03  0.18673356615E+03  0.12510507599E+03 0.  0.
          5    1    3    3  502    0  0.77592217608E+01  0.50878033423E+02  0.84134402029E+02  0.98716005856E+02  0.41800000000E+01 0.  1.
         -5    1    3    3    0  502 -0.48143635295E+01 -0.69862125647E+02  0.53157537795E+02  0.88017560297E+02  0.41800000000E+01 0.  1.
        -11    1    1    2    0    0 -0.49416158136E+01 -0.99685542382E+01 -0.11672584418E+02  0.16125782693E+02  0.00000000000E+00 0.  1.
         11    1    1    2    0    0  0.19967575823E+01  0.28952646463E+02  0.12778777202E+03  0.13104181568E+03  0.00000000000E+00 0. -1.
</event>
<event>
 7    1  0.2686828E-009  0.1025735E+03  0.7561462E-02  0.1274976E+00
          2   -1    0    0  501    0  0.00000000000E+00  0.00000000000E+00  0.70671397900E+03  0.70671397900E+03  0.00000000000E+00 0. -1.
         -2   -1    0    0    0  501 -0.00000000000E+00 -0.00000000000E+00 -0.18725671208E+02  0.18725671208E+02  0.00000000000E+00 0.  1.
         25    2    1    2    0    0  0.10323014845E+02  0.38662144392E+02  0.42027850423E+03  0.44032125044E+03  0.12508979345E+03 0.  0.
          5    1    3    3  502    0 -0.48732122839E+02  0.45803500208E+02  0.27975843444E+03  0.28767174777E+03  0.41800000000E+01 0.  1.
         -5    1    3    3    0  502  0.59055137684E+02 -0.71413558164E+01  0.14052006979E+03  0.15264950267E+03  0.41800000000E+01 0.  1.
        -11    1    1    2    0    0  0.45800186499E+01 -0.55689447739E+02  0.25058867557E+03  0.25674301448E+03  0.00000000000E+00 0. -1.
         11    1    1    2    0    0 -0.14903033495E+02  0.17027303347E+02  0.17121127996E+02  0.28375385292E+02  0.00000000000E+00 0.  1.
</event>
<event>
 7    1  0.2686828E-009  0.1621593E+03  0.7561462E-02  0.1186280E+00
         -2   -1    0    0    0  501 -0.00000000000E+00  0.00000000000E+00  0.84478975725E+02  0.84478975725E+02  0.00000000000E+00 0.  1.
          2   -1    0    0  501    0  0.00000000000E+00 -0.00000000000E+00 -0.41391299223E+03  0.41391299223E+03  0.00000000000E+00 0. -1.
         25    2    1    2    0    0 -0.14024954507E+03  0.41038166313E+02 -0.12008675844E+03  0.22676569407E+03  0.12509110468E+03 0.  0.
          5    1    3    3  502    0 -0.56723315014E+02  0.50839231808E+02  0.44702492493E+01  0.76417389941E+02  0.41800000000E+01 0.  1.
         -5    1    3    3    0  502 -0.83526230052E+02 -0.98010654957E+01 -0.12455700769E+03  0.15034830413E+03  0.41800000000E+01 0.  1.
        -11    1    1    2    0    0  0.10262382574E+03  0.69383808063E+01 -0.17114548479E+03  0.19967615707E+03  0.00000000000E+00 0. -1.
         11    1    1    2    0    0  0.37625719324E+02 -0.47976547119E+02 -0.38201773281E+02  0.71950116817E+02  0.00000000000E+00 0.  1.
</event>
<event>
 7    1  0.2686828E-009  0.1721200E+03  0.7561462E-02  0.1175655E+00
         -1   -1    0    0    0  501 -0.00000000000E+00  0.00000000000E+00  0.19406977809E+02  0.19406977809E+02  0.00000000000E+00 0.  1.
          1   -1    0    0  501    0  0.00000000000E+00 -0.00000000000E+00 -0.17503024318E+04  0.17503024318E+04  0.00000000000E+00 0. -1.
         25    2    1    2    0    0 -0.12347083431E+03  0.76942298406E+02 -0.10561859004E+04  0.10734716523E+04  0.12509023899E+03 0.  0.
          5    1    3    3  502    0  0.12596619918E+02 -0.15655987097E+02 -0.23811983092E+03  0.23900274275E+03  0.41800000000E+01 0. -1.
         -5    1    3    3    0  502 -0.13606745423E+03  0.92598285503E+02 -0.81806606950E+03  0.83446890957E+03  0.41800000000E+01 0. -1.
        -11    1    1    2    0    0  0.54224560349E+02 -0.71332428820E+02 -0.50451235260E+03  0.51240738898E+03  0.00000000000E+00 0.  1.
         11    1    1    2    0    0  0.69246273964E+02 -0.56098695860E+01 -0.17019720096E+03  0.18383036830E+03  0.00000000000E+00 0. -1.
</event>
<event>
 7    1  0.2686828E-009  0.1121554E+03  0.7561462E-02  0.1256630E+00
         -1   -1    0    0    0  501 -0.00000000000E+00  0.00000000000E+00  0.88620195443E+02  0.88620195443E+02  0.00000000000E+00 0.  1.
          1   -1    0    0  501    0  0.00000000000E+00 -0.00000000000E+00 -0.39932660911E+03  0.39932660911E+03  0.00000000000E+00 0. -1.
         25    2    1    2    0    0 -0.85840536349E+02  0.15539099976E+02 -0.29107452766E+03  0.32860042648E+03  0.12507517069E+03 0.  0.
          5    1    3    3  502    0 -0.71337408385E+02  0.40614814397E+01 -0.51259901961E+02  0.88037329671E+02  0.41800000000E+01 0.  1.
         -5    1    3    3    0  502 -0.14503127964E+02  0.11477618536E+02 -0.23981462570E+03  0.24056309681E+03  0.41800000000E+01 0.  1.
        -11    1    1    2    0    0  0.16927723354E+02 -0.52789827056E+02 -0.50650941923E+02  0.75092153892E+02  0.00000000000E+00 0. -1.
         11    1    1    2    0    0  0.68912812995E+02  0.37250727079E+02  0.31019055913E+02  0.84254224182E+02  0.00000000000E+00 0.  1.
</event>
<event>
 7    1  0.2686828E-009  0.9108372E+02  0.7561462E-02  0.1300248E+00
          2   -1    0    0  501    0  0.00000000000E+00  0.00000000000E+00  0.19977611004E+03  0.19977611004E+03  0.00000000000E+00 0. -1.
         -2   -1    0    0    0  501 -0.00000000000E+00 -0.00000000000E+00 -0.67263692819E+02  0.67263692819E+02  0.00000000000E+00 0.  1.
         25    2    1    2    0    0 -0.67131593936E+01  0.29409412700E+02  0.91647473959E+02  0.15797592602E+03  0.12508858323E+03 0.  0.
          5    1    3    3  502    0 -0.18803063973E+02 -0.43186937965E+02  0.63267350635E+02  0.78986688005E+02  0.41800000000E+01 0.  1.
         -5    1    3    3    0  502  0.12089904580E+02  0.72596350665E+02  0.28380123324E+02  0.78989238017E+02  0.41800000000E+01 0.  1.
        -11    1    1    2    0    0  0.28973704400E+02 -0.25431324958E+02 -0.20501254599E+02  0.43663821133E+02  0.00000000000E+00 0.  1.
         11    1    1    2    0    0 -0.22260545006E+02 -0.39780877416E+01  0.61366197862E+02  0.65400055704E+02  0.00000000000E+00 0. -1.
</event>
<event>
 7    1  0.2686828E-009  0.9258087E+02  0.7561462E-02  0.1296719E+00
          1   -1    0    0  501    0  0.00000000000E+00  0.00000000000E+00  0.86992968817E+02  0.86992968817E+02  0.00000000000E+00 0. -1.
         -1   -1    0    0    0  501 -0.00000000000E+00 -0.00000000000E+00 -0.20389333504E+03  0.20389333504E+03  0.00000000000E+00 0.  1.
         25    2    1    2    0    0  0.24541820585E+02  0.66152264816E+01 -0.14300234177E+03  0.19169351237E+03  0.12510264087E+03 0.  0.
          5    1    3    3  502    0  0.50582326137E+02  0.28136477023E+02 -0.15984060925E+02  0.60192986803E+02  0.41800000000E+01 0.  1.
         -5    1    3    3    0  502 -0.26040505551E+02 -0.21521250541E+02 -0.12701828085E+03  0.13150052556E+03  0.41800000000E+01 0.  1.
        -11    1    1    2    0    0 -0.12729614972E+02 -0.48203620694E+02  0.25400591306E+02  0.55953750402E+02  0.00000000000E+00 0.  1.
         11    1    1    2    0    0 -0.11812205613E+02  0.41588394213E+02  0.70138423856E+00  0.43239041091E+02  0.00000000000E+00 0. -1.
</event>
<event>
 7    1  0.2686828E-009  0.9852657E+02  0.7561462E-02  0.1283425E+00
         -2   -1    0    0    0  501 -0.00000000000E+00  0.00000000000E+00  0.70791631628E+02  0.70791631628E+02  0.00000000000E+00 0.  1.
          2   -1    0    0  501    0  0.00000000000E+00 -0.00000000000E+00 -0.22322714903E+03  0.22322714903E+03  0.00000000000E+00 0. -1.
         25    2    1    2    0    0  0.47140960395E+02  0.25150586862E+01 -0.37434588548E+02  0.13884442025E+03  0.12509128246E+03 0.  0.
          5    1    3    3  502    0  0.27883550919E+02  0.41182143462E+02  0.30309055802E+02  0.58391545754E+02  0.41800000000E+01 0.  1.
         -5    1    3    3    0  502  0.19257409475E+02 -0.38667084776E+02 -0.67743644350E+02  0.80452874495E+02  0.41800000000E+01 0.  1.
        -11    1    1    2    0    0 -0.75242075914E+02  0.20792336073E+01 -0.76878551040E+02  0.10759184360E+03  0.00000000000E+00 0.  1.
         11    1    1    2    0    0  0.28101115519E+02 -0.45942922935E+01 -0.38122377814E+02  0.47582516803E+02  0.00000000000E+00 0. -1.
</event>
<event>
 7    1  0.2686828E-009  0.1045064E+03  0.7561462E-02  0.1271095E+00
         -2   -1    0    0    0  501 -0.00000000000E+00  0.00000000000E+00  0.81308459430E+01  0.81308459430E+01  0.00000000000E+00 0.  1.
          2   -1    0    0  501    0  0.00000000000E+00 -0.00000000000E+00 -0.14827601488E+04  0.14827601488E+04  0.00000000000E+00 0. -1.
         25    2    1    2    0    0 -0.20037086650E+02  0.41628001182E+02 -0.11217274669E+04  0.11296258036E+04  0.12509025022E+03 0.  0.
          5    1    3    3  502    0  0.48583865119E+02  0.39821005896E+02 -0.62439598599E+03  0.62756188873E+03  0.41800000000E+01 0.  1.
         -5    1    3    3    0  502 -0.68620951769E+02  0.18069952857E+01 -0.49733148095E+03  0.50206391485E+03  0.41800000000E+01 0.  1.
        -11    1    1    2    0    0 -0.64511035096E+01 -0.49289640041E+02 -0.22726931915E+03  0.23264227642E+03  0.00000000000E+00 0.  1.
         11    1    1    2    0    0  0.26488190160E+02  0.76616388588E+01 -0.12563251682E+03  0.12862291479E+03  0.00000000000E+00 0. -1.
</event>
<event>
 7    1  0.2686828E-009  0.1534832E+03  0.7561462E-02  0.1196257E+00
         -2   -1    0    0    0  501 -0.00000000000E+00  0.00000000000E+00  0.26071735432E+03  0.26071735432E+03  0.00000000000E+00 0.  1.
          2   -1    0    0  501    0  0.00000000000E+00 -0.00000000000E+00 -0.11510788108E+03  0.11510788108E+03  0.00000000000E+00 0. -1.
         25    2    1    2    0    0 -0.62199559624E+01  0.11849284071E+03  0.71134611073E+01  0.17256019837E+03  0.12508868686E+03 0.  0.
          5    1    3    3  502    0 -0.43038182849E+02  0.52062585720E+01  0.27682024779E+02  0.51605786566E+02  0.41800000000E+01 0. -1.
         -5    1    3    3    0  502  0.36818226886E+02  0.11328658214E+03 -0.20568563672E+02  0.12095441181E+03  0.41800000000E+01 0. -1.
        -11    1    1    2    0    0 -0.34488874448E+02 -0.84210857324E+02  0.62143330254E+02  0.11019412165E+03  0.00000000000E+00 0.  1.
         11    1    1    2    0    0  0.40708830410E+02 -0.34281983389E+02  0.76352681876E+02  0.93070915372E+02  0.00000000000E+00 0. -1.
</event>
<event>
 7    1  0.2686828E-009  0.2943095E+03  0.7561462E-02  0.1088120E+00
          2   -1    0    0  501    0  0.00000000000E+00  0.00000000000E+00  0.26414356397E+04  0.26414356397E+04  0.00000000000E+00 0. -1.
         -2   -1    0    0    0  501 -0.00000000000E+00 -0.00000000000E+00 -0.33799592313E+02  0.33799592313E+02  0.00000000000E+00 0.  1.
         25    2    1    2    0    0  0.25943816612E+03 -0.98935624975E+02  0.13619518646E+04  0.13955840921E+04  0.12508259941E+03 0.  0.
          5    1    3    3  502    0  0.48468807765E+02 -0.78235896405E+02  0.38100040397E+03  0.39198068962E+03  0.41800000000E+01 0.  1.
         -5    1    3    3    0  502  0.21096935835E+03 -0.20699728570E+02  0.98095146064E+03  0.10036034025E+04  0.41800000000E+01 0.  1.
        -11    1    1    2    0    0 -0.11640549838E+03  0.11844699000E+02  0.36866485321E+03  0.38678716492E+03  0.00000000000E+00 0.  1.
         11    1    1    2    0    0 -0.14303266774E+03  0.87090925974E+02  0.87701932959E+03  0.89286397503E+03  0.00000000000E+00 0. -1.
</event>
<event>
 7    1  0.2686828E-009  0.2575572E+03  0.7561462E-02  0.1108620E+00
          2   -1    0    0  501    0  0.00000000000E+00  0.00000000000E+00  0.11785714733E+04  0.11785714733E+04  0.00000000000E+00 0. -1.
         -2   -1    0    0    0  501 -0.00000000000E+00 -0.00000000000E+00 -0.70904257306E+02  0.70904257306E+02  0.00000000000E+00 0.  1.
         25    2    1    2    0    0 -0.11364172571E+03 -0.20738822619E+03  0.83675878420E+03  0.87848555685E+03  0.12508913808E+03 0.  0.
          5    1    3    3  502    0 -0.68329499031E+02 -0.20827308139E+03  0.63920125432E+03  0.67575314487E+03  0.41800000000E+01 0.  1.
         -5    1    3    3    0  502 -0.45312226680E+02  0.88485519821E+00  0.19755752988E+03  0.20273241198E+03  0.41800000000E+01 0.  1.
        -11    1    1    2    0    0  0.12693416322E+03  0.18931859603E+03  0.22702150009E+03  0.32170261748E+03  0.00000000000E+00 0. -1.
         11    1    1    2    0    0 -0.13292437505E+02  0.18069630165E+02  0.43886931705E+02  0.49287556275E+02  0.00000000000E+00 0.  1.
</event>
<event>
 7    1  0.2686828E-009  0.2290198E+03  0.7561462E-02  0.1127332E+00
         -2   -1    0    0    0  501 -0.00000000000E+00  0.00000000000E+00  0.38307613042E+02  0.38307613042E+02  0.00000000000E+00 0.  1.
          2   -1    0    0  501    0  0.00000000000E+00 -0.00000000000E+00 -0.17003920676E+04  0.17003920676E+04  0.00000000000E+00 0. -1.
         25    2    1    2    0    0 -0.12884435811E+03  0.18051097447E+03 -0.10741514717E+04  0.11039185643E+04  0.12509888853E+03 0.  0.
          5    1    3    3  502    0 -0.12090962639E+03  0.13228399416E+03 -0.57336802242E+03  0.60073834104E+03  0.41800000000E+01 0. -1.
         -5    1    3    3    0  502 -0.79347317245E+01  0.48226980305E+02 -0.50078344927E+03  0.50318022324E+03  0.41800000000E+01 0. -1.
        -11    1    1    2    0    0  0.52597694779E+02 -0.28892258344E+02 -0.85488074101E+02  0.10444850838E+03  0.00000000000E+00 0. -1.
         11    1    1    2    0    0  0.76246663330E+02 -0.15161871612E+03 -0.50244490877E+03  0.53033260799E+03  0.00000000000E+00 0.  1.
</event>
<event>
 7    1  0.2686828E-009  0.1216253E+03  0.7561462E-02  0.1240440E+00
          2   -1    0    0  501    0  0.00000000000E+00  0.00000000000E+00  0.13552192616E+03  0.13552192616E+03  0.00000000000E+00 0. -1.
         -2   -1    0    0    0  501 -0.00000000000E+00 -0.00000000000E+00 -0.12081010552E+03  0.12081010552E+03  0.00000000000E+00 0.  1.
         25    2    1    2    0    0  0.53859428353E+02 -0.26582505490E+02  0.40485768889E+02  0.14454392763E+03  0.12508549840E+03 0.  0.
          5    1    3    3  502    0 -0.51386520709E+01 -0.64111867402E+02  0.17012757271E+01  0.64475607992E+02  0.41800000000E+01 0.  1.
         -5    1    3    3    0  502  0.58998080424E+02  0.37529361912E+02  0.38784493162E+02  0.80068319634E+02  0.41800000000E+01 0.  1.
        -11    1    1    2    0    0 -0.79212720087E+02  0.13980431987E+02 -0.20148731778E+02  0.82922125481E+02  0.00000000000E+00 0. -1.
         11    1    1    2    0    0  0.25353291734E+02  0.12602073504E+02 -0.56252164667E+01  0.28865978567E+02  0.00000000000E+00 0.  1.
</event>
<event>
 7    1  0.2686828E-009  0.1357476E+03  0.7561462E-02  0.1219168E+00
         -2   -1    0    0    0  501 -0.00000000000E+00  0.00000000000E+00  0.56262516145E+02  0.56262516145E+02  0.00000000000E+00 0.  1.
          2   -1    0    0  501    0  0.00000000000E+00 -0.00000000000E+00 -0.34544024920E+03  0.34544024920E+03  0.00000000000E+00 0. -1.
         25    2    1    2    0    0  0.83561064123E+02 -0.18984511222E+02 -0.13164057019E+03  0.20079900601E+03  0.12509251773E+03 0.  0.
          5    1    3    3  502    0  0.24244879796E+01 -0.58241951847E+02 -0.71572742760E+02  0.92402018393E+02  0.41800000000E+01 0.  1.
         -5    1    3    3    0  502  0.81136576143E+02  0.39257440625E+02 -0.60067827427E+02  0.10839698762E+03  0.41800000000E+01 0.  1.
        -11    1    1    2    0    0 -0.63701659574E+02 -0.29668204312E+02 -0.72707340810E+02  0.10111607779E+03  0.00000000000E+00 0. -1.
         11    1    1    2    0    0 -0.19859404549E+02  0.48652715534E+02 -0.84829822055E+02  0.99787681543E+02  0.00000000000E+00 0.  1.
</event>
<event>
 7    1  0.2686828E-009  0.1624312E+03  0.7561462E-02  0.1185979E+00
          2   -1    0    0  501    0  0.00000000000E+00  0.00000000000E+00  0.24476219705E+03  0.24476219705E+03  0.00000000000E+00 0. -1.
         -2   -1    0    0    0  501 -0.00000000000E+00 -0.00000000000E+00 -0.24780937064E+03  0.24780937064E+03  0.00000000000E+00 0.  1.
         25    2    1    2    0    0  0.12737039017E+03  0.24183824403E+02  0.17667498156E+03  0.25232815751E+03  0.12508947322E+03 0.  0.
          5    1    3    3  502    0  0.13584420733E+03  0.44551425119E+02  0.17970363061E+03  0.22967225649E+03  0.41800000000E+01 0.  1.
         -5    1    3    3    0  502 -0.84738171605E+01 -0.20367600716E+02 -0.30286490505E+01  0.22655901025E+02  0.41800000000E+01 0.  1.
        -11    1    1    2    0    0 -0.22019633537E+02 -0.46722132574E+02 -0.60806973179E+02  0.79782892405E+02  0.00000000000E+00 0.  1.
         11    1    1    2    0    0 -0.10535075663E+03  0.22538308171E+02 -0.11891518197E+03  0.16046051777E+03  0.00000000000E+00 0. -1.
</event>
<event>
 7    1  0.2686828E-009  0.1484306E+03  0.7561462E-02  0.1202415E+00
          4   -1    0    0  501    0  0.00000000000E+00  0.00000000000E+00  0.15995373759E+03  0.15995373759E+03  0.00000000000E+00 0.  1.
         -4   -1    0    0    0  501 -0.00000000000E+00 -0.00000000000E+00 -0.17795403271E+03  0.17795403271E+03  0.00000000000E+00 0. -1.
         25    2    1    2    0    0 -0.10995478427E+03 -0.61154661765E+02 -0.37491244513E+02  0.18133751667E+03  0.12509098408E+03 0.  0.
          5    1    3    3  502    0 -0.58132685567E+02 -0.91302079930E+02  0.38589743908E+01  0.10838746705E+03  0.41800000000E+01 0.  1.
         -5    1    3    3    0  502 -0.51822098701E+02  0.30147418165E+02 -0.41350218903E+02  0.72950049617E+02  0.41800000000E+01 0.  1.
        -11    1    1    2    0    0  0.52645425974E+02  0.44028957978E+02  0.54168135805E+02  0.87431555821E+02  0.00000000000E+00 0.  1.
         11    1    1    2    0    0  0.57309358293E+02  0.17125703786E+02 -0.34677186412E+02  0.69138697815E+02  0.00000000000E+00 0. -1.
</event>
<event>
 7    1  0.2686828E-009  0.1230403E+03  0.7561462E-02  0.1238164E+00
          1   -1    0    0  501    0  0.00000000000E+00  0.00000000000E+00  0.21678902717E+04  0.21678902717E+04  0.00000000000E+00 0. -1.
         -1   -1    0    0    0  501 -0.00000000000E+00 -0.00000000000E+00 -0.21422159982E+02  0.21422159982E+02  0.00000000000E+00 0.  1.
         25    2    1    2    0    0 -0.27672615434E+02 -0.98430150276E+02  0.19044249576E+04  0.19112655575E+04  0.12508934393E+03 0.  0.
          5    1    3    3  502    0  0.79501256839E+01 -0.84735989076E+00  0.11135317286E+04  0.11135682761E+04  0.41800000000E+01 0. -1.
         -5    1    3    3    0  502 -0.35622741118E+02 -0.97582790385E+02  0.79089322908E+03  0.79769728147E+03  0.41800000000E+01 0. -1.
        -11    1    1    2    0    0  0.36237511074E+02  0.11162632894E+03  0.18680484576E+03  0.22061197819E+03  0.00000000000E+00 0.  1.
         11    1    1    2    0    0 -0.85648956406E+01 -0.13196178667E+02  0.55238308307E+02  0.57434895955E+02  0.00000000000E+00 0. -1.
</event>
<event>
 7    1  0.2686828E-009  0.1077138E+03  0.7561462E-02  0.1264863E+00
          1   -1    0    0  501    0  0.00000000000E+00  0.00000000000E+00  0.10605060325E+03  0.10605060325E+03  0.00000000000E+00 0. -1.
         -1   -1    0    0    0  501 -0.00000000000E+00 -0.00000000000E+00 -0.15185059384E+03  0.15185059384E+03  0.00000000000E+00 0.  1.
         25    2    1    2    0    0  0.14202819916E+02  0.65754782111E+02 -0.74666417469E+01  0.14222740195E+03  0.12508985436E+03 0.  0.
          5    1    3    3  502    0  0.50845500411E+02 -0.36155336544E+01  0.25352075892E+02  0.57083597887E+02  0.41800000000E+01 0.  1.
         -5    1    3    3    0  502 -0.36642680495E+02  0.69370315766E+02 -0.32818717639E+02  0.85143804065E+02  0.41800000000E+01 0.  1.
        -11    1    1    2    0    0 -0.30756180272E+02 -0.19077405782E+02 -0.52858757159E+02  0.64061987518E+02  0.00000000000E+00 0.  1.
         11    1    1    2    0    0  0.16553360356E+02 -0.46677376329E+02  0.14525408317E+02  0.51611807630E+02  0.00000000000E+00 0. -1.
</event>
<event>
 7    1  0.2686828E-009  0.1336992E+03  0.7561462E-02  0.1222068E+00
         -2   -1    0    0    0  501 -0.00000000000E+00  0.00000000000E+00  0.14262492810E+02  0.14262492810E+02  0.00000000000E+00 0.  1.
          2   -1    0    0  501    0  0.00000000000E+00 -0.00000000000E+00 -0.17124094780E+04  0.17124094780E+04  0.00000000000E+00 0. -1.
         25    2    1    2    0    0  0.69525335964E+02 -0.63883366531E+02 -0.12504103514E+04  0.12601936454E+04  0.12508844915E+03 0.  0.
          5    1    3    3  502    0  0.53671849299E+02 -0.98605747490E+02 -0.10609340639E+04  0.10668656529E+04  0.41800000000E+01 0. -1.
         -5    1    3    3    0  502  0.15853486666E+02  0.34722380960E+02 -0.18947628745E+03  0.19332799250E+03  0.41800000000E+01 0. -1.
        -11    1    1    2    0    0 -0.35058653477E+02 -0.88591395904E+01 -0.56749174733E+02  0.67290878808E+02  0.00000000000E+00 0.  1.
         11    1    1    2    0    0 -0.34466682488E+02  0.72742506121E+02 -0.39098745903E+03  0.39918744659E+03  0.00000000000E+00 0. -1.
</event>
<event>
 7    1  0.2686828E-009  0.1023595E+03  0.7561462E-02  0.1275411E+00
          2   -1    0    0  501    0  0.00000000000E+00  0.00000000000E+00  0.29291569384E+03  0.29291569384E+03  0.00000000000E+00 0. -1.
         -2   -1    0    0    0  501 -0.00000000000E+00 -0.00000000000E+00 -0.58950773802E+02  0.58950773802E+02  0.00000000000E+00 0.  1.
         25    2    1    2    0    0 -0.45494411937E+02  0.34871768941E+02  0.19476557874E+03  0.23846727242E+03  0.12508887867E+03 0.  0.
          5    1    3    3  502    0 -0.59772022818E+02 -0.16064461485E+02  0.37493738323E+02  0.72484580760E+02  0.41800000000E+01 0.  1.
         -5    1    3    3    0  502  0.14277610880E+02  0.50936230426E+02  0.15727184042E+03  0.16598269166E+03  0.41800000000E+01 0.  1.
        -11    1    1    2    0    0  0.27416570526E+02 -0.55675318518E+02 -0.39650923637E+01  0.62186263668E+02  0.00000000000E+00 0.  1.
         11    1    1    2    0    0  0.18077841411E+02  0.20803549577E+02  0.43164433659E+02  0.51212931553E+02  0.00000000000E+00 0. -1.
</event>
<event>
 7    1  0.2686828E-009  0.1127711E+03  0.7561462E-02  0.1255523E+00
         -2   -1    0    0    0  501 -0.00000000000E+00  0.00000000000E+00  0.97163466344E+01  0.97163466344E+01  0.00000000000E+00 0.  1.
          2   -1    0    0  501    0  0.00000000000E+00 -0.00000000000E+00 -0.14960983453E+04  0.14960983453E+04  0.00000000000E+00 0. -1.
         25    2    1    2    0    0 -0.86841839136E+01 -0.49039864484E+02 -0.92463594629E+03  0.93438675770E+03  0.12508659572E+03 0.  0.
          5    1    3    3  502    0  0.49409372494E+02 -0.35773601650E+02 -0.67238508460E+03  0.67515939678E+03  0.41800000000E+01 0.  1.
         -5    1    3    3    0  502 -0.58093556408E+02 -0.13266262835E+02 -0.25225086169E+03  0.25922736092E+03  0.41800000000E+01 0.  1.
        -11    1    1    2    0    0 -0.36985600505E+02 -0.89106316871E+00 -0.20939420335E+03  0.21263739332E+03  0.00000000000E+00 0.  1.
         11    1    1    2    0    0  0.45669784418E+02  0.49930927653E+02 -0.35235184903E+03  0.35879054093E+03  0.00000000000E+00 0. -1.
</event>
<event>
 7    1  0.2686828E-009  0.1429025E+03  0.7561462E-02  0.1209476E+00
         -4   -1    0    0    0  501 -0.00000000000E+00  0.00000000000E+00  0.55657060378E+03  0.55657060378E+03  0.00000000000E+00 0. -1.
          4   -1    0    0  501    0  0.00000000000E+00 -0.00000000000E+00 -0.39759759144E+02  0.39759759144E+02  0.00000000000E+00 0.  1.
         25    2    1    2    0    0  0.54314258508E+02  0.76696456397E+02  0.35457874714E+03  0.38756446298E+03  0.12509092667E+03 0.  0.
          5    1    3    3  502    0 -0.65264389411E+01 -0.31302002731E+02  0.81085000104E+02  0.87262015918E+02  0.41800000000E+01 0. -1.
         -5    1    3    3    0  502  0.60840697449E+02  0.10799845913E+03  0.27349374704E+03  0.30030244706E+03  0.41800000000E+01 0. -1.
        -11    1    1    2    0    0  0.13723942257E+02 -0.57100554319E+02  0.91201228474E+02  0.10847342518E+03  0.00000000000E+00 0.  1.
         11    1    1    2    0    0 -0.68038200765E+02 -0.19595902078E+02  0.71030869018E+02  0.10029247477E+03  0.00000000000E+00 0. -1.
</event>
<event>
 7    1  0.2686828E-009  0.1014807E+03  0.7561462E-02  0.1277213E+00
         -1   -1    0    0    0  501 -0.00000000000E+00  0.00000000000E+00  0.49264284896E+02  0.49264284896E+02  0.00000000000E+00 0. -1.
          1   -1    0    0  501    0  0.00000000000E+00 -0.00000000000E+00 -0.65641877449E+03  0.65641877449E+03  0.00000000000E+00 0.  1.
         25    2    1    2    0    0 -0.26674944207E+02  0.84950535721E+01 -0.60095926420E+03  0.61447847068E+03  0.12509210654E+03 0.  0.
          5    1    3    3  502    0 -0.58979376996E+02  0.36253337012E+02 -0.20939657642E+03  0.22058392954E+03  0.41800000000E+01 0.  1.
         -5    1    3    3    0  502  0.32304432790E+02 -0.27758283440E+02 -0.39156268779E+03  0.39389454114E+03  0.41800000000E+01 0.  1.
        -11    1    1    2    0    0  0.55156748625E+02  0.11065789913E+02 -0.66659849475E+01  0.56649395236E+02  0.00000000000E+00 0.  1.
         11    1    1    2    0    0 -0.28481804419E+02 -0.19560843486E+02  0.47075955781E+00  0.34555193465E+02  0.00000000000E+00 0. -1.
</event>
<event>
 7    1  0.2686828E-009  0.2405458E+03  0.7561462E-02  0.1119430E+00
          1   -1    0    0  501    0  0.00000000000E+00  0.00000000000E+00  0.82424171137E+03  0.82424171137E+03  0.00000000000E+00 0. -1.
         -1   -1    0    0    0  501 -0.00000000000E+00 -0.00000000000E+00 -0.77402291737E+02  0.77402291737E+02  0.00000000000E+00 0.  1.
         25    2    1    2    0    0  0.13517984656E+03  0.18275535138E+03  0.36349634182E+03  0.44659786684E+03  0.12508778829E+03 0.  0.
          5    1    3    3  502    0  0.98352804988E+02  0.18339495238E+03  0.24013837852E+03  0.31779064814E+03  0.41800000000E+01 0. -1.
         -5    1    3    3    0  502  0.36827041571E+02 -0.63960100437E+00  0.12335796330E+03  0.12880721870E+03  0.41800000000E+01 0. -1.
        -11    1    1    2    0    0 -0.16439856068E+02 -0.70789349612E+02  0.18128859012E+03  0.19531245171E+03  0.00000000000E+00 0. -1.
         11    1    1    2    0    0 -0.11873999049E+03 -0.11196600177E+03  0.20205448770E+03  0.25973368456E+03  0.00000000000E+00 0.  1.
</event>
<event>
 7    1  0.2686828E-009  0.1307978E+03  0.7561462E-02  0.1226277E+00
          1   -1    0    0  501    0  0.00000000000E+00  0.00000000000E+00  0.26541021260E+03  0.26541021260E+03  0.00000000000E+00 0. -1.
         -1   -1    0    0    0  501 -0.00000000000E+00 -0.00000000000E+00 -0.72033363534E+02  0.72033363534E+02  0.00000000000E+00 0.  1.
         25    2    1    2    0    0  0.25401374882E+01 -0.79582507960E+02  0.14305135530E+03  0.20603633608E+03  0.12508978241E+03 0.  0.
          5    1    3    3  502    0  0.44826711538E+02  0.65604550556E+01  0.77093521024E+02  0.89517355980E+02  0.41800000000E+01 0. -1.
         -5    1    3    3    0  502 -0.42286574050E+02 -0.86142963016E+02  0.65957834272E+02  0.11651898010E+03  0.41800000000E+01 0. -1.
        -11    1    1    2    0    0 -0.28483967289E+02  0.88217829773E+02  0.46774651871E+02  0.10383443523E+03  0.00000000000E+00 0. -1.
         11    1    1    2    0    0  0.25943829801E+02 -0.86353218127E+01  0.35508419015E+01  0.27572804822E+02  0.00000000000E+00 0.  1.
</event>
<event>
 7    1  0.2686828E-009  0.5649707E+02  0.7561462E-02  0.1413149E+00
         -2   -1    0    0    0  501 -0.00000000000E+00  0.00000000000E+00  0.93013622499E+02  0.93013622499E+02  0.00000000000E+00 0.  1.
          2   -1    0    0  501    0  0.00000000000E+00 -0.00000000000E+00 -0.15337187615E+03  0.15337187615E+03  0.00000000000E+00 0. -1.
         25    2    1    2    0    0  0.43676257719E+01  0.28797325500E+02 -0.38534890900E+02  0.13409196343E+03  0.12508938696E+03 0.  0.
          5    1    3    3  502    0 -0.14217494894E+02  0.26921152259E+02  0.41590452709E+02  0.51711930505E+02  0.41800000000E+01 0.  1.
         -5    1    3    3    0  502  0.18585120666E+02  0.18761732411E+01 -0.80125343609E+02  0.82380032925E+02  0.41800000000E+01 0.  1.
        -11    1    1    2    0    0 -0.29651734416E+02 -0.22054620572E+02 -0.57316520965E+02  0.68196885691E+02  0.00000000000E+00 0. -1.
         11    1    1    2    0    0  0.25284108645E+02 -0.67427049286E+01  0.35493158213E+02  0.44096649529E+02  0.00000000000E+00 0.  1.
</event>
<event>
 7    1  0.2686828E-009  0.1027608E+03  0.7561462E-02  0.1274595E+00
          2   -1    0    0  501    0  0.00000000000E+00  0.00000000000E+00  0.12752843718E+04  0.12752843718E+04  0.00000000000E+00 0. -1.
         -2   -1    0    0    0  501 -0.00000000000E+00 -0.00000000000E+00 -0.10934150426E+02  0.10934150426E+02  0.00000000000E+00 0.  1.
         25    2    1    2    0    0  0.22529034727E+02  0.36838444539E+01  0.93191603839E+03  0.94055112810E+03  0.12509114214E+03 0.  0.
          5    1    3    3  502    0  0.61531464262E+02  0.34776356243E+02  0.39398372070E+03  0.40029509193E+03  0.41800000000E+01 0.  1.
         -5    1    3    3    0  502 -0.39002429535E+02 -0.31092511789E+02  0.53793231768E+03  0.54025603616E+03  0.41800000000E+01 0.  1.
        -11    1    1    2    0    0 -0.21490700818E+02  0.37632109035E+02  0.24686845442E+03  0.25064329163E+03  0.00000000000E+00 0.  1.
         11    1    1    2    0    0 -0.10383339084E+01 -0.41315953488E+02  0.85565728526E+02  0.95024102459E+02  0.00000000000E+00 0. -1.
</event>
<event>
 7    1  0.2686828E-009  0.9879834E+02  0.7561462E-02  0.1282843E+00
          2   -1    0    0  501    0  0.00000000000E+00  0.00000000000E+00  0.34431129540E+03  0.34431129540E+03  0.00000000000E+00 0. -1.
         -2   -1    0    0    0  501 -0.00000000000E+00 -0.00000000000E+00 -0.36934394713E+02  0.36934394713E+02  0.00000000000E+00 0.  1.
         25    2    1    2    0    0  0.17874139411E+02 -0.97265833472E+01  0.21561431753E+03  0.25010217755E+03  0.12508986375E+03 0.  0.
          5    1    3    3  502    0 -0.37961197596E+02  0.23971453398E+02  0.15333948985E+03  0.15983164470E+03  0.41800000000E+01 0.  1.
         -5    1    3    3    0  502  0.55835337007E+02 -0.33698036745E+02  0.62274827675E+02  0.90270532850E+02  0.41800000000E+01 0.  1.
        -11    1    1    2    0    0  0.30367749539E+01 -0.36391950020E+02  0.15662291588E+02  0.39735417529E+02  0.00000000000E+00 0.  1.
         11    1    1    2    0    0 -0.20910914365E+02  0.46118533367E+02  0.76100291570E+02  0.91408095027E+02  0.00000000000E+00 0. -1.
</event>
<event>
 7    1  0.2686828E-009  0.9334812E+02  0.7561462E-02  0.1294940E+00
         -2   -1    0    0    0  501 -0.00000000000E+00  0.00000000000E+00  0.32992210052E+02  0.32992210052E+02  0.00000000000E+00 0.  1.
          2   -1    0    0  501    0  0.00000000000E+00 -0.00000000000E+00 -0.63244837451E+03  0.63244837451E+03  0.00000000000E+00 0. -1.
         25    2    1    2    0    0  0.51290982880E+02  0.45280329784E+02 -0.49553199521E+03  0.51563589421E+03  0.12508934379E+03 0.  0.
          5    1    3    3  502    0  0.16908599077E+02  0.40502788485E+02 -0.47067870684E+03  0.47273913955E+03  0.41800000000E+01 0. -1.
         -5    1    3    3    0  502  0.34382383803E+02  0.47775412995E+01 -0.24853288373E+02  0.42896754653E+02  0.41800000000E+01 0. -1.
        -11    1    1    2    0    0 -0.40461527009E+02 -0.69889593476E+02 -0.73423400066E+02  0.10914525240E+03  0.00000000000E+00 0.  1.
         11    1    1    2    0    0 -0.10829455871E+02  0.24609263692E+02 -0.30500769184E+02  0.40659437954E+02  0.00000000000E+00 0. -1.
</event>
<event>
 7    1  0.2803713E-009  0.9406861E+02  0.7561462E-02  0.1293288E+00
         -3   -1    0    0    0  501 -0.00000000000E+00  0.00000000000E+00  0.13768514706E+03  0.13768514706E+03  0.00000000000E+00 0.  1.
          3   -1    0    0  501    0  0.00000000000E+00 -0.00000000000E+00 -0.95174349228E+02  0.95174349228E+02  0.00000000000E+00 0. -1.
         25    2    1    2    0    0 -0.34805711423E+02  0.12738976119E+02  0.25065705217E+02  0.13285284111E+03  0.12509144156E+03 0.  0.
          5    1    3    3  502    0  0.27879503958E+02  0.48556290943E+02 -0.50182407203E+00  0.56148947973E+02  0.41800000000E+01 0.  1.
         -5    1    3    3    0  502 -0.62685215380E+02 -0.35817314824E+02  0.25567529289E+02  0.76703893137E+02  0.41800000000E+01 0.  1.
        -11    1    1    2    0    0  0.30492628360E+02 -0.29463434993E+02  0.48530918813E+02  0.64444894808E+02  0.00000000000E+00 0.  1.
         11    1    1    2    0    0  0.43130830630E+01  0.16724458874E+02 -0.31085826199E+02  0.35561760370E+02  0.00000000000E+00 0. -1.
</event>
<event>
 7    1  0.2686828E-009  0.2465874E+03  0.7561462E-02  0.1115481E+00
         -2   -1    0    0    0  501 -0.00000000000E+00  0.00000000000E+00  0.74507985219E+02  0.74507985219E+02  0.00000000000E+00 0.  1.
          2   -1    0    0  501    0  0.00000000000E+00 -0.00000000000E+00 -0.95614386848E+03  0.95614386848E+03  0.00000000000E+00 0. -1.
         25    2    1    2    0    0 -0.20482497976E+03  0.12239851483E+03 -0.36014560505E+03  0.44976351664E+03  0.12509074826E+03 0.  0.
          5    1    3    3  502    0 -0.73127189208E+02 -0.98829278298E+00 -0.43273700355E+02  0.85080244866E+02  0.41800000000E+01 0.  1.
         -5    1    3    3    0  502 -0.13169779055E+03  0.12338680761E+03 -0.31687190469E+03  0.36468327178E+03  0.41800000000E+01 0.  1.
        -11    1    1    2    0    0  0.12735551238E+03 -0.64964172106E+02 -0.20425610546E+03  0.24931972808E+03  0.00000000000E+00 0. -1.
         11    1    1    2    0    0  0.77469467372E+02 -0.57434342722E+02 -0.31723417275E+03  0.33156860898E+03  0.00000000000E+00 0.  1.
</event>
<event>
 7    1  0.2686828E-009  0.6912087E+02  0.7561462E-02  0.1363108E+00
          4   -1    0    0  501    0  0.00000000000E+00  0.00000000000E+00  0.12174536222E+03  0.12174536222E+03  0.00000000000E+00 0. -1.
         -4   -1    0    0    0  501 -0.00000000000E+00 -0.00000000000E+00 -0.14878510576E+03  0.14878510576E+03  0.00000000000E+00 0.  1.
         25    2    1    2    0    0  0.34191660706E+02  0.32709757965E+02  0.49839227076E+02  0.14273717574E+03  0.12510377634E+03 0.  0.
          5    1    3    3  502    0 -0.53018023569E+01  0.39722076790E+02  0.81862514704E+02  0.91240869167E+02  0.41800000000E+01 0.  1.
         -5    1    3    3    0  502  0.39493463062E+02 -0.70123188245E+01 -0.32023287628E+02  0.51496306571E+02  0.41800000000E+01 0.  1.
        -11    1    1    2    0    0 -0.35330348695E+02 -0.12645722125E+02 -0.94113592390E+02  0.10131888323E+03  0.00000000000E+00 0.  1.
         11    1    1    2    0    0  0.11386879893E+01 -0.20064035840E+02  0.17234621773E+02  0.26474409006E+02  0.00000000000E+00 0. -1.
</event>
<event>
 7    1  0.2686828E-009  0.1007197E+03  0.7561462E-02  0.1278790E+00
          1   -1    0    0  501    0  0.00000000000E+00  0.00000000000E+00  0.42198706744E+02  0.42198706744E+02  0.00000000000E+00 0. -1.
         -1   -1    0    0    0  501 -0.00000000000E+00 -0.00000000000E+00 -0.33341054784E+03  0.33341054784E+03  0.00000000000E+00 0.  1.
         25    2    1    2    0    0  0.21043728081E+02  0.12437192210E+02 -0.15870227889E+03  0.20354898268E+03  0.12509297657E+03 0.  0.
          5    1    3    3  502    0 -0.27824255142E+02  0.28587215316E+02 -0.38279121176E+01  0.40293217356E+02  0.41800000000E+01 0.  1.
         -5    1    3    3    0  502  0.48867983223E+02 -0.16150023106E+02 -0.15487436677E+03  0.16325576533E+03  0.41800000000E+01 0.  1.
        -11    1    1    2    0    0 -0.36305042951E+02 -0.54195391018E+02 -0.81639923778E+02  0.10450011342E+03  0.00000000000E+00 0.  1.
         11    1    1    2    0    0  0.15261314870E+02  0.41758198808E+02 -0.50869638435E+02  0.67560158479E+02  0.00000000000E+00 0. -1.
</event>
<event>
 7    1  0.3000017E-009  0.1144356E+03  0.7561462E-02  0.1252569E+00
          1   -1    0    0  501    0  0.00000000000E+00  0.00000000000E+00  0.23433082274E+03  0.23433082274E+03  0.00000000000E+00 0. -1.
         -1   -1    0    0    0  501 -0.00000000000E+00 -0.00000000000E+00 -0.81949943422E+02  0.81949943422E+02  0.00000000000E+00 0.  1.
         25    2    1    2    0    0  0.79183530658E+01 -0.78377011181E+02  0.12197441350E+03  0.19165611698E+03  0.12509457794E+03 0.  0.
          5    1    3    3  502    0  0.63702575860E+02 -0.32348485082E+02  0.82283063274E+02  0.10905236155E+03  0.41800000000E+01 0.  1.
         -5    1    3    3    0  502 -0.55784222794E+02 -0.46028526099E+02  0.39691350229E+02  0.82603755427E+02  0.41800000000E+01 0.  1.
        -11    1    1    2    0    0 -0.12770187475E+02  0.97610324183E+01 -0.29378280717E+02  0.33487890646E+02  0.00000000000E+00 0.  1.
         11    1    1    2    0    0  0.48518344087E+01  0.68615978762E+02  0.59784746530E+02  0.91136758535E+02  0.00000000000E+00 0. -1.
</event>
<event>
 7    1  0.2686828E-009  0.2226643E+03  0.7561462E-02  0.1131912E+00
          1   -1    0    0  501    0  0.00000000000E+00  0.00000000000E+00  0.42474530900E+02  0.42474530900E+02  0.00000000000E+00 0. -1.
         -1   -1    0    0    0  501 -0.00000000000E+00 -0.00000000000E+00 -0.14990127095E+04  0.14990127095E+04  0.00000000000E+00 0.  1.
         25    2    1    2    0    0  0.49093902326E+02 -0.21354750149E+03 -0.94889302566E+03  0.98186463792E+03  0.12508975345E+03 0.  0.
          5    1    3    3  502    0  0.34870645738E+02 -0.54836224021E+02 -0.10892897101E+03  0.12690928462E+03  0.41800000000E+01 0.  1.
         -5    1    3    3    0  502  0.14223256589E+02 -0.15871127747E+03 -0.83996405466E+03  0.85495535330E+03  0.41800000000E+01 0.  1.
        -11    1    1    2    0    0 -0.27433141119E+02  0.63051655829E+02 -0.26075910979E+03  0.26967276814E+03  0.00000000000E+00 0.  1.
         11    1    1    2    0    0 -0.21660761207E+02  0.15049584566E+03 -0.24688604318E+03  0.28994983437E+03  0.00000000000E+00 0. -1.
</event>
<event>
 7    1  0.2686828E-009  0.9802373E+02  0.7561462E-02  0.1284508E+00
          1   -1    0    0  501    0  0.00000000000E+00  0.00000000000E+00  0.74278942228E+02  0.74278942228E+02  0.00000000000E+00 0. -1.
         -1   -1    0    0    0  501 -0.00000000000E+00 -0.00000000000E+00 -0.16381079775E+03  0.16381079775E+03  0.00000000000E+00 0.  1.
         25    2    1    2    0    0 -0.14418461391E+02 -0.13258006652E+02 -0.42489536931E+02  0.13354778179E+03  0.12508390186E+03 0.  0.
          5    1    3    3  502    0 -0.58231863539E+02  0.76965215082E+01 -0.57740194998E+02  0.82471746028E+02  0.41800000000E+01 0.  1.
         -5    1    3    3    0  502  0.43813402148E+02 -0.20954528160E+02  0.15250658067E+02  0.51076035767E+02  0.41800000000E+01 0.  1.
        -11    1    1    2    0    0  0.46965854039E+02 -0.10491581390E+02 -0.42117152411E+02  0.63950912838E+02  0.00000000000E+00 0.  1.
         11    1    1    2    0    0 -0.32547392648E+02  0.23749588042E+02 -0.49251661824E+01  0.40591045346E+02  0.00000000000E+00 0. -1.
</event>
<event>
 7    1  0.2686828E-009  0.1251718E+03  0.7561462E-02  0.1234801E+00
         -1   -1    0    0    0  501 -0.00000000000E+00  0.00000000000E+00  0.21696096610E+02  0.21696096610E+02  0.00000000000E+00 0.  1.
          1   -1    0    0  501    0  0.00000000000E+00 -0.00000000000E+00 -0.10135665654E+04  0.10135665654E+04  0.00000000000E+00 0. -1.
         25    2    1    2    0    0 -0.10456240210E+02 -0.72434005582E+02 -0.77918807772E+03  0.79255140823E+03  0.12509059160E+03 0.  0.
          5    1    3    3  502    0  0.43892521939E+02 -0.65267495607E+02 -0.29802779725E+03  0.30826034418E+03  0.41800000000E+01 0.  1.
         -5    1    3    3    0  502 -0.54348762149E+02 -0.71665099757E+01 -0.48116028047E+03  0.48429106405E+03  0.41800000000E+01 0.  1.
        -11    1    1    2    0    0 -0.39916060049E+02  0.41019230007E+02 -0.95173394555E+02  0.11105784129E+03  0.00000000000E+00 0. -1.
         11    1    1    2    0    0  0.50372300260E+02  0.31414775575E+02 -0.11750899650E+03  0.13165341248E+03  0.00000000000E+00 0.  1.
</event>
<event>
 7    1  0.3700942E-009  0.9872083E+02  0.7561462E-02  0.1283009E+00
          2   -1    0    0  501    0  0.00000000000E+00  0.00000000000E+00  0.15033311742E+04  0.15033311742E+04  0.00000000000E+00 0. -1.
         -2   -1    0    0    0  501 -0.00000000000E+00 -0.00000000000E+00 -0.95818488579E+01  0.95818488579E+01  0.00000000000E+00 0.  1.
         25    2    1    2    0    0  0.13940060041E+01 -0.50065798824E+02  0.91863652761E+03  0.92846614653E+03  0.12509111847E+03 0.  0.
          5    1    3    3  502    0 -0.38374881621E+02 -0.17929584427E+02  0.10620068477E+03  0.11441223441E+03  0.41800000000E+01 0. -1.
         -5    1    3    3    0  502  0.39768887626E+02 -0.32136214397E+02  0.81243584285E+03  0.81405391212E+03  0.41800000000E+01 0. -1.
        -11    1    1    2    0    0 -0.40232715973E+02  0.23704869755E-01  0.19726444068E+03  0.20132543693E+03  0.00000000000E+00 0.  1.
         11    1    1    2    0    0  0.38838709969E+02  0.50042093954E+02  0.37784835707E+03  0.38312143963E+03  0.00000000000E+00 0. -1.
</event>
<event>
 7    1  0.2686828E-009  0.1114575E+03  0.7561462E-02  0.1257894E+00
          2   -1    0    0  501    0  0.00000000000E+00  0.00000000000E+00  0.34973896314E+03  0.34973896314E+03  0.00000000000E+00 0. -1.
         -2   -1    0    0    0  501 -0.00000000000E+00 -0.00000000000E+00 -0.47798595698E+02  0.47798595698E+02  0.00000000000E+00 0.  1.
         25    2    1    2    0    0 -0.33569240110E+02 -0.18010062844E+02  0.25432072086E+03  0.28596997449E+03  0.12509412859E+03 0.  0.
          5    1    3    3  502    0 -0.11018056316E+02  0.50644404014E+02  0.15189675984E+03  0.16055015189E+03  0.41800000000E+01 0. -1.
         -5    1    3    3    0  502 -0.22551183795E+02 -0.68654466858E+02  0.10242396101E+03  0.12541982260E+03  0.41800000000E+01 0. -1.
        -11    1    1    2    0    0 -0.30448747154E+02  0.16199491368E+02  0.55276021177E+01  0.34929988678E+02  0.00000000000E+00 0.  1.
         11    1    1    2    0    0  0.64017987265E+02  0.18105714764E+01  0.42092044466E+02  0.76637595668E+02  0.00000000000E+00 0. -1.
</event>
<event>
 7    1  0.2686828E-009  0.1071349E+03  0.7561462E-02  0.1265969E+00
         -1   -1    0    0    0  501 -0.00000000000E+00  0.00000000000E+00  0.15785262465E+03  0.15785262465E+03  0.00000000000E+00 0.  1.
          1   -1    0    0  501    0  0.00000000000E+00 -0.00000000000E+00 -0.12208866880E+03  0.12208866880E+03  0.00000000000E+00 0. -1.
         25    2    1    2    0    0  0.47486393639E+02  0.31934772520E+02 -0.46403628084E+02  0.14517457958E+03  0.12509026573E+03 0.  0.
          5    1    3    3  502    0  0.68673686224E+02  0.57956214793E+02 -0.28086158687E+01  0.90001992955E+02  0.41800000000E+01 0. -1.
         -5    1    3    3    0  502 -0.21187292585E+02 -0.26021442273E+02 -0.43595012215E+02  0.55172586627E+02  0.41800000000E+01 0. -1.
        -11    1    1    2    0    0  0.11710944076E+02  0.12006882400E+02 -0.77611472060E+01  0.18480985960E+02  0.00000000000E+00 0. -1.
         11    1    1    2    0    0 -0.59197337715E+02 -0.43941654920E+02  0.89928731138E+02  0.11628572790E+03  0.00000000000E+00 0.  1.
</event>
<event>
 7    1  0.2686828E-009  0.1188148E+03  0.7561462E-02  0.1245065E+00
         -3   -1    0    0    0  501 -0.00000000000E+00  0.00000000000E+00  0.17672043016E+03  0.17672043016E+03  0.00000000000E+00 0.  1.
          3   -1    0    0  501    0  0.00000000000E+00 -0.00000000000E+00 -0.10783554519E+03  0.10783554519E+03  0.00000000000E+00 0. -1.
         25    2    1    2    0    0 -0.52961493086E+02  0.39956525520E+02 -0.17303303603E+02  0.14264042350E+03  0.12508174295E+03 0.  0.
          5    1    3    3  502    0 -0.58704235600E+02 -0.30261461354E+02 -0.26859206806E+02  0.71420114191E+02  0.41800000000E+01 0.  1.
         -5    1    3    3    0  502  0.57427425144E+01  0.70217986874E+02  0.95559032039E+01  0.71220309311E+02  0.41800000000E+01 0.  1.
        -11    1    1    2    0    0 -0.19091548471E+02 -0.16107358764E+02  0.53956080346E+02  0.59457487633E+02  0.00000000000E+00 0.  1.
         11    1    1    2    0    0  0.72053041557E+02 -0.23849166756E+02  0.32232108228E+02  0.82458064211E+02  0.00000000000E+00 0. -1.
</event>
<event>
 7    1  0.2686828E-009  0.1426789E+03  0.7561462E-02  0.1209769E+00
          2   -1    0    0  501    0  0.00000000000E+00  0.00000000000E+00  0.97193495662E+03  0.97193495662E+03  0.00000000000E+00 0. -1.
         -2   -1    0    0    0  501 -0.00000000000E+00 -0.00000000000E+00 -0.28378428584E+02  0.28378428584E+02  0.00000000000E+00 0.  1.
         25    2    1    2    0    0  0.90861531389E+02 -0.67834641563E+02  0.34141438701E+03  0.38087909747E+03  0.12509095390E+03 0.  0.
          5    1    3    3  502    0  0.97268872170E+02 -0.80273603957E+02  0.34366944806E+03  0.36610278190E+03  0.41800000000E+01 0. -1.
         -5    1    3    3    0  502 -0.64073407813E+01  0.12438962394E+02 -0.22550610535E+01  0.14776315565E+02  0.41800000000E+01 0. -1.
        -11    1    1    2    0    0 -0.46697357406E+02 -0.16372257354E+02  0.17687800813E+03  0.18366960488E+03  0.00000000000E+00 0.  1.
         11    1    1    2    0    0 -0.44164173983E+02  0.84206898918E+02  0.42526413291E+03  0.43576468286E+03  0.00000000000E+00 0. -1.
</event>
<event>
 7    1  0.2686828E-009  0.1003517E+03  0.7561462E-02  0.1279558E+00
         -4   -1    0    0    0  501 -0.00000000000E+00  0.00000000000E+00  0.11481593994E+03  0.11481593994E+03  0.00000000000E+00 0. -1.
          4   -1    0    0  501    0  0.00000000000E+00 -0.00000000000E+00 -0.12247373840E+03  0.12247373840E+03  0.00000000000E+00 0.  1.
         25    2    1    2    0    0 -0.52261805899E+01 -0.35019523706E+02 -0.80594742754E+01  0.13025693801E+03  0.12509290455E+03 0.  0.
          5    1    3    3  502    0  0.13336102549E+02 -0.72623618468E+02  0.23506854170E+02  0.77602101670E+02  0.41800000000E+01 0.  1.
         -5    1    3    3    0  502 -0.18562283139E+02  0.37604094762E+02 -0.31566328445E+02  0.52654836338E+02  0.41800000000E+01 0.  1.
        -11    1    1    2    0    0  0.33129633937E+02 -0.72890078122E+01 -0.32199818641E+02  0.46771044463E+02  0.00000000000E+00 0.  1.
         11    1    1    2    0    0 -0.27903453347E+02  0.42308531518E+02  0.32601494460E+02  0.60261695868E+02  0.00000000000E+00 0. -1.
</event>
<event>
 7    1  0.2686828E-009  0.1014183E+03  0.7561462E-02  0.1277342E+00
          1   -1    0    0  501    0  0.00000000000E+00  0.00000000000E+00  0.80381091837E+03  0.80381091837E+03  0.00000000000E+00 0. -1.
         -1   -1    0    0    0  501 -0.00000000000E+00 -0.00000000000E+00 -0.20987586825E+02  0.20987586825E+02  0.00000000000E+00 0.  1.
         25    2    1    2    0    0  0.29865653043E+02 -0.27629936668E+02  0.62841915182E+03  0.64203776713E+03  0.12508594410E+03 0.  0.
          5    1    3    3  502    0  0.42124714324E+02  0.41358878363E+02  0.23059803474E+03  0.23807136410E+03  0.41800000000E+01 0. -1.
         -5    1    3    3    0  502 -0.12259061281E+02 -0.68988815031E+02  0.39782111708E+03  0.40396640303E+03  0.41800000000E+01 0. -1.
        -11    1    1    2    0    0 -0.33328731316E+02 -0.10676974375E+02  0.14875039375E+02  0.38027212748E+02  0.00000000000E+00 0.  1.
         11    1    1    2    0    0  0.34630782733E+01  0.38306911044E+02  0.13952914035E+03  0.14473352532E+03  0.00000000000E+00 0. -1.
</event>
<event>
 7    1  0.2686828E-009  0.9270930E+02  0.7561462E-02  0.1296420E+00
         -1   -1    0    0    0  501 -0.00000000000E+00  0.00000000000E+00  0.71925958639E+02  0.71925958639E+02  0.00000000000E+00 0.  1.
          1   -1    0    0  501    0  0.00000000000E+00 -0.00000000000E+00 -0.20015507052E+03  0.20015507052E+03  0.00000000000E+00 0. -1.
         25    2    1    2    0    0 -0.12265906875E+02  0.19956669101E+02 -0.92919973919E+02  0.15757658500E+03  0.12509011741E+03 0.  0.
          5    1    3    3  502    0  0.13352907269E+02  0.63815446823E+02 -0.83046997236E+02  0.10566450462E+03  0.41800000000E+01 0.  1.
         -5    1    3    3    0  502 -0.25618814144E+02 -0.43858777722E+02 -0.98729766826E+01  0.51912080386E+02  0.41800000000E+01 0.  1.
        -11    1    1    2    0    0  0.29804042317E+02  0.12430031778E+02 -0.61396537607E+02  0.69370897778E+02  0.00000000000E+00 0. -1.
         11    1    1    2    0    0 -0.17538135442E+02 -0.32386700878E+02  0.26087399645E+02  0.45133546379E+02  0.00000000000E+00 0.  1.
</event>
<event>
 7    1  0.2686828E-009  0.9241043E+02  0.7561462E-02  0.1297117E+00
         -1   -1    0    0    0  501 -0.00000000000E+00  0.00000000000E+00  0.26237303477E+02  0.26237303477E+02  0.00000000000E+00 0.  1.
          1   -1    0    0  501    0  0.00000000000E+00 -0.00000000000E+00 -0.10090447899E+04  0.10090447899E+04  0.00000000000E+00 0. -1.
         25    2    1    2    0    0 -0.31115109402E+02  0.63944703179E+02 -0.84641035570E+03  0.85855318001E+03  0.12508396206E+03 0.  0.
          5    1    3    3  502    0 -0.70119617238E+01  0.44137060344E+02 -0.80638647720E+03  0.80763473842E+03  0.41800000000E+01 0.  1.
         -5    1    3    3    0  502 -0.24103147679E+02  0.19807642835E+02 -0.40023878502E+02  0.50918441581E+02  0.41800000000E+01 0.  1.
        -11    1    1    2    0    0 -0.14068321584E+02 -0.61630689416E+02 -0.55888385409E+02  0.84378736502E+02  0.00000000000E+00 0.  1.
         11    1    1    2    0    0  0.45183430987E+02 -0.23140137635E+01 -0.80508745310E+02  0.92350176864E+02  0.00000000000E+00 0. -1.
</event>
<event>
 7    1  0.2686828E-009  0.1018506E+03  0.7561462E-02  0.1276452E+00
         -3   -1    0    0    0  501 -0.00000000000E+00  0.00000000000E+00  0.17388437823E+03  0.17388437823E+03  0.00000000000E+00 0.  1.
          3   -1    0    0  501    0  0.00000000000E+00 -0.00000000000E+00 -0.14450532191E+03  0.14450532191E+03  0.00000000000E+00 0. -1.
         25    2    1    2    0    0  0.97118358222E+01 -0.27705256090E+02 -0.96609932336E+02  0.16076983286E+03  0.12510619155E+03 0.  0.
          5    1    3    3  502    0 -0.35082383883E+01  0.45075249067E+02 -0.94536306405E+01  0.46378112805E+02  0.41800000000E+01 0. -1.
         -5    1    3    3    0  502  0.13220074210E+02 -0.72780505157E+02 -0.87156301695E+02  0.11439172006E+03  0.41800000000E+01 0. -1.
        -11    1    1    2    0    0  0.23885190840E+02  0.41504785524E+02  0.34026627495E+02  0.58744880130E+02  0.00000000000E+00 0. -1.
         11    1    1    2    0    0 -0.33597026662E+02 -0.13799529434E+02  0.91962361158E+02  0.98874987145E+02  0.00000000000E+00 0.  1.
</event>
<event>
 7    1  0.2686828E-009  0.1118364E+03  0.7561462E-02  0.1257206E+00
          2   -1    0    0  501    0  0.00000000000E+00  0.00000000000E+00  0.12774703672E+03  0.12774703672E+03  0.00000000000E+00 0. -1.
         -2   -1    0    0    0  501 -0.00000000000E+00 -0.00000000000E+00 -0.13247542277E+03  0.13247542277E+03  0.00000000000E+00 0.  1.
         25    2    1    2    0    0  0.61744697434E+02 -0.32514876272E+02  0.84585994940E+01  0.14348574145E+03  0.12508791010E+03 0.  0.
          5    1    3    3  502    0  0.85263555396E+02 -0.22878142845E+02 -0.33281776467E+02  0.94437452018E+02  0.41800000000E+01 0. -1.
         -5    1    3    3    0  502 -0.23518857962E+02 -0.96367334267E+01  0.41740375960E+02  0.49048289433E+02  0.41800000000E+01 0. -1.
        -11    1    1    2    0    0 -0.62914379709E+02  0.57076561258E+02 -0.26227210883E+02  0.88903428561E+02  0.00000000000E+00 0.  1.
         11    1    1    2    0    0  0.11696822750E+01 -0.24561684986E+02  0.13040225346E+02  0.27833289476E+02  0.00000000000E+00 0. -1.
</event>
<event>
 7    1  0.2686828E-009  0.2687811E+03  0.7561462E-02  0.1101979E+00
         -1   -1    0    0    0  501 -0.00000000000E+00  0.00000000000E+00  0.14705751093E+03  0.14705751093E+03  0.00000000000E+00 0.  1.
          1   -1    0    0  501    0  0.00000000000E+00 -0.00000000000E+00 -0.77217969916E+03  0.77217969916E+03  0.00000000000E+00 0. -1.
         25    2    1    2    0    0  0.12781116043E+03  0.22680807247E+03 -0.57225629075E+03  0.64101792845E+03  0.12509647406E+03 0.  0.
          5    1    3    3  502    0  0.57053790769E+02  0.39053488391E+02 -0.26594981018E+03  0.27482191312E+03  0.41800000000E+01 0.  1.
         -5    1    3    3    0  502  0.70757369662E+02  0.18775458408E+03 -0.30630648057E+03  0.36619601533E+03  0.41800000000E+01 0.  1.
        -11    1    1    2    0    0 -0.26060170517E+02 -0.10839175662E+03  0.53066778864E+01  0.11160674810E+03  0.00000000000E+00 0.  1.
         11    1    1    2    0    0 -0.10175098991E+03 -0.11841631584E+03 -0.58172575364E+02  0.16661253353E+03  0.00000000000E+00 0. -1.
</event>
<event>
 7    1  0.2686828E-009  0.1052492E+03  0.7561462E-02  0.1269629E+00
         -4   -1    0    0    0  501 -0.00000000000E+00  0.00000000000E+00  0.41497241618E+02  0.41497241618E+02  0.00000000000E+00 0.  1.
          4   -1    0    0  501    0  0.00000000000E+00 -0.00000000000E+00 -0.33184786309E+03  0.33184786309E+03  0.00000000000E+00 0. -1.
         25    2    1    2    0    0  0.24257718738E+02  0.23143972767E+02 -0.12072956232E+03  0.17705235814E+03  0.12509128630E+03 0.  0.
          5    1    3    3  502    0  0.44737094132E-01 -0.42021036531E+02 -0.57394465064E+01  0.42616700468E+02  0.41800000000E+01 0. -1.
         -5    1    3    3    0  502  0.24212981643E+02  0.65165009298E+02 -0.11499011582E+03  0.13443565767E+03  0.41800000000E+01 0. -1.
        -11    1    1    2    0    0  0.10204338350E+02  0.32006665535E+02 -0.52508233380E+02  0.62335140431E+02  0.00000000000E+00 0.  1.
         11    1    1    2    0    0 -0.34462057088E+02 -0.55150638302E+02 -0.11711282577E+03  0.13395760614E+03  0.00000000000E+00 0. -1.
</event>
<event>
 7    1  0.2686828E-009  0.2635659E+03  0.7561462E-02  0.1105019E+00
          1   -1    0    0  501    0  0.00000000000E+00  0.00000000000E+00  0.64332733270E+03  0.64332733270E+03  0.00000000000E+00 0. -1.
         -1   -1    0    0    0  501 -0.00000000000E+00 -0.00000000000E+00 -0.12209893462E+03  0.12209893462E+03  0.00000000000E+00 0.  1.
         25    2    1    2    0    0 -0.59064787623E+02 -0.25077335853E+03  0.24308861129E+03  0.37565297147E+03  0.12508859079E+03 0.  0.
          5    1    3    3  502    0  0.10422569139E+02 -0.11972835692E+03  0.17513579053E+03  0.21244652721E+03  0.41800000000E+01 0.  1.
         -5    1    3    3    0  502 -0.69487356763E+02 -0.13104500161E+03  0.67952820757E+02  0.16320644425E+03  0.41800000000E+01 0.  1.
        -11    1    1    2    0    0  0.25043428372E+02  0.65592979517E+02  0.13877760723E+03  0.15552760699E+03  0.00000000000E+00 0. -1.
         11    1    1    2    0    0  0.34021359251E+02  0.18518037902E+03  0.13936217956E+03  0.23424568886E+03  0.00000000000E+00 0.  1.
</event>
<event>
 7    1  0.2815560E-009  0.1195169E+03  0.7561462E-02  0.1243896E+00
         -2   -1    0    0    0  501 -0.00000000000E+00  0.00000000000E+00  0.45084951705E+02  0.45084951705E+02  0.00000000000E+00 0. -1.
          2   -1    0    0  501    0  0.00000000000E+00 -0.00000000000E+00 -0.33622682916E+03  0.33622682916E+03  0.00000000000E+00 0.  1.
         25    2    1    2    0    0 -0.31274621139E+02  0.48375433953E+02 -0.16942522108E+03  0.21833726188E+03  0.12509184566E+03 0.  0.
          5    1    3    3  502    0 -0.75818096772E+02  0.22543386959E+02 -0.67506338452E+02  0.10407288900E+03  0.41800000000E+01 0.  1.
         -5    1    3    3    0  502  0.44543475633E+02  0.25832046994E+02 -0.10191888263E+03  0.11426437288E+03  0.41800000000E+01 0.  1.
        -11    1    1    2    0    0  0.34849365773E+02  0.19674707963E+02 -0.50041792949E+02  0.64076153675E+02  0.00000000000E+00 0.  1.
         11    1    1    2    0    0 -0.35747446348E+01 -0.68050141916E+02 -0.71674863429E+02  0.98898365313E+02  0.00000000000E+00 0. -1.
</event>
<event>
 7    1  0.2686828E-009  0.8657576E+02  0.7561462E-02  0.1311362E+00
          2   -1    0    0  501    0  0.00000000000E+00  0.00000000000E+00  0.17174629643E+03  0.17174629643E+03  0.00000000000E+00 0. -1.
         -2   -1    0    0    0  501 -0.00000000000E+00 -0.00000000000E+00 -0.66865029100E+02  0.66865029100E+02  0.00000000000E+00 0.  1.
         25    2    1    2    0    0  0.30452829253E+01  0.16403163108E+01  0.84426883212E+02  0.15095411046E+03  0.12508909013E+03 0.  0.
          5    1    3    3  502    0  0.81379586020E+00 -0.42925034235E+02 -0.11870036406E+02  0.44739143846E+02  0.41800000000E+01 0. -1.
         -5    1    3    3    0  502  0.22314870651E+01  0.44565350546E+02  0.96296919618E+02  0.10621496661E+03  0.41800000000E+01 0. -1.
        -11    1    1    2    0    0 -0.77079876337E+01 -0.42945480820E+02  0.91645109955E+01  0.44583804885E+02  0.00000000000E+00 0.  1.
         11    1    1    2    0    0  0.46627047084E+01  0.41305164509E+02  0.11289873121E+02  0.43073410190E+02  0.00000000000E+00 0. -1.
</event>
<event>
 7    1  0.2686828E-009  0.6516354E+02  0.7561462E-02  0.1377357E+00
         -2   -1    0    0    0  501 -0.00000000000E+00  0.00000000000E+00  0.43274560094E+02  0.43274560094E+02  0.00000000000E+00 0.  1.
          2   -1    0    0  501    0  0.00000000000E+00 -0.00000000000E+00 -0.38092263984E+03  0.38092263984E+03  0.00000000000E+00 0. -1.
         25    2    1    2    0    0 -0.23123406595E+01  0.42491054440E+02 -0.27720159637E+03  0.30708250664E+03  0.12509238276E+03 0.  0.
          5    1    3    3  502    0  0.20967471519E+01  0.34228387117E+01  0.12982515576E+02  0.14217253045E+02  0.41800000000E+01 0.  1.
         -5    1    3    3    0  502 -0.44090878114E+01  0.39068215728E+02 -0.29018411195E+03  0.29286525359E+03  0.41800000000E+01 0.  1.
        -11    1    1    2    0    0  0.23873130906E+02  0.11762278673E+02 -0.51611833619E+02  0.58069432134E+02  0.00000000000E+00 0. -1.
         11    1    1    2    0    0 -0.21560790247E+02 -0.54253333113E+02 -0.88346497609E+01  0.59045261167E+02  0.00000000000E+00 0.  1.
</event>
<event>
 7    1  0.2686828E-009  0.1349827E+03  0.7561462E-02  0.1220244E+00
         -3   -1    0    0    0  501 -0.00000000000E+00  0.00000000000E+00  0.73652916319E+02  0.73652916319E+02  0.00000000000E+00 0.  1.
          3   -1    0    0  501    0  0.00000000000E+00 -0.00000000000E+00 -0.26740588256E+03  0.26740588256E+03  0.00000000000E+00 0. -1.
         25    2    1    2    0    0 -0.29076720086E+02 -0.83942551109E+02 -0.10066580968E+03  0.18350113088E+03  0.12508897736E+03 0.  0.
          5    1    3    3  502    0 -0.73269593188E+02 -0.53884309373E+02 -0.32263097256E+02  0.96593643306E+02  0.41800000000E+01 0.  1.
         -5    1    3    3    0  502  0.44192873102E+02 -0.30058241736E+02 -0.68402712427E+02  0.86907487575E+02  0.41800000000E+01 0.  1.
        -11    1    1    2    0    0  0.33564621044E+02 -0.69747140077E+01 -0.14210966447E+02  0.37110402701E+02  0.00000000000E+00 0.  1.
         11    1    1    2    0    0 -0.44879009580E+01  0.90917265117E+02 -0.78876190114E+02  0.12044726530E+03  0.00000000000E+00 0. -1.
</event>
<event>
 7    1  0.2686828E-009  0.1001130E+03  0.7561462E-02  0.1280058E+00
         -1   -1    0    0    0  501 -0.00000000000E+00  0.00000000000E+00  0.12747182835E+02  0.12747182835E+02  0.00000000000E+00 0.  1.
          1   -1    0    0  501    0  0.00000000000E+00 -0.00000000000E+00 -0.10356503110E+04  0.10356503110E+04  0.00000000000E+00 0. -1.
         25    2    1    2    0    0  0.18201939817E+02 -0.24398212193E+02 -0.48995043538E+03  0.50658214782E+03  0.12508980769E+03 0.  0.
          5    1    3    3  502    0  0.41905052983E+01  0.38054579650E+02 -0.35588668353E+03  0.35796440505E+03  0.41800000000E+01 0. -1.
         -5    1    3    3    0  502  0.14011434519E+02 -0.62452791844E+02 -0.13406375185E+03  0.14861774277E+03  0.41800000000E+01 0. -1.
        -11    1    1    2    0    0 -0.51150921081E+02 -0.75173830911E+01 -0.27623384877E+03  0.28103036666E+03  0.00000000000E+00 0. -1.
         11    1    1    2    0    0  0.32948981264E+02  0.31915595284E+02 -0.25671884405E+03  0.26078497939E+03  0.00000000000E+00 0.  1.
</event>
<event>
 7    1  0.2686828E-009  0.1048311E+03  0.7561462E-02  0.1270453E+00
          1   -1    0    0  501    0  0.00000000000E+00  0.00000000000E+00  0.34049769806E+02  0.34049769806E+02  0.00000000000E+00 0. -1.
         -1   -1    0    0    0  501 -0.00000000000E+00 -0.00000000000E+00 -0.47888884840E+03  0.47888884840E+03  0.00000000000E+00 0.  1.
         25    2    1    2    0    0  0.35956397344E+02  0.56567868651E+02 -0.22422226736E+03  0.26536097598E+03  0.12509211055E+03 0.  0.
          5    1    3    3  502    0  0.13682902247E+02 -0.18488931295E+02  0.42936587028E+01  0.23769103883E+02  0.41800000000E+01 0. -1.
         -5    1    3    3    0  502  0.22273495097E+02  0.75056799947E+02 -0.22851592606E+03  0.24159187210E+03  0.41800000000E+01 0. -1.
        -11    1    1    2    0    0 -0.54240504569E+02 -0.65610049252E+01 -0.14619159818E+03  0.15606749341E+03  0.00000000000E+00 0.  1.
         11    1    1    2    0    0  0.18284107226E+02 -0.50006863726E+02 -0.74425213057E+02  0.91510148810E+02  0.00000000000E+00 0. -1.
</event>
<event>
 7    1  0.2686828E-009  0.8782118E+02  0.7561462E-02  0.1308215E+00
          3   -1    0    0  501    0  0.00000000000E+00  0.00000000000E+00  0.24169115317E+03  0.24169115317E+03  0.00000000000E+00 0. -1.
         -3   -1    0    0    0  501 -0.00000000000E+00 -0.00000000000E+00 -0.94333668469E+02  0.94333668469E+02  0.00000000000E+00 0.  1.
         25    2    1    2    0    0  0.24711663281E+02 -0.31487121149E+02  0.18701950487E+03  0.22852920144E+03  0.12508875093E+03 0.  0.
          5    1    3    3  502    0  0.35255274415E+01  0.24607679866E+02  0.16111818246E+03  0.16307822777E+03  0.41800000000E+01 0. -1.
         -5    1    3    3    0  502  0.21186135839E+02 -0.56094801015E+02  0.25901322413E+02  0.65450973678E+02  0.41800000000E+01 0. -1.
        -11    1    1    2    0    0 -0.53582562587E+02  0.30018791486E+02 -0.47385751369E+02  0.77573373579E+02  0.00000000000E+00 0. -1.
         11    1    1    2    0    0  0.28870899306E+02  0.14683296634E+01  0.77237311941E+01  0.29922246612E+02  0.00000000000E+00 0.  1.
</event>
<event>
 7    1  0.2686828E-009  0.1310467E+03  0.7561462E-02  0.1225911E+00
         -1   -1    0    0    0  501 -0.00000000000E+00  0.00000000000E+00  0.41668104344E+02  0.41668104344E+02  0.00000000000E+00 0.  1.
          1   -1    0    0  501    0  0.00000000000E+00 -0.00000000000E+00 -0.53498709568E+03  0.53498709568E+03  0.00000000000E+00 0. -1.
         25    2    1    2    0    0  0.56435006359E+02  0.66286156435E+02 -0.39717958768E+03  0.42541497653E+03  0.12509001920E+03 0.  0.
          5    1    3    3  502    0  0.19815958371E+02  0.98607263315E+02 -0.30229291950E+03  0.31861347455E+03  0.41800000000E+01 0. -1.
         -5    1    3    3    0  502  0.36619047988E+02 -0.32321106880E+02 -0.94886668185E+02  0.10680150198E+03  0.41800000000E+01 0. -1.
        -11    1    1    2    0    0  0.12716393481E+02 -0.33587386416E+02 -0.51146543459E+02  0.62496304668E+02  0.00000000000E+00 0. -1.
         11    1    1    2    0    0 -0.69151399840E+02 -0.32698770019E+02 -0.44992860188E+02  0.88743918825E+02  0.00000000000E+00 0.  1.
</event>
<event>
 7    1  0.2686828E-009  0.3141259E+03  0.7561462E-02  0.1078385E+00
         -2   -1    0    0    0  501 -0.00000000000E+00  0.00000000000E+00  0.80375881135E+02  0.80375881135E+02  0.00000000000E+00 0.  1.
          2   -1    0    0  501    0  0.00000000000E+00 -0.00000000000E+00 -0.12831235916E+04  0.12831235916E+04  0.00000000000E+00 0. -1.
         25    2    1    2    0    0 -0.29994431102E+03  0.33041779916E+02 -0.64270191265E+03  0.72095182931E+03  0.12508973871E+03 0.  0.
          5    1    3    3  502    0 -0.27286903871E+03 -0.12184169175E+02 -0.55390997728E+03  0.61760804852E+03  0.41800000000E+01 0. -1.
         -5    1    3    3    0  502 -0.27075272313E+02  0.45225949091E+02 -0.88791935375E+02  0.10334378080E+03  0.41800000000E+01 0. -1.
        -11    1    1    2    0    0  0.19451079148E+03 -0.13549617673E+02 -0.26786619184E+03  0.33131606794E+03  0.00000000000E+00 0.  1.
         11    1    1    2    0    0  0.10543351954E+03 -0.19492162243E+02 -0.29217960593E+03  0.31123157544E+03  0.00000000000E+00 0. -1.
</event>
<event>
 7    1  0.2686828E-009  0.1156012E+03  0.7561462E-02  0.1250535E+00
         -2   -1    0    0    0  501 -0.00000000000E+00  0.00000000000E+00  0.81718636483E+02  0.81718636483E+02  0.00000000000E+00 0.  1.
          2   -1    0    0  501    0  0.00000000000E+00 -0.00000000000E+00 -0.23259530338E+03  0.23259530338E+03  0.00000000000E+00 0. -1.
         25    2    1    2    0    0 -0.12775396589E+02  0.39780923915E+02  0.12558572481E+01  0.13188755144E+03  0.12508803453E+03 0.  0.
          5    1    3    3  502    0  0.42775119986E+02 -0.21595020175E+02  0.78609785674E+01  0.48737287268E+02  0.41800000000E+01 0.  1.
         -5    1    3    3    0  502 -0.55550516576E+02  0.61375944091E+02 -0.66051213193E+01  0.83150264176E+02  0.41800000000E+01 0.  1.
        -11    1    1    2    0    0 -0.31380323831E+02 -0.45937914159E+02 -0.93009559681E+02  0.10837801840E+03  0.00000000000E+00 0. -1.
         11    1    1    2    0    0  0.44155720421E+02  0.61569902436E+01 -0.59122964461E+02  0.74048370012E+02  0.00000000000E+00 0.  1.
</event>
<event>
 7    1  0.2686828E-009  0.9785531E+02  0.7561462E-02  0.1284872E+00
          1   -1    0    0  501    0  0.00000000000E+00  0.00000000000E+00  0.46722984667E+02  0.46722984667E+02  0.00000000000E+00 0. -1.
         -1   -1    0    0    0  501 -0.00000000000E+00 -0.00000000000E+00 -0.36904990957E+03  0.36904990957E+03  0.00000000000E+00 0.  1.
         25    2    1    2    0    0 -0.62533961556E+02  0.66992929422E+01 -0.23932006815E+03  0.27726600025E+03  0.12508782116E+03 0.  0.
          5    1    3    3  502    0  0.35262835672E+01  0.42450394848E+02 -0.23756566366E+02  0.48952196519E+02  0.41800000000E+01 0. -1.
         -5    1    3    3    0  502 -0.66060245124E+02 -0.35751101905E+02 -0.21556350179E+03  0.22831380374E+03  0.41800000000E+01 0. -1.
        -11    1    1    2    0    0  0.22988084591E+02  0.19581220484E+02 -0.85783954240E+02  0.90943735540E+02  0.00000000000E+00 0.  1.
         11    1    1    2    0    0  0.39545876966E+02 -0.26280513426E+02  0.27770974878E+01  0.47563158446E+02  0.00000000000E+00 0. -1.
</event>
<event>
 7    1  0.2686828E-009  0.1502136E+03  0.7561462E-02  0.1200211E+00
          3   -1    0    0  501    0  0.00000000000E+00  0.00000000000E+00  0.20236277228E+03  0.20236277228E+03  0.00000000000E+00 0. -1.
         -3   -1    0    0    0  501 -0.00000000000E+00 -0.00000000000E+00 -0.14021424905E+03  0.14021424905E+03  0.00000000000E+00 0.  1.
         25    2    1    2    0    0  0.97952473107E+02  0.70998718162E+02  0.76722764936E+02  0.19018203953E+03  0.12508925026E+03 0.  0.
          5    1    3    3  502    0  0.84569369827E+02 -0.11758119319E+02  0.16979207184E+02  0.87155020277E+02  0.41800000000E+01 0.  1.
         -5    1    3    3    0  502  0.13383103280E+02  0.82756837481E+02  0.59743557752E+02  0.10302701925E+03  0.41800000000E+01 0.  1.
        -11    1    1    2    0    0 -0.51663423565E+02 -0.66913401408E+02 -0.46053338275E+02  0.96267453424E+02  0.00000000000E+00 0.  1.
         11    1    1    2    0    0 -0.46289049542E+02 -0.40853167536E+01  0.31479096569E+02  0.56127528373E+02  0.00000000000E+00 0. -1.
</event>
<event>
 7    1  0.2686828E-009  0.1023972E+03  0.7561462E-02  0.1275334E+00
         -2   -1    0    0    0  501 -0.00000000000E+00  0.00000000000E+00  0.39764277871E+02  0.39764277871E+02  0.00000000000E+00 0.  1.
          2   -1    0    0  501    0  0.00000000000E+00 -0.00000000000E+00 -0.56920734360E+03  0.56920734360E+03  0.00000000000E+00 0. -1.
         25    2    1    2    0    0  0.44154931906E+02 -0.11574835607E+02 -0.46827579358E+03  0.48684266358E+03  0.12509966185E+03 0.  0.
          5    1    3    3  502    0  0.73700419214E+02  0.10708786789E+02 -0.16243707372E+03  0.17874480475E+03  0.41800000000E+01 0.  1.
         -5    1    3    3    0  502 -0.29545487308E+02 -0.22283622397E+02 -0.30583871986E+03  0.30809785883E+03  0.41800000000E+01 0.  1.
        -11    1    1    2    0    0 -0.14511918158E+02 -0.34922832249E+02 -0.54852286900E+02  0.66625620891E+02  0.00000000000E+00 0. -1.
         11    1    1    2    0    0 -0.29643013748E+02  0.46497667856E+02 -0.63149852526E+01  0.55503337007E+02  0.00000000000E+00 0.  1.
</event>
<event>
 7    1  0.2686828E-009  0.1118167E+03  0.7561462E-02  0.1257242E+00
         -1   -1    0    0    0  501 -0.00000000000E+00  0.00000000000E+00  0.24223175793E+02  0.24223175793E+02  0.00000000000E+00 0.  1.
          1   -1    0    0  501    0  0.00000000000E+00 -0.00000000000E+00 -0.88235188516E+03  0.88235188516E+03  0.00000000000E+00 0. -1.
         25    2    1    2    0    0 -0.54449495955E+02  0.19260922846E+02 -0.71207679598E+03  0.72528421318E+03  0.12509234890E+03 0.  0.
          5    1    3    3  502    0 -0.66794111444E+02 -0.33447746315E+02 -0.28054786897E+03  0.29035286161E+03  0.41800000000E+01 0. -1.
         -5    1    3    3    0  502  0.12344615489E+02  0.52708669161E+02 -0.43152892701E+03  0.43493135158E+03  0.41800000000E+01 0. -1.
        -11    1    1    2    0    0  0.26529026174E+02  0.28662947333E+02 -0.20668005840E+02  0.44187331273E+02  0.00000000000E+00 0.  1.
         11    1    1    2    0    0  0.27920469781E+02 -0.47923870179E+02 -0.12538390755E+03  0.13710351650E+03  0.00000000000E+00 0. -1.
</event>
<event>
 7    1  0.2686828E-009  0.1470520E+03  0.7561462E-02  0.1204143E+00
         -2   -1    0    0    0  501 -0.00000000000E+00  0.00000000000E+00  0.55818999834E+03  0.55818999834E+03  0.00000000000E+00 0.  1.
          2   -1    0    0  501    0  0.00000000000E+00 -0.00000000000E+00 -0.42293968272E+02  0.42293968272E+02  0.00000000000E+00 0. -1.
         25    2    1    2    0    0  0.69343228596E+02 -0.82638728114E+02  0.29650753965E+03  0.33941271956E+03  0.12508649164E+03 0.  0.
          5    1    3    3  502    0  0.51884069928E+02  0.21797662329E+02  0.74967606152E+02  0.93833411787E+02  0.41800000000E+01 0. -1.
         -5    1    3    3    0  502  0.17459158668E+02 -0.10443639044E+03  0.22153993350E+03  0.24557930777E+03  0.41800000000E+01 0. -1.
        -11    1    1    2    0    0  0.15380068009E+02  0.24583831104E+02  0.97293855575E+02  0.10152342378E+03  0.00000000000E+00 0.  1.
         11    1    1    2    0    0 -0.84723296605E+02  0.58054897010E+02  0.12209463484E+03  0.15954782328E+03  0.00000000000E+00 0. -1.
</event>
<event>
 7    1  0.2686828E-009  0.1064830E+03  0.7561462E-02  0.1267225E+00
          3   -1    0    0  501    0  0.00000000000E+00  0.00000000000E+00  0.39178997294E+03  0.39178997294E+03  0.00000000000E+00 0. -1.
         -3   -1    0    0    0  501 -0.00000000000E+00 -0.00000000000E+00 -0.40053033585E+02  0.40053033585E+02  0.00000000000E+00 0.  1.
         25    2    1    2    0    0 -0.98403241337E+01  0.42360215724E+02  0.28035001947E+03  0.31005575998E+03  0.12508885252E+03 0.  0.
          5    1    3    3  502    0  0.37642551048E+02 -0.26547596473E+02  0.73025045233E+02  0.86439956960E+02  0.41800000000E+01 0. -1.
         -5    1    3    3    0  502 -0.47482875182E+02  0.68907812197E+02  0.20732497424E+03  0.22361580302E+03  0.41800000000E+01 0. -1.
        -11    1    1    2    0    0 -0.21698519993E+02  0.83161718210E+01  0.55276316239E+02  0.59962118213E+02  0.00000000000E+00 0. -1.
         11    1    1    2    0    0  0.31538844126E+02 -0.50676387545E+02  0.16110603643E+02  0.61825128331E+02  0.00000000000E+00 0.  1.
</event>
<event>
 7    1  0.2686828E-009  0.9342651E+02  0.7561462E-02  0.1294760E+00
         -1   -1    0    0    0  501 -0.00000000000E+00  0.00000000000E+00  0.12867373226E+03  0.12867373226E+03  0.00000000000E+00 0.  1.
          1   -1    0    0  501    0  0.00000000000E+00 -0.00000000000E+00 -0.98045091473E+02  0.98045091473E+02  0.00000000000E+00 0. -1.
         25    2    1    2    0    0  0.18181355055E+02  0.18449352509E+02  0.38494973290E+02  0.13341985043E+03  0.12509217897E+03 0.  0.
          5    1    3    3  502    0  0.31946037190E+01 -0.36668849724E+02 -0.27428103895E+02  0.46093202496E+02  0.41800000000E+01 0.  1.
         -5    1    3    3    0  502  0.14986751336E+02  0.55118202233E+02  0.65923077186E+02  0.87326647930E+02  0.41800000000E+01 0.  1.
        -11    1    1    2    0    0 -0.12447049395E+02  0.35842771445E+02  0.11779282647E+01  0.37960780004E+02  0.00000000000E+00 0. -1.
         11    1    1    2    0    0 -0.57343056601E+01 -0.54292123954E+02 -0.90442607720E+01  0.55338193300E+02  0.00000000000E+00 0.  1.
</event>
<event>
 7    1  0.2686828E-009  0.1118030E+03  0.7561462E-02  0.1257267E+00
          2   -1    0    0  501    0  0.00000000000E+00  0.00000000000E+00  0.38809262688E+03  0.38809262688E+03  0.00000000000E+00 0.  1.
         -2   -1    0    0    0  501 -0.00000000000E+00 -0.00000000000E+00 -0.43799071285E+02  0.43799071285E+02  0.00000000000E+00 0. -1.
         25    2    1    2    0    0 -0.62411574961E+02 -0.10492500651E+02  0.13655207428E+03  0.19570031003E+03  0.12508734987E+03 0.  0.
          5    1    3    3  502    0  0.56635760516E+01 -0.56205378586E+02  0.69738912231E+02  0.89844916132E+02  0.41800000000E+01 0.  1.
         -5    1    3    3    0  502 -0.68075151012E+02  0.45712877934E+02  0.66813162050E+02  0.10585539390E+03  0.41800000000E+01 0.  1.
        -11    1    1    2    0    0  0.11472508487E+02 -0.21735691954E+02  0.55370884750E+01  0.25193612375E+02  0.00000000000E+00 0. -1.
         11    1    1    2    0    0  0.50939066473E+02  0.32228192605E+02  0.20220439284E+03  0.21099777576E+03  0.00000000000E+00 0.  1.
</event>
<event>
 7    1  0.2686828E-009  0.1073606E+03  0.7561462E-02  0.1265537E+00
         -3   -1    0    0    0  501 -0.00000000000E+00  0.00000000000E+00  0.11149878893E+04  0.11149878893E+04  0.00000000000E+00 0.  1.
          3   -1    0    0  501    0  0.00000000000E+00 -0.00000000000E+00 -0.11445001097E+02  0.11445001097E+02  0.00000000000E+00 0. -1.
         25    2    1    2    0    0 -0.31962536121E+02 -0.46196223068E+01  0.65001464411E+03  0.66272906379E+03  0.12509128588E+03 0.  0.
          5    1    3    3  502    0 -0.57837320381E+02 -0.44012127236E+02  0.26498601931E+03  0.27480408621E+03  0.41800000000E+01 0. -1.
         -5    1    3    3    0  502  0.25874784260E+02  0.39392504930E+02  0.38502862481E+03  0.38792497757E+03  0.41800000000E+01 0. -1.
        -11    1    1    2    0    0 -0.11315722010E+02 -0.34475478167E+02  0.13038755208E+03  0.13534222511E+03  0.00000000000E+00 0. -1.
         11    1    1    2    0    0  0.43278258131E+02  0.39095100473E+02  0.32314069202E+03  0.32836160151E+03  0.00000000000E+00 0.  1.
</event>
<event>
 7    1  0.2686828E-009  0.1239576E+03  0.7561462E-02  0.1236707E+00
         -2   -1    0    0    0  501 -0.00000000000E+00  0.00000000000E+00  0.12196170539E+03  0.12196170539E+03  0.00000000000E+00 0.  1.
          2   -1    0    0  501    0  0.00000000000E+00 -0.00000000000E+00 -0.18509253811E+03  0.18509253811E+03  0.00000000000E+00 0. -1.
         25    2    1    2    0    0  0.89133955077E+02 -0.52652078694E+02 -0.33648329849E+02  0.16581806122E+03  0.12508523489E+03 0.  0.
          5    1    3    3  502    0  0.16192418299E+02  0.82347524390E+01 -0.63466408294E+02  0.66147282180E+02  0.41800000000E+01 0.  1.
         -5    1    3    3    0  502  0.72941536778E+02 -0.60886831133E+02  0.29818078445E+02  0.99670779043E+02  0.41800000000E+01 0.  1.
        -11    1    1    2    0    0 -0.76568173675E+02 -0.34799235230E+01 -0.10521173539E+00  0.76647284082E+02  0.00000000000E+00 0.  1.
         11    1    1    2    0    0 -0.12565781402E+02  0.56132002217E+02 -0.29377291142E+02  0.64588898194E+02  0.00000000000E+00 0. -1.
</event>
<event>
 7    1  0.2686828E-009  0.1291592E+03  0.7561462E-02  0.1228709E+00
         -1   -1    0    0    0  501 -0.00000000000E+00  0.00000000000E+00  0.72431367298E+03  0.72431367298E+03  0.00000000000E+00 0.  1.
          1   -1    0    0  501    0  0.00000000000E+00 -0.00000000000E+00 -0.27674519265E+02  0.27674519265E+02  0.00000000000E+00 0. -1.
         25    2    1    2    0    0 -0.84233011398E+02  0.68273640892E+01  0.33561145203E+03  0.36800046642E+03  0.12508990142E+03 0.  0.
          5    1    3    3  502    0 -0.11109112576E+03 -0.18424055675E+02  0.23134274836E+03  0.25732785250E+03  0.41800000000E+01 0.  1.
         -5    1    3    3    0  502  0.26858114360E+02  0.25251419764E+02  0.10426870367E+03  0.11067261392E+03  0.41800000000E+01 0.  1.
        -11    1    1    2    0    0  0.66470176990E+02 -0.35079880729E+02  0.32989448417E+03  0.33834782864E+03  0.00000000000E+00 0.  1.
         11    1    1    2    0    0  0.17762834408E+02  0.28252516640E+02  0.31133217517E+02  0.45639897191E+02  0.00000000000E+00 0. -1.
</event>
<event>
 7    1  0.2686828E-009  0.6818298E+02  0.7561462E-02  0.1366383E+00
         -1   -1    0    0    0  501 -0.00000000000E+00  0.00000000000E+00  0.36236629491E+02  0.36236629491E+02  0.00000000000E+00 0.  1.
          1   -1    0    0  501    0  0.00000000000E+00 -0.00000000000E+00 -0.45730496235E+03  0.45730496235E+03  0.00000000000E+00 0. -1.
         25    2    1    2    0    0 -0.27741714228E+02  0.56862964563E+01 -0.35254034178E+03  0.37514544180E+03  0.12508986069E+03 0.  0.
          5    1    3    3  502    0  0.18899400024E+02  0.17532120160E+02 -0.81121565254E+01  0.27346700753E+02  0.41800000000E+01 0.  1.
         -5    1    3    3    0  502 -0.46641114252E+02 -0.11845823703E+02 -0.34442818525E+03  0.34779874105E+03  0.41800000000E+01 0.  1.
        -11    1    1    2    0    0  0.35752417160E+02 -0.23246847632E+02  0.44795663191E+01  0.42880272528E+02  0.00000000000E+00 0.  1.
         11    1    1    2    0    0 -0.80107029328E+01  0.17560551176E+02 -0.73007557402E+02  0.75515877515E+02  0.00000000000E+00 0. -1.
</event>
<event>
 7    1  0.2686828E-009  0.1507335E+03  0.7561462E-02  0.1199575E+00
         -2   -1    0    0    0  501 -0.00000000000E+00  0.00000000000E+00  0.32927351239E+02  0.32927351239E+02  0.00000000000E+00 0. -1.
          2   -1    0    0  501    0  0.00000000000E+00 -0.00000000000E+00 -0.90160921023E+03  0.90160921023E+03  0.00000000000E+00 0.  1.
         25    2    1    2    0    0  0.72817697687E+02  0.82388402546E+02 -0.25651117738E+03  0.30583634119E+03  0.12509043730E+03 0.  0.
          5    1    3    3  502    0 -0.59485959506E+01 -0.24884586901E+02 -0.84039951017E+02  0.87947792616E+02  0.41800000000E+01 0.  1.
         -5    1    3    3    0  502  0.78766293638E+02  0.10727298945E+03 -0.17247122636E+03  0.21788854858E+03  0.41800000000E+01 0.  1.
        -11    1    1    2    0    0  0.21594146252E+02 -0.12775532908E+02 -0.84361452781E+02  0.88013499582E+02  0.00000000000E+00 0. -1.
         11    1    1    2    0    0 -0.94411843939E+02 -0.69612869638E+02 -0.52780922883E+03  0.54068672070E+03  0.00000000000E+00 0.  1.
</event>
<event>
 7    1  0.2686828E-009  0.7290108E+02  0.7561462E-02  0.1350497E+00
          1   -1    0    0  501    0  0.00000000000E+00  0.00000000000E+00  0.98571262739E+03  0.98571262739E+03  0.00000000000E+00 0. -1.
         -1   -1    0    0    0  501 -0.00000000000E+00 -0.00000000000E+00 -0.18522941812E+02  0.18522941812E+02  0.00000000000E+00 0.  1.
         25    2    1    2    0    0  0.23130790596E+02 -0.16779606657E+02  0.81004389559E+03  0.82014056246E+03  0.12507134260E+03 0.  0.
          5    1    3    3  502    0 -0.66641947582E+00  0.12622612715E+02  0.74245437268E+03  0.74257372858E+03  0.41800000000E+01 0. -1.
         -5    1    3    3    0  502  0.23797210071E+02 -0.29402219372E+02  0.67589522908E+02  0.77566833880E+02  0.41800000000E+01 0. -1.
        -11    1    1    2    0    0  0.17515445729E+00 -0.36384246891E+02  0.45485331428E+02  0.58247398878E+02  0.00000000000E+00 0.  1.
         11    1    1    2    0    0 -0.23305945053E+02  0.53163853547E+02  0.11166045856E+03  0.12584760786E+03  0.00000000000E+00 0. -1.
</event>
<event>
 7    1  0.2686828E-009  0.9395967E+02  0.7561462E-02  0.1293537E+00
         -2   -1    0    0    0  501 -0.00000000000E+00  0.00000000000E+00  0.21649651033E+03  0.21649651033E+03  0.00000000000E+00 0. -1.
          2   -1    0    0  501    0  0.00000000000E+00 -0.00000000000E+00 -0.78091353323E+02  0.78091353323E+02  0.00000000000E+00 0.  1.
         25    2    1    2    0    0 -0.20769630068E+01  0.66658749196E+02  0.51306956822E+02  0.15075962646E+03  0.12509339924E+03 0.  0.
          5    1    3    3  502    0 -0.29898291022E+02 -0.10049500306E+02  0.60683129462E+02  0.68518719076E+02  0.41800000000E+01 0.  1.
         -5    1    3    3    0  502  0.27821328015E+02  0.76708249502E+02 -0.93761726399E+01  0.82240907385E+02  0.41800000000E+01 0.  1.
        -11    1    1    2    0    0  0.13465090782E+02 -0.59365739522E+02  0.10501385923E+03  0.12138167213E+03  0.00000000000E+00 0. -1.
         11    1    1    2    0    0 -0.11388127776E+02 -0.72930096741E+01 -0.17915659042E+02  0.22446565066E+02  0.00000000000E+00 0.  1.
</event>
<event>
 7    1  0.2686828E-009  0.1075573E+03  0.7561462E-02  0.1265161E+00
          2   -1    0    0  501    0  0.00000000000E+00  0.00000000000E+00  0.92048931710E+03  0.92048931710E+03  0.00000000000E+00 0. -1.
         -2   -1    0    0    0  501 -0.00000000000E+00 -0.00000000000E+00 -0.15872369016E+02  0.15872369016E+02  0.00000000000E+00 0.  1.
         25    2    1    2    0    0  0.51330579593E+02  0.55383321790E+01  0.49309639001E+03  0.51132885648E+03  0.12509055959E+03 0.  0.
          5    1    3    3  502    0  0.78757762850E+02 -0.56509638020E+01  0.17746960313E+03  0.19428754730E+03  0.41800000000E+01 0.  1.
         -5    1    3    3    0  502 -0.27427183257E+02  0.11189295981E+02  0.31562678688E+03  0.31704130918E+03  0.41800000000E+01 0.  1.
        -11    1    1    2    0    0 -0.50995447638E+02 -0.44188401742E+02  0.24920768591E+03  0.25818137277E+03  0.00000000000E+00 0.  1.
         11    1    1    2    0    0 -0.33513195511E+00  0.38650069563E+02  0.16231287217E+03  0.16685145688E+03  0.00000000000E+00 0. -1.
</event>
<event>
 7    1  0.2686828E-009  0.1876890E+03  0.7561462E-02  0.1160562E+00
         -1   -1    0    0    0  501 -0.00000000000E+00  0.00000000000E+00  0.21293852297E+02  0.21293852297E+02  0.00000000000E+00 0.  1.
          1   -1    0    0  501    0  0.00000000000E+00 -0.00000000000E+00 -0.21655816538E+04  0.21655816538E+04  0.00000000000E+00 0. -1.
         25    2    1    2    0    0 -0.13489704788E+02 -0.17857888952E+03 -0.13520596354E+04  0.13695920048E+04  0.12507841531E+03 0.  0.
          5    1    3    3  502    0  0.10955390388E+02 -0.13177148376E+03 -0.54617339624E+03  0.56196672114E+03  0.41800000000E+01 0.  1.
         -5    1    3    3    0  502 -0.24445095176E+02 -0.46807405761E+02 -0.80588623918E+03  0.80762528366E+03  0.41800000000E+01 0.  1.
        -11    1    1    2    0    0  0.36202940612E+02  0.66096818636E+02 -0.45161488541E+03  0.45785963687E+03  0.00000000000E+00 0. -1.
         11    1    1    2    0    0 -0.22713235825E+02  0.11248207088E+03 -0.34061328066E+03  0.35942386442E+03  0.00000000000E+00 0.  1.
</event>
<event>
 7    1  0.2686828E-009  0.1105530E+03  0.7561462E-02  0.1259549E+00
         -1   -1    0    0    0  501 -0.00000000000E+00  0.00000000000E+00  0.14715201405E+03  0.14715201405E+03  0.00000000000E+00 0.  1.
          1   -1    0    0  501    0  0.00000000000E+00 -0.00000000000E+00 -0.11259248143E+03  0.11259248143E+03  0.00000000000E+00 0. -1.
         25    2    1    2    0    0 -0.53670444374E+02  0.37418578413E+02  0.40537445944E+02  0.14687437588E+03  0.12509249041E+03 0.  0.
          5    1    3    3  502    0 -0.92674009391E+02  0.14754758718E+02  0.38521531531E+02  0.10152613315E+03  0.41800000000E+01 0. -1.
         -5    1    3    3    0  502  0.39003565018E+02  0.22663819696E+02  0.20159144125E+01  0.45348242725E+02  0.41800000000E+01 0. -1.
        -11    1    1    2    0    0  0.36908792863E+02 -0.49108997580E+02  0.32353647948E+02  0.69431341406E+02  0.00000000000E+00 0.  1.
         11    1    1    2    0    0  0.16761651511E+02  0.11690419167E+02 -0.38331561273E+02  0.43438778198E+02  0.00000000000E+00 0. -1.
</event>
<event>
 7    1  0.2686828E-009  0.9939924E+02  0.7561462E-02  0.1281564E+00
          1   -1    0    0  501    0  0.00000000000E+00  0.00000000000E+00  0.19454243829E+03  0.19454243829E+03  0.00000000000E+00 0. -1.
         -1   -1    0    0    0  501 -0.00000000000E+00 -0.00000000000E+00 -0.63340767202E+02  0.63340767202E+02  0.00000000000E+00 0.  1.
         25    2    1    2    0    0 -0.19282404231E+02  0.11383757793E+02  0.85464466273E+02  0.15314459380E+03  0.12509072932E+03 0.  0.
          5    1    3    3  502    0 -0.51793938046E+02 -0.39907986912E+02  0.52243181445E+02  0.83797863011E+02  0.41800000000E+01 0. -1.
         -5    1    3    3    0  502  0.32511533816E+02  0.51291744705E+02  0.33221284828E+02  0.69346730792E+02  0.41800000000E+01 0. -1.
        -11    1    1    2    0    0 -0.19173886309E+02 -0.25094249265E+02  0.54493125219E+02  0.62983013253E+02  0.00000000000E+00 0. -1.
         11    1    1    2    0    0  0.38456290539E+02  0.13710491472E+02 -0.87559204057E+01  0.41755598434E+02  0.00000000000E+00 0.  1.
</event>
<event>
 7    1  0.3106449E-009  0.1342007E+03  0.7561462E-02  0.1221352E+00
         -1   -1    0    0    0  501 -0.00000000000E+00  0.00000000000E+00  0.27718674009E+02  0.27718674009E+02  0.00000000000E+00 0.  1.
          1   -1    0    0  501    0  0.00000000000E+00 -0.00000000000E+00 -0.79179314691E+03  0.79179314691E+03  0.00000000000E+00 0. -1.
         25    2    1    2    0    0 -0.70507444792E+02 -0.64565428360E+02 -0.49654474309E+03  0.52090708139E+03  0.12509001256E+03 0.  0.
          5    1    3    3  502    0  0.11371291383E+02 -0.73758226119E+02 -0.24899705729E+03  0.25997420858E+03  0.41800000000E+01 0.  1.
         -5    1    3    3    0  502 -0.81878736175E+02  0.91927977584E+01 -0.24754768580E+03  0.26093287281E+03  0.41800000000E+01 0.  1.
        -11    1    1    2    0    0  0.22802252928E+02  0.58845353215E+02 -0.65561574926E+02  0.91000211211E+02  0.00000000000E+00 0.  1.
         11    1    1    2    0    0  0.47705191864E+02  0.57200751453E+01 -0.20196815489E+03  0.20760452832E+03  0.00000000000E+00 0. -1.
</event>
<event>
 7    1  0.2686828E-009  0.1003160E+03  0.7561462E-02  0.1279633E+00
          2   -1    0    0  501    0  0.00000000000E+00  0.00000000000E+00  0.21993413651E+03  0.21993413651E+03  0.00000000000E+00 0. -1.
         -2   -1    0    0    0  501 -0.00000000000E+00 -0.00000000000E+00 -0.12378636711E+03  0.12378636711E+03  0.00000000000E+00 0.  1.
         25    2    1    2    0    0 -0.10791916218E+01 -0.74820352077E+02  0.15048200317E+03  0.20950559232E+03  0.12509400544E+03 0.  0.
          5    1    3    3  502    0 -0.20832113382E+02 -0.87999496590E+02  0.44609998453E+02  0.10092280570E+03  0.41800000000E+01 0. -1.
         -5    1    3    3    0  502  0.19752921760E+02  0.13179144513E+02  0.10587200472E+03  0.10858278663E+03  0.41800000000E+01 0. -1.
        -11    1    1    2    0    0  0.20426280229E+02  0.53164152004E+02 -0.78120460900E+02  0.96677124458E+02  0.00000000000E+00 0.  1.
         11    1    1    2    0    0 -0.19347088607E+02  0.21656200073E+02  0.23786227135E+02  0.37537786835E+02  0.00000000000E+00 0. -1.
</event>
<event>
 7    1  0.2686828E-009  0.1096534E+03  0.7561462E-02  0.1261213E+00
         -2   -1    0    0    0  501 -0.00000000000E+00  0.00000000000E+00  0.82359682140E+02  0.82359682140E+02  0.00000000000E+00 0. -1.
          2   -1    0    0  501    0  0.00000000000E+00 -0.00000000000E+00 -0.27870218531E+03  0.27870218531E+03  0.00000000000E+00 0.  1.
         25    2    1    2    0    0 -0.52407917326E+02  0.32594039629E+02 -0.20853140606E+03  0.25088325581E+03  0.12509236394E+03 0.  0.
          5    1    3    3  502    0 -0.39246053235E+02 -0.43050756223E+02 -0.60617629758E+02  0.84175945158E+02  0.41800000000E+01 0. -1.
         -5    1    3    3    0  502 -0.13161864092E+02  0.75644795852E+02 -0.14791377630E+03  0.16670731065E+03  0.41800000000E+01 0. -1.
        -11    1    1    2    0    0  0.64195256677E+02 -0.33065481772E+02  0.38145822244E+02  0.81666766921E+02  0.00000000000E+00 0. -1.
         11    1    1    2    0    0 -0.11787339351E+02  0.47144214268E+00 -0.25956919364E+02  0.28511844723E+02  0.00000000000E+00 0.  1.
</event>
<event>
 7    1  0.2686828E-009  0.9207841E+02  0.7561462E-02  0.1297895E+00
          1   -1    0    0  501    0  0.00000000000E+00  0.00000000000E+00  0.15023740070E+03  0.15023740070E+03  0.00000000000E+00 0. -1.
         -1   -1    0    0    0  501 -0.00000000000E+00 -0.00000000000E+00 -0.12142471746E+03  0.12142471746E+03  0.00000000000E+00 0.  1.
         25    2    1    2    0    0 -0.64520981857E+01 -0.80265378393E+02  0.23275624255E+02  0.15057532600E+03  0.12508802331E+03 0.  0.
          5    1    3    3  502    0 -0.78785700938E+01 -0.56105314775E+02  0.74546223070E+02  0.93725610090E+02  0.41800000000E+01 0. -1.
         -5    1    3    3    0  502  0.14264719081E+01 -0.24160063618E+02 -0.51270598815E+02  0.56849715910E+02  0.41800000000E+01 0. -1.
        -11    1    1    2    0    0  0.10780813337E+02  0.90778895414E+02 -0.19603221240E+02  0.93495026989E+02  0.00000000000E+00 0.  1.
         11    1    1    2    0    0 -0.43287151513E+01 -0.10513517021E+02  0.25140280227E+02  0.27591765164E+02  0.00000000000E+00 0. -1.
</event>
<event>
 7    1  0.2686828E-009  0.7727660E+02  0.7561462E-02  0.1336963E+00
         -1   -1    0    0    0  501 -0.00000000000E+00  0.00000000000E+00  0.29012103314E+03  0.29012103314E+03  0.00000000000E+00 0.  1.
          1   -1    0    0  501    0  0.00000000000E+00 -0.00000000000E+00 -0.75805623547E+02  0.75805623547E+02  0.00000000000E+00 0. -1.
         25    2    1    2    0    0  0.27988283865E+02 -0.48235718603E+02  0.22218267513E+03  0.26100134636E+03  0.12508610270E+03 0.  0.
          5    1    3    3  502    0  0.41644362576E+01 -0.25688733131E+02  0.22616489612E+03  0.22769559981E+03  0.41800000000E+01 0.  1.
         -5    1    3    3    0  502  0.23823847608E+02 -0.22546985473E+02 -0.39822209842E+01  0.33305746542E+02  0.41800000000E+01 0.  1.
        -11    1    1    2    0    0  0.21248503062E+02  0.39880613013E+02  0.18050505172E+02  0.48659869643E+02  0.00000000000E+00 0.  1.
         11    1    1    2    0    0 -0.49236786928E+02  0.83551055905E+01 -0.25917770716E+02  0.56265440683E+02  0.00000000000E+00 0. -1.
</event>
<event>
 7    1  0.2686828E-009  0.1114338E+03  0.7561462E-02  0.1257937E+00
         -2   -1    0    0    0  501 -0.00000000000E+00  0.00000000000E+00  0.23260658915E+03  0.23260658915E+03  0.00000000000E+00 0.  1.
          2   -1    0    0  501    0  0.00000000000E+00 -0.00000000000E+00 -0.11741791889E+03  0.11741791889E+03  0.00000000000E+00 0. -1.
         25    2    1    2    0    0  0.75154315317E+02  0.24081818054E+02  0.16299770547E+03  0.22009887155E+03  0.12508859340E+03 0.  0.
          5    1    3    3  502    0  0.23832202116E+02  0.69887346335E+02  0.11261664759E+03  0.13473008851E+03  0.41800000000E+01 0. -1.
         -5    1    3    3    0  502  0.51322113201E+02 -0.45805528282E+02  0.50381057877E+02  0.85368783038E+02  0.41800000000E+01 0. -1.
        -11    1    1    2    0    0 -0.41443256294E+02 -0.20060384979E+02 -0.73926138953E+02  0.87092115363E+02  0.00000000000E+00 0. -1.
         11    1    1    2    0    0 -0.33711059024E+02 -0.40214330742E+01  0.26117103744E+02  0.42833521130E+02  0.00000000000E+00 0.  1.
</event>
<event>
 7    1  0.2686828E-009  0.2173921E+03  0.7561462E-02  0.1135842E+00
         -2   -1    0    0    0  501 -0.00000000000E+00  0.00000000000E+00  0.38861948855E+02  0.38861948855E+02  0.00000000000E+00 0.  1.
          2   -1    0    0  501    0  0.00000000000E+00 -0.00000000000E+00 -0.15091258400E+04  0.15091258400E+04  0.00000000000E+00 0. -1.
         25    2    1    2    0    0  0.22397089219E+02  0.19552514443E+03 -0.10460398475E+04  0.10717174277E+04  0.12508865126E+03 0.  0.
          5    1    3    3  502    0 -0.41049838731E+02  0.14828850871E+03 -0.70208035138E+03  0.71875507878E+03  0.41800000000E+01 0. -1.
         -5    1    3    3    0  502  0.63446927950E+02  0.47236635720E+02 -0.34395949610E+03  0.35296234895E+03  0.41800000000E+01 0.  1.
        -11    1    1    2    0    0  0.12857103591E+02 -0.34636026634E+02 -0.25568265200E+02  0.44929896941E+02  0.00000000000E+00 0. -1.
         11    1    1    2    0    0 -0.35254192810E+02 -0.16088911780E+03 -0.39865577842E+03  0.43134046414E+03  0.00000000000E+00 0.  1.
</event>
<event>
 7    1  0.2686828E-009  0.3153811E+03  0.7561462E-02  0.1077795E+00
         -1   -1    0    0    0  501 -0.00000000000E+00  0.00000000000E+00  0.14623889449E+03  0.14623889449E+03  0.00000000000E+00 0.  1.
          1   -1    0    0  501    0  0.00000000000E+00 -0.00000000000E+00 -0.69727756297E+03  0.69727756297E+03  0.00000000000E+00 0. -1.
         25    2    1    2    0    0  0.29658131710E+03 -0.30437921770E+02 -0.32978235814E+03  0.46183419011E+03  0.12508985043E+03 0.  0.
          5    1    3    3  502    0  0.11339499508E+03  0.49001131842E+02 -0.12486762922E+03  0.17569556926E+03  0.41800000000E+01 0.  1.
         -5    1    3    3    0  502  0.18318632203E+03 -0.79439053612E+02 -0.20491472892E+03  0.28613862086E+03  0.41800000000E+01 0.  1.
        -11    1    1    2    0    0 -0.64568321513E+02  0.38720126636E+02 -0.30602699265E+02  0.81270176277E+02  0.00000000000E+00 0. -1.
         11    1    1    2    0    0 -0.23201299559E+03 -0.82822048665E+01 -0.19065361108E+03  0.30041209106E+03  0.00000000000E+00 0.  1.
</event>
<event>
 7    1  0.2686828E-009  0.1057211E+03  0.7561462E-02  0.1268705E+00
          2   -1    0    0  501    0  0.00000000000E+00  0.00000000000E+00  0.84044004168E+02  0.84044004168E+02  0.00000000000E+00 0. -1.
         -2   -1    0    0    0  501 -0.00000000000E+00 -0.00000000000E+00 -0.18432814399E+03  0.18432814399E+03  0.00000000000E+00 0.  1.
         25    2    1    2    0    0 -0.85697408594E+01 -0.59395054808E+02 -0.77760101664E+02  0.15904480082E+03  0.12508957695E+03 0.  0.
          5    1    3    3  502    0 -0.35498223337E+02 -0.88875639083E+02 -0.68719095056E+02  0.11789312748E+03  0.41800000000E+01 0. -1.
         -5    1    3    3    0  502  0.26928482477E+02  0.29480584275E+02 -0.90410066086E+01  0.41151673334E+02  0.41800000000E+01 0. -1.
        -11    1    1    2    0    0  0.26975313179E+02  0.26537066276E+02  0.27451982176E+02  0.46749275214E+02  0.00000000000E+00 0. -1.
         11    1    1    2    0    0 -0.18405572319E+02  0.32857988531E+02 -0.49976020336E+02  0.62578072129E+02  0.00000000000E+00 0.  1.
</event>
<event>
 7    1  0.2686828E-009  0.9151617E+02  0.7561462E-02  0.1299221E+00
         -1   -1    0    0    0  501 -0.00000000000E+00  0.00000000000E+00  0.28484111173E+02  0.28484111173E+02  0.00000000000E+00 0.  1.
          1   -1    0    0  501    0  0.00000000000E+00 -0.00000000000E+00 -0.92597739790E+03  0.92597739790E+03  0.00000000000E+00 0. -1.
         25    2    1    2    0    0 -0.47463533665E+02 -0.11647833600E+02 -0.80353621469E+03  0.81468181218E+03  0.12509015834E+03 0.  0.
          5    1    3    3  502    0  0.15028028746E+02 -0.58057816229E+01 -0.62791038544E+03  0.62813093643E+03  0.41800000000E+01 0. -1.
         -5    1    3    3    0  502 -0.62491562411E+02 -0.58420519770E+01 -0.17562582925E+03  0.18655087575E+03  0.41800000000E+01 0. -1.
        -11    1    1    2    0    0  0.48946606991E+02 -0.32859349462E+02 -0.52785634904E+02  0.79131728373E+02  0.00000000000E+00 0. -1.
         11    1    1    2    0    0 -0.14830733261E+01  0.44507183062E+02 -0.41171437126E+02  0.60647968520E+02  0.00000000000E+00 0.  1.
</event>
<event>
 7    1  0.2686828E-009  0.9297545E+02  0.7561462E-02  0.1295802E+00
          1   -1    0    0  501    0  0.00000000000E+00  0.00000000000E+00  0.40171098254E+03  0.40171098254E+03  0.00000000000E+00 0. -1.
         -1   -1    0    0    0  501 -0.00000000000E+00 -0.00000000000E+00 -0.39585358167E+02  0.39585358167E+02  0.00000000000E+00 0.  1.
         25    2    1    2    0    0 -0.39002243957E+02  0.49444029332E+02  0.22637131587E+03  0.26618790056E+03  0.12508452616E+03 0.  0.
          5    1    3    3  502    0 -0.57977474132E+02  0.42209882351E+02  0.23347096057E+03  0.24427284643E+03  0.41800000000E+01 0.  1.
         -5    1    3    3    0  502  0.18975230175E+02  0.72341469811E+01 -0.70996446972E+01  0.21915054131E+02  0.41800000000E+01 0.  1.
        -11    1    1    2    0    0  0.47914743558E+02 -0.61766944691E+02  0.61922230210E+02  0.99726329026E+02  0.00000000000E+00 0.  1.
         11    1    1    2    0    0 -0.89124996006E+01  0.12322915359E+02  0.73832078296E+02  0.75382111124E+02  0.00000000000E+00 0. -1.
</event>
<event>
 7    1  0.2686828E-009  0.1336527E+03  0.7561462E-02  0.1222134E+00
          2   -1    0    0  501    0  0.00000000000E+00  0.00000000000E+00  0.38664001773E+03  0.38664001773E+03  0.00000000000E+00 0. -1.
         -2   -1    0    0    0  501 -0.00000000000E+00 -0.00000000000E+00 -0.76641347604E+02  0.76641347604E+02  0.00000000000E+00 0.  1.
         25    2    1    2    0    0 -0.94432386596E+02  0.43270701291E+02  0.25634093368E+03  0.30355837611E+03  0.12508870532E+03 0.  0.
          5    1    3    3  502    0 -0.58379281638E+02 -0.30295091207E+02  0.17927267834E+03  0.19100287609E+03  0.41800000000E+01 0. -1.
         -5    1    3    3    0  502 -0.36053104957E+02  0.73565792498E+02  0.77068255337E+02  0.11255550001E+03  0.41800000000E+01 0. -1.
        -11    1    1    2    0    0  0.52242461114E+01 -0.28465118315E+02 -0.26231752881E+02  0.39059705161E+02  0.00000000000E+00 0.  1.
         11    1    1    2    0    0  0.89208140485E+02 -0.14805582976E+02  0.79889489323E+02  0.12066328406E+03  0.00000000000E+00 0. -1.
</event>
<event>
 7    1  0.2686828E-009  0.8182284E+02  0.7561462E-02  0.1323957E+00
          1   -1    0    0  501    0  0.00000000000E+00  0.00000000000E+00  0.80731955463E+02  0.80731955463E+02  0.00000000000E+00 0. -1.
         -1   -1    0    0    0  501 -0.00000000000E+00 -0.00000000000E+00 -0.18308592561E+03  0.18308592561E+03  0.00000000000E+00 0.  1.
         25    2    1    2    0    0 -0.41462609685E+02 -0.33439378586E+02 -0.70789875494E+02  0.15328146129E+03  0.12508660943E+03 0.  0.
          5    1    3    3  502    0 -0.35834885590E+02 -0.17019576149E+02 -0.10629854712E+03  0.11353703588E+03  0.41800000000E+01 0. -1.
         -5    1    3    3    0  502 -0.56277240949E+01 -0.16419802437E+02  0.35508671621E+02  0.39744425406E+02  0.41800000000E+01 0. -1.
        -11    1    1    2    0    0  0.27735423762E+02  0.65443060988E+02 -0.22473517268E+02  0.74546005534E+02  0.00000000000E+00 0.  1.
         11    1    1    2    0    0  0.13727185923E+02 -0.32003682403E+02 -0.90905773808E+01  0.35990414249E+02  0.00000000000E+00 0. -1.
</event>
<event>
 7    1  0.2686828E-009  0.8635794E+02  0.7561462E-02  0.1311919E+00
         -4   -1    0    0    0  501 -0.00000000000E+00  0.00000000000E+00  0.78657668448E+02  0.78657668448E+02  0.00000000000E+00 0.  1.
          4   -1    0    0  501    0  0.00000000000E+00 -0.00000000000E+00 -0.16677385230E+03  0.16677385230E+03  0.00000000000E+00 0. -1.
         25    2    1    2    0    0  0.34866091538E+02  0.59122935457E+01 -0.56229523693E+02  0.14163539330E+03  0.12509286849E+03 0.  0.
          5    1    3    3  502    0 -0.38945973149E+02 -0.21465260657E+02 -0.42418158324E+02  0.61598042137E+02  0.41800000000E+01 0.  1.
         -5    1    3    3    0  502  0.73812064687E+02  0.27377554203E+02 -0.13811365369E+02  0.80037351161E+02  0.41800000000E+01 0.  1.
        -11    1    1    2    0    0 -0.36013112543E+02  0.66305232908E+01  0.25771642457E+02  0.44778182959E+02  0.00000000000E+00 0.  1.
         11    1    1    2    0    0  0.11470210057E+01 -0.12542816836E+02 -0.57658302613E+02  0.59017944488E+02  0.00000000000E+00 0. -1.
</event>
<event>
 7    1  0.2686828E-009  0.1695184E+03  0.7561462E-02  0.1178351E+00
         -1   -1    0    0    0  501 -0.00000000000E+00  0.00000000000E+00  0.81376312701E+03  0.81376312701E+03  0.00000000000E+00 0.  1.
          1   -1    0    0  501    0  0.00000000000E+00 -0.00000000000E+00 -0.55658094347E+02  0.55658094347E+02  0.00000000000E+00 0. -1.
         25    2    1    2    0    0  0.11621381799E+03  0.70836705652E+02  0.64226179877E+03  0.66833415675E+03  0.12508731578E+03 0.  0.
          5    1    3    3  502    0  0.49572074779E+02 -0.32134753641E+02  0.15715647029E+03  0.16794541239E+03  0.41800000000E+01 0.  1.
         -5    1    3    3    0  502  0.66641743209E+02  0.10297145929E+03  0.48510532848E+03  0.50038874436E+03  0.41800000000E+01 0.  1.
        -11    1    1    2    0    0 -0.40391020046E+02  0.14514893540E+02  0.60593973922E+02  0.74254604642E+02  0.00000000000E+00 0.  1.
         11    1    1    2    0    0 -0.75822797942E+02 -0.85351599192E+02  0.55249259974E+02  0.12683245996E+03  0.00000000000E+00 0. -1.
</event>
<event>
 7    1  0.2686828E-009  0.9813370E+02  0.7561462E-02  0.1284270E+00
          2   -1    0    0  501    0  0.00000000000E+00  0.00000000000E+00  0.20793768013E+04  0.20793768013E+04  0.00000000000E+00 0. -1.
         -2   -1    0    0    0  501 -0.00000000000E+00 -0.00000000000E+00 -0.14724494461E+02  0.14724494461E+02  0.00000000000E+00 0.  1.
         25    2    1    2    0    0  0.42376006662E+02  0.10633081673E+02  0.18738776919E+04  0.18785567276E+04  0.12509590763E+03 0.  0.
          5    1    3    3  502    0  0.18600330870E+01  0.52901850253E+02  0.14072501975E+04  0.14082516310E+04  0.41800000000E+01 0. -1.
         -5    1    3    3    0  502  0.40515973575E+02 -0.42268768580E+02  0.46662749440E+03  0.47030509655E+03  0.41800000000E+01 0. -1.
        -11    1    1    2    0    0  0.54363608684E+01  0.24525383379E+02  0.13329882092E+02  0.28438252512E+02  0.00000000000E+00 0.  1.
         11    1    1    2    0    0 -0.47812367531E+02 -0.35158465052E+02  0.17744473283E+03  0.18710631566E+03  0.00000000000E+00 0. -1.
</event>
<event>
 7    1  0.2686828E-009  0.3055694E+03  0.7561462E-02  0.1082489E+00
         -2   -1    0    0    0  501 -0.00000000000E+00  0.00000000000E+00  0.92431951030E+02  0.92431951030E+02  0.00000000000E+00 0.  1.
          2   -1    0    0  501    0  0.00000000000E+00 -0.00000000000E+00 -0.12978316415E+04  0.12978316415E+04  0.00000000000E+00 0. -1.
         25    2    1    2    0    0  0.78826079870E+02  0.29007711695E+03 -0.88016650610E+03  0.93845589154E+03  0.12509235496E+03 0.  0.
          5    1    3    3  502    0  0.92627908180E+02  0.26088473222E+03 -0.65744246842E+03  0.71336445423E+03  0.41800000000E+01 0.  1.
         -5    1    3    3    0  502 -0.13801828310E+02  0.29192384730E+02 -0.22272403768E+03  0.22509143731E+03  0.41800000000E+01 0.  1.
        -11    1    1    2    0    0 -0.51716328417E+02 -0.14101712497E+03 -0.22362315005E+03  0.26938396649E+03  0.00000000000E+00 0. -1.
         11    1    1    2    0    0 -0.27109751453E+02 -0.14905999198E+03 -0.10161003430E+03  0.18242373448E+03  0.00000000000E+00 0.  1.
</event>
<event>
 7    1  0.2686828E-009  0.1189321E+03  0.7561462E-02  0.1244869E+00
         -3   -1    0    0    0  501 -0.00000000000E+00  0.00000000000E+00  0.49267295585E+03  0.49267295585E+03  0.00000000000E+00 0.  1.
          3   -1    0    0  501    0  0.00000000000E+00 -0.00000000000E+00 -0.45585927773E+02  0.45585927773E+02  0.00000000000E+00 0. -1.
         25    2    1    2    0    0 -0.61078923675E+02 -0.62183040576E+02  0.33620839922E+03  0.36916352096E+03  0.12509297361E+03 0.  0.
          5    1    3    3  502    0  0.34956835458E+01 -0.78326342606E+02  0.12442190552E+03  0.14712416091E+03  0.41800000000E+01 0. -1.
         -5    1    3    3    0  502 -0.64574607221E+02  0.16143302030E+02  0.21178649370E+03  0.22203936005E+03  0.41800000000E+01 0. -1.
        -11    1    1    2    0    0  0.53672671335E+02  0.34046137184E+02  0.12230663855E+03  0.13783616702E+03  0.00000000000E+00 0.  1.
         11    1    1    2    0    0  0.74062523405E+01  0.28136903392E+02 -0.11428009700E+02  0.31259195638E+02  0.00000000000E+00 0. -1.
</event>
<event>
 7    1  0.2686828E-009  0.4761249E+03  0.7561462E-02  0.1020206E+00
         -2   -1    0    0    0  501 -0.00000000000E+00  0.00000000000E+00  0.62094254051E+03  0.62094254051E+03  0.00000000000E+00 0.  1.
          2   -1    0    0  501    0  0.00000000000E+00 -0.00000000000E+00 -0.58241902198E+03  0.58241902198E+03  0.00000000000E+00 0. -1.
         25    2    1    2    0    0 -0.85205614868E+02  0.46633640355E+03  0.37290157678E+03  0.61598220138E+03  0.12509535713E+03 0.  0.
          5    1    3    3  502    0 -0.90068335141E+02  0.42640050447E+03  0.37573768084E+03  0.57543546329E+03  0.41800000000E+01 0. -1.
         -5    1    3    3    0  502  0.48627202732E+01  0.39935899079E+02 -0.28361040610E+01  0.40546738093E+02  0.41800000000E+01 0. -1.
        -11    1    1    2    0    0  0.48897635926E+02 -0.15508258277E+03 -0.16288127146E+03  0.23015624013E+03  0.00000000000E+00 0.  1.
         11    1    1    2    0    0  0.36307978942E+02 -0.31125382078E+03 -0.17149678678E+03  0.35722312098E+03  0.00000000000E+00 0. -1.
</event>
<event>
 7    1  0.2686828E-009  0.1500664E+03  0.7561462E-02  0.1200391E+00
          1   -1    0    0  501    0  0.00000000000E+00  0.00000000000E+00  0.12816874377E+03  0.12816874377E+03  0.00000000000E+00 0. -1.
         -1   -1    0    0    0  501 -0.00000000000E+00 -0.00000000000E+00 -0.20048990351E+03  0.20048990351E+03  0.00000000000E+00 0.  1.
         25    2    1    2    0    0  0.62496644116E+02 -0.90162779878E+02 -0.68309538238E+02  0.17985708324E+03  0.12508884834E+03 0.  0.
          5    1    3    3  502    0  0.98224587338E+02 -0.70611420661E+02 -0.32166610339E+02  0.12524458274E+03  0.41800000000E+01 0. -1.
         -5    1    3    3    0  502 -0.35727943222E+02 -0.19551359217E+02 -0.36142927899E+02  0.54612500503E+02  0.41800000000E+01 0. -1.
        -11    1    1    2    0    0 -0.74257787647E+02  0.35633958578E+02  0.24799915558E+02  0.86017636807E+02  0.00000000000E+00 0. -1.
         11    1    1    2    0    0  0.11761143531E+02  0.54528821300E+02 -0.28811537061E+02  0.62783927221E+02  0.00000000000E+00 0.  1.
</event>
<event>
 7    1  0.2686828E-009  0.1293153E+03  0.7561462E-02  0.1228475E+00
          2   -1    0    0  501    0  0.00000000000E+00  0.00000000000E+00  0.10467063341E+04  0.10467063341E+04  0.00000000000E+00 0. -1.
         -2   -1    0    0    0  501 -0.00000000000E+00 -0.00000000000E+00 -0.25644945959E+02  0.25644945959E+02  0.00000000000E+00 0.  1.
         25    2    1    2    0    0 -0.61299108569E+01 -0.79391033214E+02  0.84826552238E+03  0.86113004357E+03  0.12510013400E+03 0.  0.
          5    1    3    3  502    0  0.21876582942E+02  0.28514354299E+02  0.24128983128E+03  0.24398751681E+03  0.41800000000E+01 0. -1.
         -5    1    3    3    0  502 -0.28006493799E+02 -0.10790538751E+03  0.60697569110E+03  0.61714252676E+03  0.41800000000E+01 0. -1.
        -11    1    1    2    0    0  0.39171397319E+02  0.22702660537E+02  0.11569960323E+03  0.12424253439E+03  0.00000000000E+00 0.  1.
         11    1    1    2    0    0 -0.33041486462E+02  0.56688372677E+02  0.57096262544E+02  0.86978702110E+02  0.00000000000E+00 0. -1.
</event>
<event>
 7    1  0.2686828E-009  0.1744952E+03  0.7561462E-02  0.1173240E+00
         -1   -1    0    0    0  501 -0.00000000000E+00  0.00000000000E+00  0.18697826828E+03  0.18697826828E+03  0.00000000000E+00 0.  1.
          1   -1    0    0  501    0  0.00000000000E+00 -0.00000000000E+00 -0.18803113945E+03  0.18803113945E+03  0.00000000000E+00 0. -1.
         25    2    1    2    0    0 -0.81502878966E+02  0.12520290332E+03  0.29950018152E+02  0.19713752677E+03  0.12509082538E+03 0.  0.
          5    1    3    3  502    0 -0.91022181519E+02  0.13497304299E+03  0.51933109597E+02  0.17093062960E+03  0.41800000000E+01 0. -1.
         -5    1    3    3    0  502  0.95193025530E+01 -0.97701396634E+01 -0.21983091445E+02  0.26206897176E+02  0.41800000000E+01 0. -1.
        -11    1    1    2    0    0 -0.30282707997E+00  0.12069629633E+02  0.65263884562E+01  0.13724482140E+02  0.00000000000E+00 0.  1.
         11    1    1    2    0    0  0.81805706046E+02 -0.13727253296E+03 -0.37529277779E+02  0.16414739881E+03  0.00000000000E+00 0. -1.
</event>
<event>
 7    1  0.2686828E-009  0.1028971E+03  0.7561462E-02  0.1274319E+00
         -3   -1    0    0    0  501 -0.00000000000E+00  0.00000000000E+00  0.47273664970E+03  0.47273664970E+03  0.00000000000E+00 0.  1.
          3   -1    0    0  501    0  0.00000000000E+00 -0.00000000000E+00 -0.29482511015E+02  0.29482511015E+02  0.00000000000E+00 0. -1.
         25    2    1    2    0    0 -0.16953902509E+02  0.16775981410E+02  0.34492134795E+03  0.36767899294E+03  0.12509291431E+03 0.  0.
          5    1    3    3  502    0 -0.30829357402E+02  0.60718111883E+02  0.27846930076E+03  0.28670500912E+03  0.41800000000E+01 0. -1.
         -5    1    3    3    0  502  0.13875454893E+02 -0.43942130472E+02  0.66452047191E+02  0.80973983814E+02  0.41800000000E+01 0. -1.
        -11    1    1    2    0    0 -0.44657478519E+01  0.34991663767E+02  0.31123622507E+02  0.47042951810E+02  0.00000000000E+00 0. -1.
         11    1    1    2    0    0  0.21419650361E+02 -0.51767645178E+02  0.67209168227E+02  0.87497215971E+02  0.00000000000E+00 0.  1.
</event>
<event>
 7    1  0.2686828E-009  0.1278577E+03  0.7561462E-02  0.1230670E+00
          1   -1    0    0  501    0  0.00000000000E+00  0.00000000000E+00  0.45626617643E+03  0.45626617643E+03  0.00000000000E+00 0. -1.
         -1   -1    0    0    0  501 -0.00000000000E+00 -0.00000000000E+00 -0.61808292170E+02  0.61808292170E+02  0.00000000000E+00 0.  1.
         25    2    1    2    0    0  0.12220215959E+03 -0.16448607134E+02  0.15944732985E+03  0.23722517949E+03  0.12509360616E+03 0.  0.
          5    1    3    3  502    0  0.67608614980E+02 -0.29437003377E+02  0.16490414867E+03  0.18068844080E+03  0.41800000000E+01 0. -1.
         -5    1    3    3    0  502  0.54593544613E+02  0.12988396242E+02 -0.54568188273E+01  0.56536738693E+02  0.41800000000E+01 0. -1.
        -11    1    1    2    0    0 -0.89572987826E+02  0.12301682878E+01  0.74982960102E+02  0.11682156380E+03  0.00000000000E+00 0.  1.
         11    1    1    2    0    0 -0.32629171766E+02  0.15218438847E+02  0.16002759431E+03  0.16402772531E+03  0.00000000000E+00 0. -1.
</event>
<event>
 7    1  0.2686828E-009  0.1458140E+03  0.7561462E-02  0.1205713E+00
          2   -1    0    0  501    0  0.00000000000E+00  0.00000000000E+00  0.65218443308E+02  0.65218443308E+02  0.00000000000E+00 0. -1.
         -2   -1    0    0    0  501 -0.00000000000E+00 -0.00000000000E+00 -0.56456681121E+03  0.56456681121E+03  0.00000000000E+00 0.  1.
         25    2    1    2    0    0  0.97724476132E+02  0.67252665808E+01 -0.63808460950E+02  0.17121174925E+03  0.12508653383E+03 0.  0.
          5    1    3    3  502    0  0.65202442729E+02  0.60179867435E+02 -0.62274410936E+02  0.10848294631E+03  0.41800000000E+01 0.  1.
         -5    1    3    3    0  502  0.32522033404E+02 -0.53454600854E+02 -0.15340500138E+01  0.62728802942E+02  0.41800000000E+01 0.  1.
        -11    1    1    2    0    0 -0.93789889079E+02  0.33559629430E+02 -0.26004267479E+03  0.27846900139E+03  0.00000000000E+00 0.  1.
         11    1    1    2    0    0 -0.39345870530E+01 -0.40284896011E+02 -0.17549723215E+03  0.18010450387E+03  0.00000000000E+00 0. -1.
</event>
<event>
 7    1  0.2686828E-009  0.1589581E+03  0.7561462E-02  0.1189878E+00
          2   -1    0    0  501    0  0.00000000000E+00  0.00000000000E+00  0.17707537486E+03  0.17707537486E+03  0.00000000000E+00 0. -1.
         -2   -1    0    0    0  501 -0.00000000000E+00 -0.00000000000E+00 -0.17025551887E+03  0.17025551887E+03  0.00000000000E+00 0.  1.
         25    2    1    2    0    0  0.11097788725E+03 -0.10095213896E+03  0.66612010287E+01  0.19544384235E+03  0.12508596281E+03 0.  0.
          5    1    3    3  502    0  0.70538100396E+02 -0.15193751822E+02  0.53195470918E+02  0.89742432707E+02  0.41800000000E+01 0.  1.
         -5    1    3    3    0  502  0.40439786850E+02 -0.85758387142E+02 -0.46534269889E+02  0.10570140964E+03  0.41800000000E+01 0.  1.
        -11    1    1    2    0    0 -0.95215906594E+02  0.79082458587E+02  0.73313562456E+01  0.12399134207E+03  0.00000000000E+00 0.  1.
         11    1    1    2    0    0 -0.15761980652E+02  0.21869680378E+02 -0.71727012861E+01  0.27895709305E+02  0.00000000000E+00 0. -1.
</event>
<event>
 7    1  0.2686828E-009  0.1546819E+03  0.7561462E-02  0.1194835E+00
         -2   -1    0    0    0  501 -0.00000000000E+00  0.00000000000E+00  0.15328273673E+02  0.15328273673E+02  0.00000000000E+00 0.  1.
          2   -1    0    0  501    0  0.00000000000E+00 -0.00000000000E+00 -0.22608302854E+04  0.22608302854E+04  0.00000000000E+00 0. -1.
         25    2    1    2    0    0  0.13523096972E+03  0.79005883560E+01 -0.16014542765E+04  0.16120338348E+04  0.12508976908E+03 0.  0.
          5    1    3    3  502    0  0.12937560692E+02 -0.25570745961E+02 -0.80659462287E+03  0.80711436710E+03  0.41800000000E+01 0. -1.
         -5    1    3    3    0  502  0.12229340903E+03  0.33471334317E+02 -0.79485965365E+03  0.80491946771E+03  0.41800000000E+01 0. -1.
        -11    1    1    2    0    0 -0.64494240518E+02  0.32353784305E+02 -0.41071218813E+03  0.41700212937E+03  0.00000000000E+00 0. -1.
         11    1    1    2    0    0 -0.70736729203E+02 -0.40254372661E+02 -0.23333554706E+03  0.24712259487E+03  0.00000000000E+00 0.  1.
</event>
<event>
 7    1  0.2686828E-009  0.1467368E+03  0.7561462E-02  0.1204541E+00
          2   -1    0    0  501    0  0.00000000000E+00  0.00000000000E+00  0.83799946496E+03  0.83799946496E+03  0.00000000000E+00 0.  1.
         -2   -1    0    0    0  501 -0.00000000000E+00 -0.00000000000E+00 -0.30214712726E+02  0.30214712726E+02  0.00000000000E+00 0. -1.
         25    2    1    2    0    0 -0.10391086583E+03  0.14877551963E+02  0.29287467203E+03  0.33532373316E+03  0.12509045891E+03 0.  0.
          5    1    3    3  502    0  0.57368215711E+01  0.43229344536E+02  0.12771774645E+03  0.13502215562E+03  0.41800000000E+01 0.  1.
         -5    1    3    3    0  502 -0.10964768741E+03 -0.28351792574E+02  0.16515692558E+03  0.20030157753E+03  0.41800000000E+01 0.  1.
        -11    1    1    2    0    0  0.18113505244E+02  0.33320676252E+02  0.17247532376E+03  0.17659587720E+03  0.00000000000E+00 0.  1.
         11    1    1    2    0    0  0.85797360590E+02 -0.48198228215E+02  0.34243475645E+03  0.35629456734E+03  0.00000000000E+00 0. -1.
</event>
<event>
 7    1  0.2686828E-009  0.1661721E+03  0.7561462E-02  0.1181900E+00
          4   -1    0    0  501    0  0.00000000000E+00  0.00000000000E+00  0.10234378728E+03  0.10234378728E+03  0.00000000000E+00 0. -1.
         -4   -1    0    0    0  501 -0.00000000000E+00 -0.00000000000E+00 -0.35482731222E+03  0.35482731222E+03  0.00000000000E+00 0.  1.
         25    2    1    2    0    0  0.15236269037E+03  0.27157290658E+02 -0.12336501432E+03  0.23413221211E+03  0.12508820143E+03 0.  0.
          5    1    3    3  502    0  0.21881374312E+02  0.39510896497E+02 -0.86899387983E+02  0.98024902528E+02  0.41800000000E+01 0.  1.
         -5    1    3    3    0  502  0.13048131606E+03 -0.12353605839E+02 -0.36465626338E+02  0.13610730958E+03  0.41800000000E+01 0.  1.
        -11    1    1    2    0    0 -0.28730023812E+02  0.21016100720E+01 -0.83037619072E+02  0.87892418411E+02  0.00000000000E+00 0.  1.
         11    1    1    2    0    0 -0.12363266656E+03 -0.29258900730E+02 -0.46080891550E+02  0.13514646898E+03  0.00000000000E+00 0. -1.
</event>
<event>
 7    1  0.2686828E-009  0.1095173E+03  0.7561462E-02  0.1261466E+00
          1   -1    0    0  501    0  0.00000000000E+00  0.00000000000E+00  0.12171653330E+03  0.12171653330E+03  0.00000000000E+00 0. -1.
         -1   -1    0    0    0  501 -0.00000000000E+00 -0.00000000000E+00 -0.12933186429E+03  0.12933186429E+03  0.00000000000E+00 0.  1.
         25    2    1    2    0    0  0.39233793098E+02  0.27747392854E+02 -0.44635554543E+02  0.14123635886E+03  0.12508464336E+03 0.  0.
          5    1    3    3  502    0  0.69237642742E+02  0.48638156632E+02 -0.57349697070E+02  0.10230338023E+03  0.41800000000E+01 0. -1.
         -5    1    3    3    0  502 -0.30003849644E+02 -0.20890763777E+02  0.12714142527E+02  0.38932978628E+02  0.41800000000E+01 0. -1.
        -11    1    1    2    0    0 -0.50244388639E+02 -0.51122860301E+02  0.99123126229E+01  0.72362278686E+02  0.00000000000E+00 0. -1.
         11    1    1    2    0    0  0.11010595541E+02  0.23375467446E+02  0.27107910930E+02  0.37449760046E+02  0.00000000000E+00 0.  1.
</event>
<event>
 7    1  0.2686828E-009  0.1486619E+03  0.7561462E-02  0.1202127E+00
         -2   -1    0    0    0  501 -0.00000000000E+00  0.00000000000E+00  0.40161934632E+02  0.40161934632E+02  0.00000000000E+00 0.  1.
          2   -1    0    0  501    0  0.00000000000E+00 -0.00000000000E+00 -0.74082469292E+03  0.74082469292E+03  0.00000000000E+00 0. -1.
         25    2    1    2    0    0 -0.27281599968E+02  0.11802436870E+03 -0.24333403882E+03  0.29922106931E+03  0.12509099314E+03 0.  0.
          5    1    3    3  502    0  0.28395569823E+02  0.91002512956E+02 -0.20547637824E+03  0.22655193701E+03  0.41800000000E+01 0. -1.
         -5    1    3    3    0  502 -0.55677169790E+02  0.27021855744E+02 -0.37857660579E+02  0.72669132293E+02  0.41800000000E+01 0. -1.
        -11    1    1    2    0    0  0.47770513799E+02 -0.51405830807E+02 -0.32182829113E+03  0.32939039209E+03  0.00000000000E+00 0.  1.
         11    1    1    2    0    0 -0.20488913831E+02 -0.66618537893E+02 -0.13550042834E+03  0.15237516616E+03  0.00000000000E+00 0. -1.
</event>
<event>
 7    1  0.2686828E-009  0.9649493E+02  0.7561462E-02  0.1287844E+00
         -1   -1    0    0    0  501 -0.00000000000E+00  0.00000000000E+00  0.30311670072E+03  0.30311670072E+03  0.00000000000E+00 0.  1.
          1   -1    0    0  501    0  0.00000000000E+00 -0.00000000000E+00 -0.51109258203E+02  0.51109258203E+02  0.00000000000E+00 0. -1.
         25    2    1    2    0    0 -0.56561621166E+02 -0.17358536939E+02  0.14743719284E+03  0.20220432800E+03  0.12509327974E+03 0.  0.
          5    1    3    3  502    0 -0.68065511983E+02 -0.27612583680E+02  0.16366324128E+03  0.17943939826E+03  0.41800000000E+01 0. -1.
         -5    1    3    3    0  502  0.11503890817E+02  0.10254046740E+02 -0.16226048440E+02  0.22764929748E+02  0.41800000000E+01 0. -1.
        -11    1    1    2    0    0  0.67953155820E+02  0.39464743474E+02  0.53047352470E+02  0.94810964384E+02  0.00000000000E+00 0. -1.
         11    1    1    2    0    0 -0.11391534655E+02 -0.22106206535E+02  0.51522897202E+02  0.57210666534E+02  0.00000000000E+00 0.  1.
</event>
<event>
 7    1  0.2686828E-009  0.7593592E+02  0.7561462E-02  0.1340997E+00
         -1   -1    0    0    0  501 -0.00000000000E+00  0.00000000000E+00  0.32433749145E+02  0.32433749145E+02  0.00000000000E+00 0.  1.
          1   -1    0    0  501    0  0.00000000000E+00 -0.00000000000E+00 -0.45869396561E+03  0.45869396561E+03  0.00000000000E+00 0. -1.
         25    2    1    2    0    0 -0.61954878826E+01 -0.58135943920E+02 -0.26434522891E+03  0.29822670088E+03  0.12507035228E+03 0.  0.
          5    1    3    3  502    0 -0.68643953435E+01 -0.50022803919E+02 -0.21218996215E+02  0.54928308145E+02  0.41800000000E+01 0.  1.
         -5    1    3    3    0  502  0.66890746086E+00 -0.81131400010E+01 -0.24312623270E+03  0.24329839273E+03  0.41800000000E+01 0.  1.
        -11    1    1    2    0    0 -0.92895842314E+01  0.71195850398E+02 -0.75684082378E+02  0.10432270038E+03  0.00000000000E+00 0.  1.
         11    1    1    2    0    0  0.15485072114E+02 -0.13059906478E+02 -0.86230905168E+02  0.88578313495E+02  0.00000000000E+00 0. -1.
</event>
<event>
 7    1  0.2686828E-009  0.1026224E+03  0.7561462E-02  0.1274876E+00
         -2   -1    0    0    0  501 -0.00000000000E+00  0.00000000000E+00  0.16601970056E+02  0.16601970056E+02  0.00000000000E+00 0.  1.
          2   -1    0    0  501    0  0.00000000000E+00 -0.00000000000E+00 -0.13319494657E+04  0.13319494657E+04  0.00000000000E+00 0. -1.
         25    2    1    2    0    0 -0.51845467619E+02 -0.43117151454E+02 -0.10569402245E+04  0.10664523881E+04  0.12510402263E+03 0.  0.
          5    1    3    3  502    0 -0.14011201065E+02  0.18359939795E+02 -0.77604583603E+03  0.77640067823E+03  0.41800000000E+01 0. -1.
         -5    1    3    3    0  502 -0.37834266554E+02 -0.61477091249E+02 -0.28089438852E+03  0.29005170983E+03  0.41800000000E+01 0. -1.
        -11    1    1    2    0    0  0.30600659721E+02  0.69296243665E+02 -0.14244254006E+03  0.16133272136E+03  0.00000000000E+00 0.  1.
         11    1    1    2    0    0  0.21244807898E+02 -0.26179092211E+02 -0.11596473099E+03  0.12076632629E+03  0.00000000000E+00 0. -1.
</event>
<event>
 7    1  0.2686828E-009  0.1694024E+03  0.7561462E-02  0.1178472E+00
         -2   -1    0    0    0  501 -0.00000000000E+00  0.00000000000E+00  0.16655059969E+02  0.16655059969E+02  0.00000000000E+00 0. -1.
          2   -1    0    0  501    0  0.00000000000E+00 -0.00000000000E+00 -0.20696478900E+04  0.20696478900E+04  0.00000000000E+00 0.  1.
         25    2    1    2    0    0 -0.16816954404E+02  0.13256281387E+03 -0.14588113561E+04  0.14702494259E+04  0.12508833614E+03 0.  0.
          5    1    3    3  502    0  0.39269023803E+02  0.10969787973E+03 -0.11189804568E+04  0.11250379621E+04  0.41800000000E+01 0. -1.
         -5    1    3    3    0  502 -0.56085978206E+02  0.22864934139E+02 -0.33983089931E+03  0.34521146373E+03  0.41800000000E+01 0. -1.
        -11    1    1    2    0    0  0.54232529074E+02 -0.69213539855E+02 -0.36021121373E+03  0.37078807937E+03  0.00000000000E+00 0.  1.
         11    1    1    2    0    0 -0.37415574670E+02 -0.63349274018E+02 -0.23397026020E+03  0.24526544478E+03  0.00000000000E+00 0. -1.
</event>
<event>
 7    1  0.2686828E-009  0.1035485E+03  0.7561462E-02  0.1273006E+00
         -2   -1    0    0    0  501 -0.00000000000E+00  0.00000000000E+00  0.12586753776E+03  0.12586753776E+03  0.00000000000E+00 0. -1.
          2   -1    0    0  501    0  0.00000000000E+00 -0.00000000000E+00 -0.12898767106E+03  0.12898767106E+03  0.00000000000E+00 0.  1.
         25    2    1    2    0    0 -0.50513946766E+02 -0.34929288916E+02  0.27296239029E+02  0.14199731695E+03  0.12508572786E+03 0.  0.
          5    1    3    3  502    0 -0.16642579975E+02  0.31519728251E+02 -0.30856810432E+02  0.47329524478E+02  0.41800000000E+01 0. -1.
         -5    1    3    3    0  502 -0.33871366791E+02 -0.66449017167E+02  0.58153049461E+02  0.94667792476E+02  0.41800000000E+01 0. -1.
        -11    1    1    2    0    0  0.10060717793E+02  0.51734222276E+02  0.95486536825E+01  0.53561409468E+02  0.00000000000E+00 0. -1.
         11    1    1    2    0    0  0.40453228973E+02 -0.16804933360E+02 -0.39965026012E+02  0.59296482389E+02  0.00000000000E+00 0.  1.
</event>
<event>
 7    1  0.2686828E-009  0.9189027E+02  0.7561462E-02  0.1298338E+00
          2   -1    0    0  501    0  0.00000000000E+00  0.00000000000E+00  0.12099384243E+03  0.12099384243E+03  0.00000000000E+00 0. -1.
         -2   -1    0    0    0  501 -0.00000000000E+00 -0.00000000000E+00 -0.16435833655E+03  0.16435833655E+03  0.00000000000E+00 0.  1.
         25    2    1    2    0    0 -0.59740576205E+02 -0.86983105064E+01 -0.90130729050E+02  0.16556664997E+03  0.12507665734E+03 0.  0.
          5    1    3    3  502    0 -0.29560446584E+02  0.16639291209E+02  0.25946779134E+02  0.42911464222E+02  0.41800000000E+01 0.  1.
         -5    1    3    3    0  502 -0.30180129621E+02 -0.25337601716E+02 -0.11607750818E+03  0.12265518575E+03  0.41800000000E+01 0.  1.
        -11    1    1    2    0    0  0.60078061436E+02  0.44128538854E+02  0.35808692875E+02  0.82698028349E+02  0.00000000000E+00 0.  1.
         11    1    1    2    0    0 -0.33748523097E+00 -0.35430228348E+02  0.10957542055E+02  0.37087500657E+02  0.00000000000E+00 0. -1.
</event>
<event>
 7    1  0.2686828E-009  0.1083281E+03  0.7561462E-02  0.1263698E+00
          1   -1    0    0  501    0  0.00000000000E+00  0.00000000000E+00  0.33692658633E+03  0.33692658633E+03  0.00000000000E+00 0. -1.
         -1   -1    0    0    0  501 -0.00000000000E+00 -0.00000000000E+00 -0.47653679244E+02  0.47653679244E+02  0.00000000000E+00 0.  1.
         25    2    1    2    0    0 -0.66589339165E+02 -0.15181991960E+02  0.14539524840E+03  0.20359713905E+03  0.12508950316E+03 0.  0.
          5    1    3    3  502    0 -0.78365339490E+02 -0.41182919915E+02  0.15015504665E+03  0.17435931222E+03  0.41800000000E+01 0. -1.
         -5    1    3    3    0  502  0.11776000325E+02  0.26000927955E+02 -0.47597982444E+01  0.29237826826E+02  0.41800000000E+01 0. -1.
        -11    1    1    2    0    0  0.75701837841E+02  0.30291426773E+02  0.78197838682E+02  0.11297451378E+03  0.00000000000E+00 0.  1.
         11    1    1    2    0    0 -0.91124986761E+01 -0.15109434812E+02  0.65679820004E+02  0.68008612750E+02  0.00000000000E+00 0. -1.
</event>
<event>
 7    1  0.2686828E-009  0.1160429E+03  0.7561462E-02  0.1249772E+00
          2   -1    0    0  501    0  0.00000000000E+00  0.00000000000E+00  0.13358924671E+03  0.13358924671E+03  0.00000000000E+00 0. -1.
         -2   -1    0    0    0  501 -0.00000000000E+00 -0.00000000000E+00 -0.17885492029E+03  0.17885492029E+03  0.00000000000E+00 0.  1.
         25    2    1    2    0    0 -0.92727618543E+02  0.24925315795E+02  0.30787248936E+02  0.16067002890E+03  0.12508925166E+03 0.  0.
          5    1    3    3  502    0 -0.11982882247E+02  0.17065255944E+02 -0.44873951158E+02  0.49658396268E+02  0.41800000000E+01 0. -1.
         -5    1    3    3    0  502 -0.80744736296E+02  0.78600598509E+01  0.75661200094E+02  0.11101163263E+03  0.41800000000E+01 0. -1.
        -11    1    1    2    0    0  0.66533157485E+02  0.26702789788E+02 -0.54279349474E+02  0.89921898372E+02  0.00000000000E+00 0. -1.
         11    1    1    2    0    0  0.26194461058E+02 -0.51628105583E+02 -0.21773573043E+02  0.61852239727E+02  0.00000000000E+00 0.  1.
</event>
<event>
 7    1  0.2686828E-009  0.1557447E+03  0.7561462E-02  0.1193586E+00
         -1   -1    0    0    0  501 -0.00000000000E+00  0.00000000000E+00  0.64050864339E+02  0.64050864339E+02  0.00000000000E+00 0.  1.
          1   -1    0    0  501    0  0.00000000000E+00 -0.00000000000E+00 -0.55998794894E+03  0.55998794894E+03  0.00000000000E+00 0. -1.
         25    2    1    2    0    0 -0.82965068023E+02 -0.11680261378E+03 -0.35910085600E+03  0.40635901410E+03  0.12509264753E+03 0.  0.
          5    1    3    3  502    0 -0.15774510251E+02 -0.46317442962E+02 -0.26958467205E+03  0.27402100011E+03  0.41800000000E+01 0.  1.
         -5    1    3    3    0  502 -0.67190557772E+02 -0.70485170815E+02 -0.89516183942E+02  0.13233801399E+03  0.41800000000E+01 0.  1.
        -11    1    1    2    0    0  0.48695832293E+02  0.61598530982E+01 -0.19533302388E+02  0.52827812514E+02  0.00000000000E+00 0.  1.
         11    1    1    2    0    0  0.34269235731E+02  0.11064276068E+03 -0.11730292621E+03  0.16485198666E+03  0.00000000000E+00 0. -1.
</event>
<event>
 7    1  0.2686828E-009  0.9513450E+02  0.7561462E-02  0.1290873E+00
         -2   -1    0    0    0  501 -0.00000000000E+00  0.00000000000E+00  0.41027419001E+02  0.41027419001E+02  0.00000000000E+00 0.  1.
          2   -1    0    0  501    0  0.00000000000E+00 -0.00000000000E+00 -0.35861071158E+03  0.35861071158E+03  0.00000000000E+00 0. -1.
         25    2    1    2    0    0 -0.15397906330E+02  0.43079058732E+02 -0.13348705138E+03  0.18857252349E+03  0.12509157809E+03 0.  0.
          5    1    3    3  502    0 -0.54857266992E+02  0.31923425817E+01 -0.14546669095E+02  0.56996392647E+02  0.41800000000E+01 0. -1.
         -5    1    3    3    0  502  0.39459360662E+02  0.39886716150E+02 -0.11894038228E+03  0.13157613084E+03  0.41800000000E+01 0. -1.
        -11    1    1    2    0    0 -0.20048765856E+02 -0.38166972746E+02 -0.16492829010E+03  0.17046997301E+03  0.00000000000E+00 0.  1.
         11    1    1    2    0    0  0.35446672186E+02 -0.49120859858E+01 -0.19167951102E+02  0.40595634091E+02  0.00000000000E+00 0. -1.
</event>
<event>
 7    1  0.2686828E-009  0.6779830E+02  0.7561462E-02  0.1367744E+00
         -4   -1    0    0    0  501 -0.00000000000E+00  0.00000000000E+00  0.75491814723E+02  0.75491814723E+02  0.00000000000E+00 0.  1.
          4   -1    0    0  501    0  0.00000000000E+00 -0.00000000000E+00 -0.16062203969E+03  0.16062203969E+03  0.00000000000E+00 0. -1.
         25    2    1    2    0    0  0.14445411927E+02 -0.85720889564E+01 -0.57425598640E+02  0.13866730598E+03  0.12509505079E+03 0.  0.
          5    1    3    3  502    0 -0.25654821032E+02  0.15124632088E+02 -0.80922957421E+02  0.86330306242E+02  0.41800000000E+01 0.  1.
         -5    1    3    3    0  502  0.40100232959E+02 -0.23696721044E+02  0.23497358781E+02  0.52336999735E+02  0.41800000000E+01 0.  1.
        -11    1    1    2    0    0  0.13251358548E+02 -0.16662288480E+02  0.24964693429E+02  0.32809545543E+02  0.00000000000E+00 0.  1.
         11    1    1    2    0    0 -0.27696770474E+02  0.25234377436E+02 -0.52669319756E+02  0.64637002892E+02  0.00000000000E+00 0. -1.
</event>
<event>
 7    1  0.2686828E-009  0.9716759E+02  0.7561462E-02  0.1286367E+00
         -4   -1    0    0    0  501 -0.00000000000E+00  0.00000000000E+00  0.47706184623E+02  0.47706184623E+02  0.00000000000E+00 0.  1.
          4   -1    0    0  501    0  0.00000000000E+00 -0.00000000000E+00 -0.29263424861E+03  0.29263424861E+03  0.00000000000E+00 0. -1.
         25    2    1    2    0    0  0.31100560544E+01 -0.42386924162E+02 -0.10163978841E+03  0.16668735635E+03  0.12509078459E+03 0.  0.
          5    1    3    3  502    0  0.44401218619E+02 -0.14801351552E+02  0.66724402563E+01  0.47460953231E+02  0.41800000000E+01 0. -1.
         -5    1    3    3    0  502 -0.41291162564E+02 -0.27585572610E+02 -0.10831222866E+03  0.11922640312E+03  0.41800000000E+01 0. -1.
        -11    1    1    2    0    0  0.29672991812E+02  0.54912985615E+02 -0.10060540663E+03  0.11839497572E+03  0.00000000000E+00 0.  1.
         11    1    1    2    0    0 -0.32783047866E+02 -0.12526061453E+02 -0.42682868956E+02  0.55258101173E+02  0.00000000000E+00 0. -1.
</event>
<event>
 7    1  0.2686828E-009  0.1783130E+03  0.7561462E-02  0.1169446E+00
         -2   -1    0    0    0  501 -0.00000000000E+00  0.00000000000E+00  0.14088727612E+03  0.14088727612E+03  0.00000000000E+00 0. -1.
          2   -1    0    0  501    0  0.00000000000E+00 -0.00000000000E+00 -0.30287691211E+03  0.30287691211E+03  0.00000000000E+00 0.  1.
         25    2    1    2    0    0 -0.15873725468E+03 -0.17572336074E+02 -0.18007739974E+03  0.27125867419E+03  0.12508835041E+03 0.  0.
          5    1    3    3  502    0  0.31157773098E+01 -0.24351547135E+02 -0.72740114475E+02  0.76884995740E+02  0.41800000000E+01 0. -1.
         -5    1    3    3    0  502 -0.16185303199E+03  0.67792110608E+01 -0.10733728526E+03  0.19437367845E+03  0.41800000000E+01 0. -1.
        -11    1    1    2    0    0  0.89107895963E+01 -0.13963345296E+02  0.96356545004E+01  0.19163063970E+02  0.00000000000E+00 0. -1.
         11    1    1    2    0    0  0.14982646509E+03  0.31535681370E+02  0.84521092485E+01  0.15334245006E+03  0.00000000000E+00 0.  1.
</event>
<event>
 7    1  0.2686828E-009  0.1446177E+03  0.7561462E-02  0.1207247E+00
         -2   -1    0    0    0  501 -0.00000000000E+00  0.00000000000E+00  0.78690696810E+03  0.78690696810E+03  0.00000000000E+00 0.  1.
          2   -1    0    0  501    0  0.00000000000E+00 -0.00000000000E+00 -0.37100594512E+02  0.37100594512E+02  0.00000000000E+00 0. -1.
         25    2    1    2    0    0 -0.42094725413E+01 -0.13095464367E+03  0.44971510546E+03  0.48482811690E+03  0.12509112080E+03 0.  0.
          5    1    3    3  502    0  0.12466101138E+02  0.97491192668E+01  0.17438259113E+03  0.17514910645E+03  0.41800000000E+01 0. -1.
         -5    1    3    3    0  502 -0.16675573679E+02 -0.14070376294E+03  0.27533251433E+03  0.30967901045E+03  0.41800000000E+01 0. -1.
        -11    1    1    2    0    0  0.51711867975E+01  0.88133754696E+02  0.27655948076E+03  0.29030922529E+03  0.00000000000E+00 0.  1.
         11    1    1    2    0    0 -0.96171425623E+00  0.42820888975E+02  0.23531787364E+02  0.48870220416E+02  0.00000000000E+00 0. -1.
</event>
<event>
 7    1  0.2686828E-009  0.1049777E+03  0.7561462E-02  0.1270164E+00
         -2   -1    0    0    0  501 -0.00000000000E+00  0.00000000000E+00  0.38327639586E+02  0.38327639586E+02  0.00000000000E+00 0.  1.
          2   -1    0    0  501    0  0.00000000000E+00 -0.00000000000E+00 -0.51872586101E+03  0.51872586101E+03  0.00000000000E+00 0. -1.
         25    2    1    2    0    0  0.13198477001E+02  0.84638217272E+02 -0.30985294884E+03  0.34495565040E+03  0.12509085987E+03 0.  0.
          5    1    3    3  502    0  0.24074008673E+02  0.65430124667E+02 -0.54433698562E+02  0.88550319291E+02  0.41800000000E+01 0.  1.
         -5    1    3    3    0  502 -0.10875531672E+02  0.19208092605E+02 -0.25541925028E+03  0.25640533111E+03  0.41800000000E+01 0.  1.
        -11    1    1    2    0    0 -0.44433463107E+02 -0.26737581067E+02 -0.38552336613E+02  0.64618213712E+02  0.00000000000E+00 0.  1.
         11    1    1    2    0    0  0.31234986107E+02 -0.57900636205E+02 -0.13199293598E+03  0.14747963648E+03  0.00000000000E+00 0. -1.
</event>
<event>
 7    1  0.2686828E-009  0.1051795E+03  0.7561462E-02  0.1269766E+00
         -2   -1    0    0    0  501 -0.00000000000E+00  0.00000000000E+00  0.38612419499E+02  0.38612419499E+02  0.00000000000E+00 0.  1.
          2   -1    0    0  501    0  0.00000000000E+00 -0.00000000000E+00 -0.39821136840E+03  0.39821136840E+03  0.00000000000E+00 0. -1.
         25    2    1    2    0    0  0.54803077549E+02  0.85502132227E+00 -0.16409903341E+03  0.21349534182E+03  0.12509060653E+03 0.  0.
          5    1    3    3  502    0 -0.25115543763E+02  0.23616404782E+02 -0.65694121060E+01  0.35343382531E+02  0.41800000000E+01 0.  1.
         -5    1    3    3    0  502  0.79918621312E+02 -0.22761383460E+02 -0.15752962131E+03  0.17815195929E+03  0.41800000000E+01 0.  1.
        -11    1    1    2    0    0  0.18179962323E+02  0.59532532974E+01 -0.58472604302E+01  0.20003567418E+02  0.00000000000E+00 0.  1.
         11    1    1    2    0    0 -0.72983039872E+02 -0.68082746196E+01 -0.18965265506E+03  0.20332487866E+03  0.00000000000E+00 0. -1.
</event>
<event>
 7    1  0.2686828E-009  0.1285293E+03  0.7561462E-02  0.1229654E+00
         -1   -1    0    0    0  501 -0.00000000000E+00  0.00000000000E+00  0.87396505276E+02  0.87396505276E+02  0.00000000000E+00 0.  1.
          1   -1    0    0  501    0  0.00000000000E+00 -0.00000000000E+00 -0.31497409062E+03  0.31497409062E+03  0.00000000000E+00 0. -1.
         25    2    1    2    0    0  0.87191748023E+02 -0.26447042150E+02 -0.16902275808E+02  0.15567934897E+03  0.12509406783E+03 0.  0.
          5    1    3    3  502    0 -0.31750533345E+02  0.15699956965E+01  0.11574698669E+01  0.32083849374E+02  0.41800000000E+01 0.  1.
         -5    1    3    3    0  502  0.11894228137E+03 -0.28017037846E+02 -0.18059745675E+02  0.12359549960E+03  0.41800000000E+01 0.  1.
        -11    1    1    2    0    0 -0.48501475144E+02 -0.10057764705E+02 -0.17684573077E+03  0.18365174710E+03  0.00000000000E+00 0. -1.
         11    1    1    2    0    0 -0.38690272879E+02  0.36504806855E+02 -0.33829578772E+02  0.63039499830E+02  0.00000000000E+00 0.  1.
</event>
<event>
 7    1  0.2686828E-009  0.1034429E+03  0.7561462E-02  0.1273218E+00
          2   -1    0    0  501    0  0.00000000000E+00  0.00000000000E+00  0.13522810373E+02  0.13522810373E+02  0.00000000000E+00 0. -1.
         -2   -1    0    0    0  501 -0.00000000000E+00 -0.00000000000E+00 -0.11747700628E+04  0.11747700628E+04  0.00000000000E+00 0.  1.
         25    2    1    2    0    0  0.26002369765E+02  0.20326039124E+02 -0.97445890971E+03  0.98300684989E+03  0.12507209566E+03 0.  0.
          5    1    3    3  502    0  0.55594821902E+02  0.57892570315E+02 -0.66657668720E+03  0.67140471121E+03  0.41800000000E+01 0.  1.
         -5    1    3    3    0  502 -0.29592452137E+02 -0.37566531191E+02 -0.30788222251E+03  0.31160213868E+03  0.41800000000E+01 0.  1.
        -11    1    1    2    0    0  0.21255014249E+02 -0.22819956825E+02 -0.11613023348E+03  0.12024457239E+03  0.00000000000E+00 0.  1.
         11    1    1    2    0    0 -0.47257384014E+02  0.24939177006E+01 -0.70658109217E+02  0.85041450878E+02  0.00000000000E+00 0. -1.
</event>
<event>
 7    1  0.2686828E-009  0.9242965E+02  0.7561462E-02  0.1297072E+00
          2   -1    0    0  501    0  0.00000000000E+00  0.00000000000E+00  0.15739883359E+03  0.15739883359E+03  0.00000000000E+00 0. -1.
         -2   -1    0    0    0  501 -0.00000000000E+00 -0.00000000000E+00 -0.10938307034E+03  0.10938307034E+03  0.00000000000E+00 0.  1.
         25    2    1    2    0    0 -0.65425664898E+02 -0.30742033221E+02  0.13848233656E+02  0.14513698818E+03  0.12508949408E+03 0.  0.
          5    1    3    3  502    0  0.10581895837E+02 -0.58191197625E+01 -0.44332827070E+02  0.46137952169E+02  0.41800000000E+01 0. -1.
         -5    1    3    3    0  502 -0.76007560735E+02 -0.24922913458E+02  0.58181060726E+02  0.98999036012E+02  0.41800000000E+01 0. -1.
        -11    1    1    2    0    0  0.18190662447E+02 -0.16945286117E+02 -0.22705688392E+02  0.33668846242E+02  0.00000000000E+00 0.  1.
         11    1    1    2    0    0  0.47235002450E+02  0.47687319338E+02  0.56873217991E+02  0.87976069512E+02  0.00000000000E+00 0. -1.
</event>
<event>
 7    1  0.2686828E-009  0.7909772E+02  0.7561462E-02  0.1331632E+00
          1   -1    0    0  501    0  0.00000000000E+00  0.00000000000E+00  0.29396207468E+03  0.29396207468E+03  0.00000000000E+00 0. -1.
         -1   -1    0    0    0  501 -0.00000000000E+00 -0.00000000000E+00 -0.53181442172E+02  0.53181442172E+02  0.00000000000E+00 0.  1.
         25    2    1    2    0    0  0.41004488159E+02  0.42495429845E+02  0.15208055219E+03  0.20558569584E+03  0.12509897830E+03 0.  0.
          5    1    3    3  502    0  0.32031037378E+02  0.36732865669E+02  0.17405884613E+03  0.18080167337E+03  0.41800000000E+01 0.  1.
         -5    1    3    3    0  502  0.89734507809E+01  0.57625641761E+01 -0.21978293948E+02  0.24784022467E+02  0.41800000000E+01 0.  1.
        -11    1    1    2    0    0 -0.62726339573E+02 -0.43080486600E+02  0.92201669444E+02  0.11954777225E+03  0.00000000000E+00 0. -1.
         11    1    1    2    0    0  0.21721851414E+02  0.58505675538E+00 -0.35015891220E+01  0.22010048765E+02  0.00000000000E+00 0.  1.
</event>
<event>
 7    1  0.2686828E-009  0.9291909E+02  0.7561462E-02  0.1295933E+00
         -3   -1    0    0    0  501 -0.00000000000E+00  0.00000000000E+00  0.29617878426E+03  0.29617878426E+03  0.00000000000E+00 0.  1.
          3   -1    0    0  501    0  0.00000000000E+00 -0.00000000000E+00 -0.79834038735E+02  0.79834038735E+02  0.00000000000E+00 0. -1.
         25    2    1    2    0    0  0.55848902386E+02 -0.60272300353E+02  0.19716134580E+03  0.24753327167E+03  0.12509306224E+03 0.  0.
          5    1    3    3  502    0  0.64794376399E+02 -0.30924880635E+02  0.30665254523E+02  0.78182412921E+02  0.41800000000E+01 0.  1.
         -5    1    3    3    0  502 -0.89454740135E+01 -0.29347419718E+02  0.16649609128E+03  0.16935085875E+03  0.41800000000E+01 0.  1.
        -11    1    1    2    0    0 -0.30028074871E+02  0.40588748393E+02  0.58640679466E+02  0.77381270762E+02  0.00000000000E+00 0.  1.
         11    1    1    2    0    0 -0.25820827515E+02  0.19683551961E+02 -0.39457279742E+02  0.51098280558E+02  0.00000000000E+00 0. -1.
</event>
<event>
 7    1  0.2686828E-009  0.1477097E+03  0.7561462E-02  0.1203316E+00
         -2   -1    0    0    0  501 -0.00000000000E+00  0.00000000000E+00  0.38402658187E+02  0.38402658187E+02  0.00000000000E+00 0. -1.
          2   -1    0    0  501    0  0.00000000000E+00 -0.00000000000E+00 -0.81060813774E+03  0.81060813774E+03  0.00000000000E+00 0.  1.
         25    2    1    2    0    0 -0.95156228986E+02 -0.97084127458E+02 -0.47832834232E+03  0.51276278592E+03  0.12509051058E+03 0.  0.
          5    1    3    3  502    0 -0.68086334021E+02 -0.14790006263E+02 -0.35617302255E+03  0.36294791301E+03  0.41800000000E+01 0.  1.
         -5    1    3    3    0  502 -0.27069894966E+02 -0.82294121195E+02 -0.12215531977E+03  0.14981487291E+03  0.41800000000E+01 0.  1.
        -11    1    1    2    0    0  0.29429997761E+02  0.13027357225E+02 -0.16879926957E+03  0.17184012981E+03  0.00000000000E+00 0.  1.
         11    1    1    2    0    0  0.65726231225E+02  0.84056770233E+02 -0.12507786767E+03  0.16440788020E+03  0.00000000000E+00 0. -1.
</event>
<event>
 7    1  0.2686828E-009  0.1210433E+03  0.7561462E-02  0.1241386E+00
          1   -1    0    0  501    0  0.00000000000E+00  0.00000000000E+00  0.43282820408E+03  0.43282820408E+03  0.00000000000E+00 0. -1.
         -1   -1    0    0    0  501 -0.00000000000E+00 -0.00000000000E+00 -0.66278599321E+02  0.66278599321E+02  0.00000000000E+00 0.  1.
         25    2    1    2    0    0  0.15338185368E+02  0.89420130453E+02  0.58474883116E+02  0.16520821398E+03  0.12507286817E+03 0.  0.
          5    1    3    3  502    0  0.22859880124E+02  0.11802671612E+03  0.30087010851E+02  0.12399830829E+03  0.41800000000E+01 0. -1.
         -5    1    3    3    0  502 -0.75216947563E+01 -0.28606585665E+02  0.28387872265E+02  0.41209905692E+02  0.41800000000E+01 0. -1.
        -11    1    1    2    0    0 -0.16076243008E+02 -0.50571228482E+02  0.28236278736E+03  0.28730582734E+03  0.00000000000E+00 0. -1.
         11    1    1    2    0    0  0.73805763998E+00 -0.38848901971E+02  0.25711934288E+02  0.46592762080E+02  0.00000000000E+00 0.  1.
</event>
<event>
 7    1  0.2686828E-009  0.2501619E+03  0.7561462E-02  0.1113203E+00
         -3   -1    0    0    0  501 -0.00000000000E+00  0.00000000000E+00  0.85263461179E+03  0.85263461179E+03  0.00000000000E+00 0.  1.
          3   -1    0    0  501    0  0.00000000000E+00 -0.00000000000E+00 -0.80636205454E+02  0.80636205454E+02  0.00000000000E+00 0. -1.
         25    2    1    2    0    0  0.80123844738E+02 -0.22270992723E+03  0.44503603598E+03  0.51934962745E+03  0.12508964797E+03 0.  0.
          5    1    3    3  502    0  0.79010489034E+02 -0.89879303571E+02  0.12642474478E+03  0.17413108591E+03  0.41800000000E+01 0. -1.
         -5    1    3    3    0  502  0.11133557033E+01 -0.13283062366E+03  0.31861129119E+03  0.34521854153E+03  0.41800000000E+01 0. -1.
        -11    1    1    2    0    0 -0.78441666195E+02  0.11079557537E+03  0.22351549641E+03  0.26151086336E+03  0.00000000000E+00 0. -1.
         11    1    1    2    0    0 -0.16821785425E+01  0.11191435186E+03  0.10344687395E+03  0.15241032644E+03  0.00000000000E+00 0.  1.
</event>
<event>
 7    1  0.2686828E-009  0.2298585E+03  0.7561462E-02  0.1126739E+00
          2   -1    0    0  501    0  0.00000000000E+00  0.00000000000E+00  0.15013082658E+04  0.15013082658E+04  0.00000000000E+00 0. -1.
         -2   -1    0    0    0  501 -0.00000000000E+00 -0.00000000000E+00 -0.40850301152E+02  0.40850301152E+02  0.00000000000E+00 0.  1.
         25    2    1    2    0    0  0.20503164462E+03 -0.69346342907E+02  0.89608112490E+03  0.93029907310E+03  0.12509233567E+03 0.  0.
          5    1    3    3  502    0  0.46871632276E+02 -0.57764840520E+02  0.14935037911E+03  0.16690336981E+03  0.41800000000E+01 0.  1.
         -5    1    3    3    0  502  0.15816001235E+03 -0.11581502386E+02  0.74673074579E+03  0.76339570330E+03  0.41800000000E+01 0.  1.
        -11    1    1    2    0    0 -0.12354821988E+03  0.75610053279E+02  0.27062005015E+03  0.30694666367E+03  0.00000000000E+00 0.  1.
         11    1    1    2    0    0 -0.81483424741E+02 -0.62637103721E+01  0.29375678959E+03  0.30491283018E+03  0.00000000000E+00 0. -1.
</event>
<event>
 7    1  0.2686828E-009  0.8398720E+02  0.7561462E-02  0.1318103E+00
          3   -1    0    0  501    0  0.00000000000E+00  0.00000000000E+00  0.30349466549E+03  0.30349466549E+03  0.00000000000E+00 0. -1.
         -3   -1    0    0    0  501 -0.00000000000E+00 -0.00000000000E+00 -0.68182271321E+02  0.68182271321E+02  0.00000000000E+00 0.  1.
         25    2    1    2    0    0 -0.88494542008E+01 -0.39225308743E+01  0.24883423510E+03  0.27867567741E+03  0.12509179644E+03 0.  0.
          5    1    3    3  502    0 -0.47485051199E+01 -0.45856083488E+02  0.22575830315E+03  0.23045522891E+03  0.41800000000E+01 0. -1.
         -5    1    3    3    0  502 -0.41009490809E+01  0.41933552613E+02  0.23075931950E+02  0.48220448500E+02  0.41800000000E+01 0. -1.
        -11    1    1    2    0    0 -0.34871424049E+02 -0.33112921371E+01  0.17254440558E+02  0.39047363417E+02  0.00000000000E+00 0. -1.
         11    1    1    2    0    0  0.43720878250E+02  0.72338230114E+01 -0.30776281482E+02  0.53953895987E+02  0.00000000000E+00 0.  1.
</event>
<event>
 7    1  0.2686828E-009  0.1112537E+03  0.7561462E-02  0.1258266E+00
         -4   -1    0    0    0  501 -0.00000000000E+00  0.00000000000E+00  0.52250469614E+02  0.52250469614E+02  0.00000000000E+00 0.  1.
          4   -1    0    0  501    0  0.00000000000E+00 -0.00000000000E+00 -0.30843596559E+03  0.30843596559E+03  0.00000000000E+00 0. -1.
         25    2    1    2    0    0 -0.48333283002E+02 -0.29000584851E+01 -0.77895989295E+02  0.15511137585E+03  0.12508891711E+03 0.  0.
          5    1    3    3  502    0 -0.51736847727E+02 -0.54275162572E+02 -0.20406224565E+02  0.77822754294E+02  0.41800000000E+01 0. -1.
         -5    1    3    3    0  502  0.34035647245E+01  0.51375104087E+02 -0.57489764730E+02  0.77288621552E+02  0.41800000000E+01 0. -1.
        -11    1    1    2    0    0 -0.23300015989E+02  0.59658641036E+01 -0.18195374136E+02  0.30158811640E+02  0.00000000000E+00 0.  1.
         11    1    1    2    0    0  0.71633298991E+02 -0.30658056185E+01 -0.16009413254E+03  0.17541624771E+03  0.00000000000E+00 0. -1.
</event>
<event>
 7    1  0.2686828E-009  0.2752432E+03  0.7561462E-02  0.1098316E+00
         -1   -1    0    0    0  501 -0.00000000000E+00  0.00000000000E+00  0.58288190624E+02  0.58288190624E+02  0.00000000000E+00 0.  1.
          1   -1    0    0  501    0  0.00000000000E+00 -0.00000000000E+00 -0.14384604005E+04  0.14384604005E+04  0.00000000000E+00 0. -1.
         25    2    1    2    0    0  0.24860780373E+03 -0.75376514431E+02 -0.52526388548E+03  0.59919732508E+03  0.12509127063E+03 0.  0.
          5    1    3    3  502    0  0.26002320138E+03 -0.69277329282E+02 -0.46362366388E+03  0.53607442368E+03  0.41800000000E+01 0. -1.
         -5    1    3    3    0  502 -0.11415397648E+02 -0.60991851495E+01 -0.61640221598E+02  0.63122901403E+02  0.41800000000E+01 0. -1.
        -11    1    1    2    0    0 -0.15050904787E+03  0.12037637027E+02 -0.39013709711E+03  0.41833578945E+03  0.00000000000E+00 0.  1.
         11    1    1    2    0    0 -0.98098755864E+02  0.63338877405E+02 -0.46477122727E+03  0.47921547658E+03  0.00000000000E+00 0. -1.
</event>
<event>
 7    1  0.2686828E-009  0.1066535E+03  0.7561462E-02  0.1266896E+00
          1   -1    0    0  501    0  0.00000000000E+00  0.00000000000E+00  0.34498950833E+03  0.34498950833E+03  0.00000000000E+00 0. -1.
         -1   -1    0    0    0  501 -0.00000000000E+00 -0.00000000000E+00 -0.37880339357E+02  0.37880339357E+02  0.00000000000E+00 0.  1.
         25    2    1    2    0    0  0.34119667397E+02  0.13648152838E+02  0.14122486988E+03  0.19220918331E+03  0.12509789166E+03 0.  0.
          5    1    3    3  502    0  0.73210403359E+02 -0.10055476082E+02  0.47783349040E+02  0.88099923976E+02  0.41800000000E+01 0.  1.
         -5    1    3    3    0  502 -0.39090735961E+02  0.23703628921E+02  0.93441520838E+02  0.10410925933E+03  0.41800000000E+01 0.  1.
        -11    1    1    2    0    0  0.26932346167E+02  0.88042449659E+01  0.40816178993E+02  0.49687286775E+02  0.00000000000E+00 0. -1.
         11    1    1    2    0    0 -0.61052013564E+02 -0.22452397804E+02  0.12506812010E+03  0.14097337761E+03  0.00000000000E+00 0.  1.
</event>
<event>
 7    1  0.2686828E-009  0.1441839E+03  0.7561462E-02  0.1207808E+00
          2   -1    0    0  501    0  0.00000000000E+00  0.00000000000E+00  0.37855794234E+03  0.37855794234E+03  0.00000000000E+00 0.  1.
         -2   -1    0    0    0  501 -0.00000000000E+00 -0.00000000000E+00 -0.98565208030E+02  0.98565208030E+02  0.00000000000E+00 0. -1.
         25    2    1    2    0    0 -0.48504634361E+02  0.11714769916E+03  0.26731535305E+03  0.32121889157E+03  0.12509114819E+03 0.  0.
          5    1    3    3  502    0 -0.36539274516E+02  0.11446758657E+03  0.27898099659E+03  0.30378580582E+03  0.41800000000E+01 0.  1.
         -5    1    3    3    0  502 -0.11965359844E+02  0.26801125830E+01 -0.11665643541E+02  0.17433085753E+02  0.41800000000E+01 0.  1.
        -11    1    1    2    0    0 -0.16490527169E+02 -0.77091178922E+02  0.24321152039E+01  0.78872698307E+02  0.00000000000E+00 0.  1.
         11    1    1    2    0    0  0.64995161529E+02 -0.40056520234E+02  0.10245266059E+02  0.77031560494E+02  0.00000000000E+00 0. -1.
</event>
<event>
 7    1  0.2686828E-009  0.1188955E+03  0.7561462E-02  0.1244930E+00
          1   -1    0    0  501    0  0.00000000000E+00  0.00000000000E+00  0.39048982661E+02  0.39048982661E+02  0.00000000000E+00 0. -1.
         -1   -1    0    0    0  501 -0.00000000000E+00 -0.00000000000E+00 -0.43797227857E+03  0.43797227857E+03  0.00000000000E+00 0.  1.
         25    2    1    2    0    0  0.57317381342E+02 -0.44168853233E+02 -0.23355449251E+03  0.27464791709E+03  0.12509039767E+03 0.  0.
          5    1    3    3  502    0  0.91196156829E+02 -0.53586261613E+02 -0.14716116463E+03  0.18127908658E+03  0.41800000000E+01 0.  1.
         -5    1    3    3    0  502 -0.33878775487E+02  0.94174083798E+01 -0.86393327876E+02  0.93368830509E+02  0.41800000000E+01 0.  1.
        -11    1    1    2    0    0 -0.15241979083E+02  0.51593425199E+02 -0.32611768822E+02  0.62910467458E+02  0.00000000000E+00 0. -1.
         11    1    1    2    0    0 -0.42075402259E+02 -0.74245719659E+01 -0.13275703457E+03  0.13946287668E+03  0.00000000000E+00 0.  1.
</event>
<event>
 7    1  0.2686828E-009  0.1354060E+03  0.7561462E-02  0.1219648E+00
          2   -1    0    0  501    0  0.00000000000E+00  0.00000000000E+00  0.50656006128E+03  0.50656006128E+03  0.00000000000E+00 0. -1.
         -2   -1    0    0    0  501 -0.00000000000E+00 -0.00000000000E+00 -0.43770601308E+02  0.43770601308E+02  0.00000000000E+00 0.  1.
         25    2    1    2    0    0  0.81645248779E+02 -0.61621274973E+02  0.25895299708E+03  0.30523375144E+03  0.12509140716E+03 0.  0.
          5    1    3    3  502    0 -0.19176367024E+02 -0.15090140282E+02  0.14110023720E+03  0.14325569700E+03  0.41800000000E+01 0. -1.
         -5    1    3    3    0  502  0.10082161580E+03 -0.46531134691E+02  0.11785275988E+03  0.16197805444E+03  0.41800000000E+01 0. -1.
        -11    1    1    2    0    0 -0.65655632964E+02 -0.55471964012E+01  0.83579632865E+02  0.10642832592E+03  0.00000000000E+00 0.  1.
         11    1    1    2    0    0 -0.15989615815E+02  0.67168471374E+02  0.12025683003E+03  0.13866858523E+03  0.00000000000E+00 0. -1.
</event>
<event>
 7    1  0.2686828E-009  0.1288534E+03  0.7561462E-02  0.1229167E+00
          1   -1    0    0  501    0  0.00000000000E+00  0.00000000000E+00  0.37158033999E+03  0.37158033999E+03  0.00000000000E+00 0. -1.
         -1   -1    0    0    0  501 -0.00000000000E+00 -0.00000000000E+00 -0.50997825408E+02  0.50997825408E+02  0.00000000000E+00 0.  1.
         25    2    1    2    0    0 -0.45147096056E+02  0.64869246561E+02  0.22369039766E+03  0.26819908187E+03  0.12508826517E+03 0.  0.
          5    1    3    3  502    0  0.20392688912E+02  0.75482378066E+02  0.14794471478E+03  0.16738746127E+03  0.41800000000E+01 0. -1.
         -5    1    3    3    0  502 -0.65539784968E+02 -0.10613131505E+02  0.75745682876E+02  0.10081162060E+03  0.41800000000E+01 0. -1.
        -11    1    1    2    0    0 -0.22636743410E+02 -0.27010675789E+02  0.75980054177E+01  0.36051746769E+02  0.00000000000E+00 0.  1.
         11    1    1    2    0    0  0.67783839466E+02 -0.37858570772E+02  0.89294111511E+02  0.11832733676E+03  0.00000000000E+00 0. -1.
</event>
<event>
 7    1  0.2686828E-009  0.9472788E+02  0.7561462E-02  0.1291790E+00
         -2   -1    0    0    0  501 -0.00000000000E+00  0.00000000000E+00  0.64598290734E+02  0.64598290734E+02  0.00000000000E+00 0. -1.
          2   -1    0    0  501    0  0.00000000000E+00 -0.00000000000E+00 -0.19731851806E+03  0.19731851806E+03  0.00000000000E+00 0.  1.
         25    2    1    2    0    0  0.26751852739E+02  0.15018184895E+02 -0.83464860086E+02  0.15347536818E+03  0.12508836184E+03 0.  0.
          5    1    3    3  502    0 -0.37636988011E+02  0.29782252808E+01 -0.79033405381E+02  0.87687879770E+02  0.41800000000E+01 0.  1.
         -5    1    3    3    0  502  0.64388840750E+02  0.12039959615E+02 -0.44314547042E+01  0.65787488411E+02  0.41800000000E+01 0.  1.
        -11    1    1    2    0    0 -0.44885870959E+02 -0.36404364695E+02 -0.55043199071E+02  0.79810857310E+02  0.00000000000E+00 0.  1.
         11    1    1    2    0    0  0.18134018220E+02  0.21386179799E+02  0.57878318268E+01  0.28630583306E+02  0.00000000000E+00 0. -1.
</event>
<event>
 7    1  0.2686828E-009  0.1004774E+03  0.7561462E-02  0.1279295E+00
         -2   -1    0    0    0  501 -0.00000000000E+00  0.00000000000E+00  0.35423084375E+03  0.35423084375E+03  0.00000000000E+00 0.  1.
          2   -1    0    0  501    0  0.00000000000E+00 -0.00000000000E+00 -0.43865213228E+02  0.43865213228E+02  0.00000000000E+00 0. -1.
         25    2    1    2    0    0 -0.66391553250E+01  0.48064008849E+02  0.11206557071E+03  0.17482689208E+03  0.12510604591E+03 0.  0.
          5    1    3    3  502    0 -0.43836401463E+02  0.47380117487E+02  0.12021517897E+03  0.13651251694E+03  0.41800000000E+01 0. -1.
         -5    1    3    3    0  502  0.37197246138E+02  0.68389136260E+00 -0.81496082528E+01  0.38314375139E+02  0.41800000000E+01 0. -1.
        -11    1    1    2    0    0  0.45257170636E+02 -0.14094396848E+02  0.65460210213E+02  0.80820187067E+02  0.00000000000E+00 0. -1.
         11    1    1    2    0    0 -0.38618015311E+02 -0.33969612002E+02  0.13283984960E+03  0.14244897784E+03  0.00000000000E+00 0.  1.
</event>
<event>
 7    1  0.2686828E-009  0.7494741E+02  0.7561462E-02  0.1344034E+00
          3   -1    0    0  501    0  0.00000000000E+00  0.00000000000E+00  0.20456640366E+03  0.20456640366E+03  0.00000000000E+00 0. -1.
         -3   -1    0    0    0  501 -0.00000000000E+00 -0.00000000000E+00 -0.64388338356E+02  0.64388338356E+02  0.00000000000E+00 0.  1.
         25    2    1    2    0    0  0.88923417696E+01 -0.32884453218E+02  0.94630151282E+02  0.16050882118E+03  0.12509098744E+03 0.  0.
          5    1    3    3  502    0  0.18887301284E+02 -0.26639795099E+01  0.11875577136E+03  0.12035045728E+03  0.41800000000E+01 0. -1.
         -5    1    3    3    0  502 -0.99949595145E+01 -0.30220473708E+02 -0.24125620077E+02  0.40158363898E+02  0.41800000000E+01 0. -1.
        -11    1    1    2    0    0  0.41144517324E+02  0.23410435777E+02  0.18927026238E+02  0.50981880422E+02  0.00000000000E+00 0.  1.
         11    1    1    2    0    0 -0.50036859094E+02  0.94740174412E+01  0.26620887783E+02  0.57464040415E+02  0.00000000000E+00 0. -1.
</event>
<event>
 7    1  0.2686828E-009  0.2280083E+03  0.7561462E-02  0.1128050E+00
         -1   -1    0    0    0  501 -0.00000000000E+00  0.00000000000E+00  0.10898940654E+03  0.10898940654E+03  0.00000000000E+00 0.  1.
          1   -1    0    0  501    0  0.00000000000E+00 -0.00000000000E+00 -0.64854806353E+03  0.64854806353E+03  0.00000000000E+00 0. -1.
         25    2    1    2    0    0 -0.20418968119E+03 -0.66506635510E+02 -0.11577189435E+03  0.27416629693E+03  0.12508984124E+03 0.  0.
          5    1    3    3  502    0 -0.18597670152E+03 -0.80567379187E+02 -0.13527831817E+03  0.24371321644E+03  0.41800000000E+01 0.  1.
         -5    1    3    3    0  502 -0.18212979671E+02  0.14060743678E+02  0.19506423827E+02  0.30453080498E+02  0.41800000000E+01 0.  1.
        -11    1    1    2    0    0  0.16838590849E+03  0.86071814867E+02 -0.37322334923E+03  0.41839913946E+03  0.00000000000E+00 0.  1.
         11    1    1    2    0    0  0.35803772699E+02 -0.19565179358E+02 -0.50563413421E+02  0.64972033673E+02  0.00000000000E+00 0. -1.
</event>
<event>
 7    1  0.2686828E-009  0.1152205E+03  0.7561462E-02  0.1251197E+00
          1   -1    0    0  501    0  0.00000000000E+00  0.00000000000E+00  0.53136923868E+03  0.53136923868E+03  0.00000000000E+00 0. -1.
         -1   -1    0    0    0  501 -0.00000000000E+00 -0.00000000000E+00 -0.27402903794E+02  0.27402903794E+02  0.00000000000E+00 0.  1.
         25    2    1    2    0    0 -0.24879849774E+02  0.35861092728E+02  0.26136012112E+03  0.29302181228E+03  0.12509054586E+03 0.  0.
          5    1    3    3  502    0 -0.68947995721E+02  0.67731461716E+01  0.89948385111E+02  0.11361287782E+03  0.41800000000E+01 0. -1.
         -5    1    3    3    0  502  0.44068145947E+02  0.29087946557E+02  0.17141173601E+03  0.17940893446E+03  0.41800000000E+01 0. -1.
        -11    1    1    2    0    0 -0.38078620515E+02 -0.66204193088E+01  0.76070821687E+02  0.85326321872E+02  0.00000000000E+00 0.  1.
         11    1    1    2    0    0  0.62958470289E+02 -0.29240673420E+02  0.16653539207E+03  0.18042400832E+03  0.00000000000E+00 0. -1.
</event>
<event>
 7    1  0.2686828E-009  0.2916534E+03  0.7561462E-02  0.1089489E+00
          1   -1    0    0  501    0  0.00000000000E+00  0.00000000000E+00  0.97217210320E+02  0.97217210320E+02  0.00000000000E+00 0. -1.
         -1   -1    0    0    0  501 -0.00000000000E+00 -0.00000000000E+00 -0.96135340750E+03  0.96135340750E+03  0.00000000000E+00 0.  1.
         25    2    1    2    0    0  0.16283616304E+03 -0.23244816311E+03 -0.39023549870E+03  0.49847853571E+03  0.12509732847E+03 0.  0.
          5    1    3    3  502    0  0.12699014023E+02 -0.62497844371E+02 -0.17296559766E+03  0.18439581308E+03  0.41800000000E+01 0.  1.
         -5    1    3    3    0  502  0.15013714902E+03 -0.16995031874E+03 -0.21726990104E+03  0.31408272262E+03  0.41800000000E+01 0.  1.
        -11    1    1    2    0    0 -0.13783092919E+03  0.13860737272E+03 -0.26096073922E+03  0.32605195327E+03  0.00000000000E+00 0. -1.
         11    1    1    2    0    0 -0.25005233848E+02  0.93840790384E+02 -0.21293995926E+03  0.23404012884E+03  0.00000000000E+00 0.  1.
</event>
<event>
 7    1  0.2686828E-009  0.1099320E+03  0.7561462E-02  0.1260696E+00
         -2   -1    0    0    0  501 -0.00000000000E+00  0.00000000000E+00  0.31934255131E+02  0.31934255131E+02  0.00000000000E+00 0.  1.
          2   -1    0    0  501    0  0.00000000000E+00 -0.00000000000E+00 -0.41260573190E+03  0.41260573190E+03  0.00000000000E+00 0. -1.
         25    2    1    2    0    0  0.31899612939E+02  0.23890125772E+02 -0.20782840106E+03  0.24582319026E+03  0.12509225863E+03 0.  0.
          5    1    3    3  502    0  0.38193886266E+02  0.67632418031E+02 -0.84996365770E+02  0.11521619466E+03  0.41800000000E+01 0. -1.
         -5    1    3    3    0  502 -0.62942733270E+01 -0.43742292259E+02 -0.12283203529E+03  0.13060699561E+03  0.41800000000E+01 0. -1.
        -11    1    1    2    0    0 -0.60432226229E+02 -0.31514774593E+02 -0.12815089291E+03  0.14514780859E+03  0.00000000000E+00 0. -1.
         11    1    1    2    0    0  0.28532613290E+02  0.76246488206E+01 -0.44692182798E+02  0.53568988175E+02  0.00000000000E+00 0.  1.
</event>
<event>
 7    1  0.2686828E-009  0.6715754E+02  0.7561462E-02  0.1370035E+00
         -1   -1    0    0    0  501 -0.00000000000E+00  0.00000000000E+00  0.90566240077E+02  0.90566240077E+02  0.00000000000E+00 0.  1.
          1   -1    0    0  501    0  0.00000000000E+00 -0.00000000000E+00 -0.15927581336E+03  0.15927581336E+03  0.00000000000E+00 0. -1.
         25    2    1    2    0    0  0.23474057542E+02 -0.36966965443E+02 -0.67785625664E+02  0.14886186276E+03  0.12508946889E+03 0.  0.
          5    1    3    3  502    0 -0.41118265434E+01 -0.37837439567E+02  0.29063522376E+02  0.48070153770E+02  0.41800000000E+01 0.  1.
         -5    1    3    3    0  502  0.27585884086E+02  0.87047412475E+00 -0.96849148040E+02  0.10079170899E+03  0.41800000000E+01 0.  1.
        -11    1    1    2    0    0 -0.38158064794E+02  0.13590791406E+02 -0.37470352157E+02  0.55179478166E+02  0.00000000000E+00 0. -1.
         11    1    1    2    0    0  0.14684007251E+02  0.23376174037E+02  0.36546404538E+02  0.45800712508E+02  0.00000000000E+00 0.  1.
</event>
<event>
 7    1  0.3074064E-009  0.1395194E+03  0.7561462E-02  0.1213977E+00
         -1   -1    0    0    0  501 -0.00000000000E+00  0.00000000000E+00  0.24564131742E+02  0.24564131742E+02  0.00000000000E+00 0.  1.
          1   -1    0    0  501    0  0.00000000000E+00 -0.00000000000E+00 -0.90604549470E+03  0.90604549470E+03  0.00000000000E+00 0. -1.
         25    2    1    2    0    0 -0.78483771256E+02 -0.65056697485E+02 -0.48547216188E+03  0.51159177343E+03  0.12510334304E+03 0.  0.
          5    1    3    3  502    0  0.22552964032E+02 -0.24616346352E+02 -0.24878365178E+03  0.25104855803E+03  0.41800000000E+01 0. -1.
         -5    1    3    3    0  502 -0.10103673529E+03 -0.40440351134E+02 -0.23668851010E+03  0.26054321540E+03  0.41800000000E+01 0. -1.
        -11    1    1    2    0    0  0.61620006742E+02 -0.74244354244E+01 -0.16316066362E+03  0.17456674833E+03  0.00000000000E+00 0.  1.
         11    1    1    2    0    0  0.16863764514E+02  0.72481132910E+02 -0.23284853746E+03  0.24445110468E+03  0.00000000000E+00 0. -1.
</event>
<event>
 7    1  0.2686828E-009  0.1531586E+03  0.7561462E-02  0.1196645E+00
         -2   -1    0    0    0  501 -0.00000000000E+00  0.00000000000E+00  0.35034579142E+02  0.35034579142E+02  0.00000000000E+00 0.  1.
          2   -1    0    0  501    0  0.00000000000E+00 -0.00000000000E+00 -0.87175022340E+03  0.87175022340E+03  0.00000000000E+00 0. -1.
         25    2    1    2    0    0  0.21757092796E+01 -0.13631678930E+03 -0.41390613635E+03  0.45337757276E+03  0.12508370405E+03 0.  0.
          5    1    3    3  502    0 -0.18306102897E+02 -0.38769099360E+02 -0.20848196524E+02  0.47856829886E+02  0.41800000000E+01 0. -1.
         -5    1    3    3    0  502  0.20481812176E+02 -0.97547689937E+02 -0.39305793982E+03  0.40552074287E+03  0.41800000000E+01 0. -1.
        -11    1    1    2    0    0  0.44022238537E+02  0.68090468010E+02 -0.22249502197E+03  0.23680858118E+03  0.00000000000E+00 0. -1.
         11    1    1    2    0    0 -0.46197947817E+02  0.68226321287E+02 -0.20031448594E+03  0.21659864860E+03  0.00000000000E+00 0.  1.
</event>
<event>
 7    1  0.2686828E-009  0.7328225E+02  0.7561462E-02  0.1349274E+00
         -1   -1    0    0    0  501 -0.00000000000E+00  0.00000000000E+00  0.16943881364E+03  0.16943881364E+03  0.00000000000E+00 0.  1.
          1   -1    0    0  501    0  0.00000000000E+00 -0.00000000000E+00 -0.86626777398E+02  0.86626777398E+02  0.00000000000E+00 0. -1.
         25    2    1    2    0    0  0.93825767937E+00  0.27701328338E+02 -0.11659369194E+01  0.12813262657E+03  0.12509343174E+03 0.  0.
          5    1    3    3  502    0 -0.20396783872E+02  0.70796104728E+01  0.57880715997E+02  0.61917682136E+02  0.41800000000E+01 0.  1.
         -5    1    3    3    0  502  0.21335041551E+02  0.20621717865E+02 -0.59046652916E+02  0.66214944433E+02  0.41800000000E+01 0.  1.
        -11    1    1    2    0    0 -0.99931300805E+01 -0.60121828886E+02  0.41498434755E+02  0.73733418777E+02  0.00000000000E+00 0. -1.
         11    1    1    2    0    0  0.90548724011E+01  0.32420500549E+02  0.42479538402E+02  0.54199545689E+02  0.00000000000E+00 0.  1.
</event>
<event>
 7    1  0.2686828E-009  0.1050149E+03  0.7561462E-02  0.1270090E+00
         -1   -1    0    0    0  501 -0.00000000000E+00  0.00000000000E+00  0.27836518586E+03  0.27836518586E+03  0.00000000000E+00 0.  1.
          1   -1    0    0  501    0  0.00000000000E+00 -0.00000000000E+00 -0.66700809236E+02  0.66700809236E+02  0.00000000000E+00 0. -1.
         25    2    1    2    0    0  0.40129093622E+02  0.59188330834E+02  0.16658003860E+03  0.22025043709E+03  0.12509093938E+03 0.  0.
          5    1    3    3  502    0  0.54296490604E+02  0.23110697292E+02  0.17106839702E+03  0.18100851383E+03  0.41800000000E+01 0.  1.
         -5    1    3    3    0  502 -0.14167396983E+02  0.36077633543E+02 -0.44883584208E+01  0.39241923253E+02  0.41800000000E+01 0.  1.
        -11    1    1    2    0    0 -0.48093911107E+02 -0.77900444332E+02  0.49396770705E+02  0.10402665268E+03  0.00000000000E+00 0.  1.
         11    1    1    2    0    0  0.79648174854E+01  0.18712113498E+02 -0.43124326761E+01  0.20788905328E+02  0.00000000000E+00 0. -1.
</event>
<event>
 7    1  0.2686828E-009  0.1284685E+03  0.7561462E-02  0.1229746E+00
          2   -1    0    0  501    0  0.00000000000E+00  0.00000000000E+00  0.12111760787E+04  0.12111760787E+04  0.00000000000E+00 0. -1.
         -2   -1    0    0    0  501 -0.00000000000E+00 -0.00000000000E+00 -0.16152943699E+02  0.16152943699E+02  0.00000000000E+00 0.  1.
         25    2    1    2    0    0 -0.31160725652E+02  0.37107119640E+02  0.84764336091E+03  0.85819334058E+03  0.12509441785E+03 0.  0.
          5    1    3    3  502    0  0.24927873094E+02 -0.34121511973E+02  0.22524343546E+03  0.22921115604E+03  0.41800000000E+01 0.  1.
         -5    1    3    3    0  502 -0.56088598746E+02  0.71228631613E+02  0.62239992545E+03  0.62898218454E+03  0.41800000000E+01 0.  1.
        -11    1    1    2    0    0 -0.34414068868E+02 -0.46098691815E+02  0.13695077215E+03  0.14854269257E+03  0.00000000000E+00 0.  1.
         11    1    1    2    0    0  0.65574794520E+02  0.89915721747E+01  0.21042900193E+03  0.22059298924E+03  0.00000000000E+00 0. -1.
</event>
<event>
 7    1  0.2686828E-009  0.1827792E+03  0.7561462E-02  0.1165140E+00
         -4   -1    0    0    0  501 -0.00000000000E+00  0.00000000000E+00  0.10143780014E+03  0.10143780014E+03  0.00000000000E+00 0.  1.
          4   -1    0    0  501    0  0.00000000000E+00 -0.00000000000E+00 -0.34332410905E+03  0.34332410905E+03  0.00000000000E+00 0. -1.
         25    2    1    2    0    0 -0.13297181945E+03 -0.73899545146E+02 -0.11168125073E+03  0.22641158575E+03  0.12508739688E+03 0.  0.
          5    1    3    3  502    0 -0.15370368999E+03 -0.60303626005E+02 -0.11470642245E+03  0.20108800904E+03  0.41800000000E+01 0. -1.
         -5    1    3    3    0  502  0.20731870547E+02 -0.13595919140E+02  0.30251717198E+01  0.25323576714E+02  0.41800000000E+01 0. -1.
        -11    1    1    2    0    0 -0.12530316089E+02  0.11238325107E+02 -0.11368412534E+02  0.20311316453E+02  0.00000000000E+00 0.  1.
         11    1    1    2    0    0  0.14550213553E+03  0.62661220039E+02 -0.11883664564E+03  0.19803900699E+03  0.00000000000E+00 0. -1.
</event>
<event>
 7    1  0.2686828E-009  0.1216873E+03  0.7561462E-02  0.1240339E+00
          1   -1    0    0  501    0  0.00000000000E+00  0.00000000000E+00  0.25532944063E+03  0.25532944063E+03  0.00000000000E+00 0. -1.
         -1   -1    0    0    0  501 -0.00000000000E+00 -0.00000000000E+00 -0.89003709054E+02  0.89003709054E+02  0.00000000000E+00 0.  1.
         25    2    1    2    0    0  0.66031892156E+02 -0.55485686531E+02  0.24521517317E+02  0.15390717456E+03  0.12508893388E+03 0.  0.
          5    1    3    3  502    0  0.97985768188E+02 -0.64923545560E+02  0.12669962394E+02  0.11829741283E+03  0.41800000000E+01 0.  1.
         -5    1    3    3    0  502 -0.31953876032E+02  0.94378590290E+01  0.11851554923E+02  0.35609761732E+02  0.41800000000E+01 0.  1.
        -11    1    1    2    0    0 -0.22767622295E+02  0.40372692204E+02  0.55617929830E+01  0.46682463966E+02  0.00000000000E+00 0.  1.
         11    1    1    2    0    0 -0.43264269861E+02  0.15112994327E+02  0.13624242128E+03  0.14374351116E+03  0.00000000000E+00 0. -1.
</event>
<event>
 7    1  0.2686828E-009  0.1320165E+03  0.7561462E-02  0.1224494E+00
          1   -1    0    0  501    0  0.00000000000E+00  0.00000000000E+00  0.69035608260E+02  0.69035608260E+02  0.00000000000E+00 0. -1.
         -1   -1    0    0    0  501 -0.00000000000E+00 -0.00000000000E+00 -0.35397404155E+03  0.35397404155E+03  0.00000000000E+00 0.  1.
         25    2    1    2    0    0  0.93736512300E+02 -0.54813549319E+02 -0.11368841962E+03  0.20090398206E+03  0.12508514830E+03 0.  0.
          5    1    3    3  502    0  0.37572722585E+02  0.93961688956E+01  0.18813925318E+02  0.43260070021E+02  0.41800000000E+01 0. -1.
         -5    1    3    3    0  502  0.56163789715E+02 -0.64209718214E+02 -0.13250234494E+03  0.15764391204E+03  0.41800000000E+01 0. -1.
        -11    1    1    2    0    0 -0.28068402749E+02 -0.24107838539E+02 -0.30864929278E+02  0.48183679511E+02  0.00000000000E+00 0.  1.
         11    1    1    2    0    0 -0.65668109551E+02  0.78921387858E+02 -0.14038508438E+03  0.17392198823E+03  0.00000000000E+00 0. -1.
</event>
<event>
 7    1  0.2686828E-009  0.1041619E+03  0.7561462E-02  0.1271780E+00
         -2   -1    0    0    0  501 -0.00000000000E+00  0.00000000000E+00  0.22897041224E+03  0.22897041224E+03  0.00000000000E+00 0.  1.
          2   -1    0    0  501    0  0.00000000000E+00 -0.00000000000E+00 -0.61002480521E+02  0.61002480521E+02  0.00000000000E+00 0. -1.
         25    2    1    2    0    0 -0.95910397234E+00  0.45562931527E+02  0.11126874379E+03  0.17351343460E+03  0.12509707444E+03 0.  0.
          5    1    3    3  502    0  0.39465227177E+02  0.68496259945E+02  0.40968817619E+02  0.89135616898E+02  0.41800000000E+01 0.  1.
         -5    1    3    3    0  502 -0.40424331149E+02 -0.22933328418E+02  0.70299926167E+02  0.84377817703E+02  0.41800000000E+01 0.  1.
        -11    1    1    2    0    0 -0.20219589778E+01  0.18376914463E+02 -0.12405883810E+02  0.22264439279E+02  0.00000000000E+00 0.  1.
         11    1    1    2    0    0  0.29810629501E+01 -0.63939845990E+02  0.69105071739E+02  0.94195018879E+02  0.00000000000E+00 0. -1.
</event>
<event>
 7    1  0.2686828E-009  0.1345900E+03  0.7561462E-02  0.1220800E+00
          1   -1    0    0  501    0  0.00000000000E+00  0.00000000000E+00  0.58690945620E+03  0.58690945620E+03  0.00000000000E+00 0. -1.
         -1   -1    0    0    0  501 -0.00000000000E+00 -0.00000000000E+00 -0.35353653334E+02  0.35353653334E+02  0.00000000000E+00 0.  1.
         25    2    1    2    0    0 -0.18578717852E+02  0.63741347699E+02  0.18203949110E+03  0.23063885071E+03  0.12509106672E+03 0.  0.
          5    1    3    3  502    0 -0.35926250258E+02  0.96025418785E+02  0.11501824964E+03  0.15413710345E+03  0.41800000000E+01 0.  1.
         -5    1    3    3    0  502  0.17347532405E+02 -0.32284071086E+02  0.67021241459E+02  0.76501747256E+02  0.41800000000E+01 0.  1.
        -11    1    1    2    0    0  0.20608525194E+02 -0.95580864019E+02  0.28265655388E+03  0.29909052197E+03  0.00000000000E+00 0. -1.
         11    1    1    2    0    0 -0.20298073416E+01  0.31839516321E+02  0.86859757884E+02  0.92533736859E+02  0.00000000000E+00 0.  1.
</event>
<event>
 7    1  0.2686828E-009  0.1106008E+03  0.7561462E-02  0.1259461E+00
         -1   -1    0    0    0  501 -0.00000000000E+00  0.00000000000E+00  0.13472696464E+02  0.13472696464E+02  0.00000000000E+00 0.  1.
          1   -1    0    0  501    0  0.00000000000E+00 -0.00000000000E+00 -0.13197505290E+04  0.13197505290E+04  0.00000000000E+00 0. -1.
         25    2    1    2    0    0 -0.55348279962E+02 -0.22471264367E+02 -0.96576265816E+03  0.97566050471E+03  0.12509004250E+03 0.  0.
          5    1    3    3  502    0 -0.16261692981E+02  0.40858375669E+02 -0.63808014377E+03  0.63960737316E+03  0.41800000000E+01 0. -1.
         -5    1    3    3    0  502 -0.39086586981E+02 -0.63329640036E+02 -0.32768251439E+03  0.33605313155E+03  0.41800000000E+01 0. -1.
        -11    1    1    2    0    0  0.44685038882E+02  0.53484667357E+02 -0.16673404104E+03  0.18071414660E+03  0.00000000000E+00 0.  1.
         11    1    1    2    0    0  0.10663241081E+02 -0.31013402991E+02 -0.17378113335E+03  0.17684857417E+03  0.00000000000E+00 0. -1.
</event>
<event>
 7    1  0.2686828E-009  0.1096641E+03  0.7561462E-02  0.1261193E+00
          2   -1    0    0  501    0  0.00000000000E+00  0.00000000000E+00  0.17727415806E+03  0.17727415806E+03  0.00000000000E+00 0. -1.
         -2   -1    0    0    0  501 -0.00000000000E+00 -0.00000000000E+00 -0.12026180942E+03  0.12026180942E+03  0.00000000000E+00 0.  1.
         25    2    1    2    0    0 -0.54913284118E+02 -0.73470667317E+02 -0.74275762155E+00  0.15511706388E+03  0.12508934443E+03 0.  0.
          5    1    3    3  502    0  0.85148761681E+00  0.43718725560E+01 -0.47906605114E+02  0.48294445999E+02  0.41800000000E+01 0.  1.
         -5    1    3    3    0  502 -0.55764771735E+02 -0.77842539873E+02  0.47163847492E+02  0.10682261788E+03  0.41800000000E+01 0.  1.
        -11    1    1    2    0    0  0.13178364397E+02 -0.14749279176E+02  0.38009181829E+02  0.42847502001E+02  0.00000000000E+00 0. -1.
         11    1    1    2    0    0  0.41734919721E+02  0.88219946493E+02  0.19745924432E+02  0.99571401592E+02  0.00000000000E+00 0.  1.
</event>
<event>
 7    1  0.2686828E-009  0.1905060E+03  0.7561462E-02  0.1158006E+00
         -1   -1    0    0    0  501 -0.00000000000E+00  0.00000000000E+00  0.35730114889E+02  0.35730114889E+02  0.00000000000E+00 0.  1.
          1   -1    0    0  501    0  0.00000000000E+00 -0.00000000000E+00 -0.10677380464E+04  0.10677380464E+04  0.00000000000E+00 0. -1.
         25    2    1    2    0    0  0.15472327105E+03 -0.19915143704E+02 -0.48140052652E+03  0.52127680160E+03  0.12508850229E+03 0.  0.
          5    1    3    3  502    0  0.49466873530E+02  0.51876371230E+02 -0.15331171439E+03  0.16929289306E+03  0.41800000000E+01 0. -1.
         -5    1    3    3    0  502  0.10525639752E+03 -0.71791514935E+02 -0.32808881212E+03  0.35198390854E+03  0.41800000000E+01 0. -1.
        -11    1    1    2    0    0 -0.53011045285E+02  0.52816246885E+02 -0.31001563434E+03  0.31891914398E+03  0.00000000000E+00 0. -1.
         11    1    1    2    0    0 -0.10171222577E+03 -0.32901103181E+02 -0.24059177067E+03  0.26327221573E+03  0.00000000000E+00 0.  1.
</event>
<event>
 7    1  0.2686828E-009  0.1848646E+03  0.7561462E-02  0.1163176E+00
          1   -1    0    0  501    0  0.00000000000E+00  0.00000000000E+00  0.51453841334E+03  0.51453841334E+03  0.00000000000E+00 0. -1.
         -1   -1    0    0    0  501 -0.00000000000E+00 -0.00000000000E+00 -0.14954520440E+03  0.14954520440E+03  0.00000000000E+00 0.  1.
         25    2    1    2    0    0  0.17406005642E+03 -0.54405322265E+01  0.40905919422E+03  0.46184932682E+03  0.12509545827E+03 0.  0.
          5    1    3    3  502    0  0.86047955164E+02  0.26055770151E+02  0.82307849840E+02  0.12196396308E+03  0.41800000000E+01 0.  1.
         -5    1    3    3    0  502  0.88012101258E+02 -0.31496302377E+02  0.32675134438E+03  0.33988536374E+03  0.41800000000E+01 0.  1.
        -11    1    1    2    0    0 -0.77963896896E+02  0.35219244766E+02 -0.53958234907E+02  0.10114472569E+03  0.00000000000E+00 0.  1.
         11    1    1    2    0    0 -0.96096159525E+02 -0.29778712540E+02  0.98922496288E+01  0.10108956523E+03  0.00000000000E+00 0. -1.
</event>
<event>
 7    1  0.2686828E-009  0.1248365E+03  0.7561462E-02  0.1235325E+00
         -2   -1    0    0    0  501 -0.00000000000E+00  0.00000000000E+00  0.51821424213E+02  0.51821424213E+02  0.00000000000E+00 0. -1.
          2   -1    0    0  501    0  0.00000000000E+00 -0.00000000000E+00 -0.48687029695E+03  0.48687029695E+03  0.00000000000E+00 0.  1.
         25    2    1    2    0    0  0.58566589104E+02  0.98372289041E+02 -0.25916779673E+03  0.30971375596E+03  0.12509001224E+03 0.  0.
          5    1    3    3  502    0  0.49196148674E+00  0.44413534084E+02 -0.21354301915E+03  0.21815338059E+03  0.41800000000E+01 0.  1.
         -5    1    3    3    0  502  0.58074627618E+02  0.53958754958E+02 -0.45624777582E+02  0.91560375375E+02  0.41800000000E+01 0.  1.
        -11    1    1    2    0    0  0.93324317607E+01 -0.19407058686E+02  0.32452598404E+01  0.21777509519E+02  0.00000000000E+00 0. -1.
         11    1    1    2    0    0 -0.67899020865E+02 -0.78965230355E+02 -0.17912633585E+03  0.20720045568E+03  0.00000000000E+00 0.  1.
</event>
<event>
 7    1  0.2686828E-009  0.9498891E+02  0.7561462E-02  0.1291201E+00
          1   -1    0    0  501    0  0.00000000000E+00  0.00000000000E+00  0.39401194194E+03  0.39401194194E+03  0.00000000000E+00 0. -1.
         -1   -1    0    0    0  501 -0.00000000000E+00 -0.00000000000E+00 -0.50786308762E+02  0.50786308762E+02  0.00000000000E+00 0.  1.
         25    2    1    2    0    0 -0.41237311253E+02  0.75595383284E+02  0.20743840560E+03  0.25708381638E+03  0.12508484606E+03 0.  0.
          5    1    3    3  502    0 -0.34912364900E+02  0.59879896021E+02  0.24985582331E+02  0.73798556184E+02  0.41800000000E+01 0. -1.
         -5    1    3    3    0  502 -0.63249463533E+01  0.15715487263E+02  0.18245282327E+03  0.18328526020E+03  0.41800000000E+01 0. -1.
        -11    1    1    2    0    0 -0.14329962538E+02 -0.12528135419E+02 -0.84082484580E+01  0.20808667558E+02  0.00000000000E+00 0.  1.
         11    1    1    2    0    0  0.55567273791E+02 -0.63067247865E+02  0.14419547604E+03  0.16690576676E+03  0.00000000000E+00 0. -1.
</event>
<event>
 7    1  0.2686828E-009  0.9454950E+02  0.7561462E-02  0.1292194E+00
          1   -1    0    0  501    0  0.00000000000E+00  0.00000000000E+00  0.97418072244E+02  0.97418072244E+02  0.00000000000E+00 0. -1.
         -1   -1    0    0    0  501 -0.00000000000E+00 -0.00000000000E+00 -0.15622441244E+03  0.15622441244E+03  0.00000000000E+00 0.  1.
         25    2    1    2    0    0  0.45538064343E+02 -0.35908975373E+02 -0.37685143825E+02  0.14294621913E+03  0.12510108586E+03 0.  0.
          5    1    3    3  502    0 -0.27732736206E+02 -0.48940134082E+02 -0.38691843557E+02  0.68401553632E+02  0.41800000000E+01 0.  1.
         -5    1    3    3    0  502  0.73270800549E+02  0.13031158709E+02  0.10066997314E+01  0.74544665501E+02  0.41800000000E+01 0.  1.
        -11    1    1    2    0    0 -0.17825690903E+02  0.11402581451E+02 -0.55992630427E+02  0.59857737863E+02  0.00000000000E+00 0.  1.
         11    1    1    2    0    0 -0.27712373440E+02  0.24506393922E+02  0.34871434053E+02  0.50838527690E+02  0.00000000000E+00 0. -1.
</event>
<event>
 7    1  0.2950232E-009  0.1122459E+03  0.7561462E-02  0.1256466E+00
         -1   -1    0    0    0  501 -0.00000000000E+00  0.00000000000E+00  0.24701727562E+02  0.24701727562E+02  0.00000000000E+00 0.  1.
          1   -1    0    0  501    0  0.00000000000E+00 -0.00000000000E+00 -0.69310938969E+03  0.69310938969E+03  0.00000000000E+00 0. -1.
         25    2    1    2    0    0 -0.49325470087E+02  0.51139598459E+02 -0.31889896968E+03  0.34984868785E+03  0.12509712627E+03 0.  0.
          5    1    3    3  502    0  0.13105736543E+02 -0.14865963430E+02 -0.22285532692E+01  0.20376360046E+02  0.41800000000E+01 0. -1.
         -5    1    3    3    0  502 -0.62431206629E+02  0.66005561889E+02 -0.31667041641E+03  0.32947232781E+03  0.41800000000E+01 0. -1.
        -11    1    1    2    0    0 -0.71825069361E+01  0.20686488136E+02 -0.45170043737E+02  0.50198127938E+02  0.00000000000E+00 0.  1.
         11    1    1    2    0    0  0.56507977023E+02 -0.71826086595E+02 -0.30433864871E+03  0.31776430146E+03  0.00000000000E+00 0. -1.
</event>
<event>
 7    1  0.2686828E-009  0.1567399E+03  0.7561462E-02  0.1192427E+00
         -1   -1    0    0    0  501 -0.00000000000E+00  0.00000000000E+00  0.61156943312E+02  0.61156943312E+02  0.00000000000E+00 0.  1.
          1   -1    0    0  501    0  0.00000000000E+00 -0.00000000000E+00 -0.41729012215E+03  0.41729012215E+03  0.00000000000E+00 0. -1.
         25    2    1    2    0    0  0.74916620417E+02 -0.93224441274E+02 -0.20697647976E+03  0.26979583499E+03  0.12508890014E+03 0.  0.
          5    1    3    3  502    0  0.10751476753E+03 -0.49745294286E+02 -0.13984780242E+03  0.18332730234E+03  0.41800000000E+01 0.  1.
         -5    1    3    3    0  502 -0.32598147113E+02 -0.43479146988E+02 -0.67128677339E+02  0.86468532654E+02  0.41800000000E+01 0.  1.
        -11    1    1    2    0    0  0.11509495321E+02  0.33397698900E+02 -0.15403239960E+02  0.38537443813E+02  0.00000000000E+00 0. -1.
         11    1    1    2    0    0 -0.86426115738E+02  0.59826742375E+02 -0.13375345912E+03  0.17011378666E+03  0.00000000000E+00 0.  1.
</event>
<event>
 7    1  0.2686828E-009  0.1260001E+03  0.7561462E-02  0.1233514E+00
         -1   -1    0    0    0  501 -0.00000000000E+00  0.00000000000E+00  0.10444776161E+03  0.10444776161E+03  0.00000000000E+00 0.  1.
          1   -1    0    0  501    0  0.00000000000E+00 -0.00000000000E+00 -0.18894514068E+03  0.18894514068E+03  0.00000000000E+00 0. -1.
         25    2    1    2    0    0  0.37382634698E+02 -0.75033255094E+02 -0.79072745325E+02  0.17008023637E+03  0.12508931610E+03 0.  0.
          5    1    3    3  502    0 -0.38704463950E+02 -0.53334108347E+02 -0.13874878199E+02  0.67472566929E+02  0.41800000000E+01 0.  1.
         -5    1    3    3    0  502  0.76087098648E+02 -0.21699146746E+02 -0.65197867126E+02  0.10260766944E+03  0.41800000000E+01 0.  1.
        -11    1    1    2    0    0 -0.36565582241E+02  0.87193859966E+02  0.18609740045E+02  0.96364586052E+02  0.00000000000E+00 0.  1.
         11    1    1    2    0    0 -0.81705245614E+00 -0.12160604872E+02 -0.24034373790E+02  0.26948079876E+02  0.00000000000E+00 0. -1.
</event>
<event>
 7    1  0.2686828E-009  0.1711137E+03  0.7561462E-02  0.1176691E+00
          2   -1    0    0  501    0  0.00000000000E+00  0.00000000000E+00  0.15309999635E+03  0.15309999635E+03  0.00000000000E+00 0. -1.
         -2   -1    0    0    0  501 -0.00000000000E+00 -0.00000000000E+00 -0.22853356870E+03  0.22853356870E+03  0.00000000000E+00 0.  1.
         25    2    1    2    0    0  0.10300635078E+03  0.11093857145E+03 -0.52785799236E+02  0.20334699954E+03  0.12508391857E+03 0.  0.
          5    1    3    3  502    0  0.45552904158E+02 -0.88485078980E+01  0.21239966963E+02  0.51205192763E+02  0.41800000000E+01 0. -1.
         -5    1    3    3    0  502  0.57453446618E+02  0.11978707935E+03 -0.74025766199E+02  0.15214180677E+03  0.41800000000E+01 0. -1.
        -11    1    1    2    0    0 -0.96658260411E+02 -0.65322979647E+02 -0.47491659452E+02  0.12595780521E+03  0.00000000000E+00 0.  1.
         11    1    1    2    0    0 -0.63480903660E+01 -0.45615591802E+02  0.24843886334E+02  0.52328760304E+02  0.00000000000E+00 0. -1.
</event>
<event>
 7    1  0.2686828E-009  0.7788431E+02  0.7561462E-02  0.1335165E+00
         -2   -1    0    0    0  501 -0.00000000000E+00  0.00000000000E+00  0.68793266785E+03  0.68793266785E+03  0.00000000000E+00 0.  1.
          2   -1    0    0  501    0  0.00000000000E+00 -0.00000000000E+00 -0.28099775925E+02  0.28099775925E+02  0.00000000000E+00 0. -1.
         25    2    1    2    0    0 -0.47525225381E+02  0.53555145372E+02  0.47337919005E+03  0.49483570900E+03  0.12509084972E+03 0.  0.
          5    1    3    3  502    0 -0.73255220429E+01  0.18866104656E+02  0.23431495786E+01  0.20797978942E+02  0.41800000000E+01 0.  1.
         -5    1    3    3    0  502 -0.40199703339E+02  0.34689040715E+02  0.47103604047E+03  0.47403773006E+03  0.41800000000E+01 0.  1.
        -11    1    1    2    0    0  0.31491656196E+02 -0.65349483435E+01  0.43705373815E+01  0.32458150854E+02  0.00000000000E+00 0. -1.
         11    1    1    2    0    0  0.16033569185E+02 -0.47020197028E+02  0.18208316449E+03  0.18873858392E+03  0.00000000000E+00 0.  1.
</event>
<event>
 7    1  0.2686828E-009  0.1058045E+03  0.7561462E-02  0.1268543E+00
         -1   -1    0    0    0  501 -0.00000000000E+00  0.00000000000E+00  0.15935411013E+03  0.15935411013E+03  0.00000000000E+00 0.  1.
          1   -1    0    0  501    0  0.00000000000E+00 -0.00000000000E+00 -0.11860322403E+03  0.11860322403E+03  0.00000000000E+00 0. -1.
         25    2    1    2    0    0  0.29621355944E+02 -0.73665380853E+02 -0.77078306645E+01  0.14836601208E+03  0.12509616230E+03 0.  0.
          5    1    3    3  502    0  0.31707877545E+02 -0.93804039832E+02  0.31541941231E+02  0.10400458569E+03  0.41800000000E+01 0. -1.
         -5    1    3    3    0  502 -0.20865216006E+01  0.20138658979E+02 -0.39249771896E+02  0.44361426394E+02  0.41800000000E+01 0. -1.
        -11    1    1    2    0    0  0.12146699375E+02  0.24283538753E+02  0.58164562928E+02  0.64189944233E+02  0.00000000000E+00 0.  1.
         11    1    1    2    0    0 -0.41768055319E+02  0.49381842100E+02 -0.97058461704E+01  0.65401377847E+02  0.00000000000E+00 0. -1.
</event>
<event>
 7    1  0.2686828E-009  0.1420967E+03  0.7561462E-02  0.1210535E+00
          2   -1    0    0  501    0  0.00000000000E+00  0.00000000000E+00  0.10132011268E+04  0.10132011268E+04  0.00000000000E+00 0.  1.
         -2   -1    0    0    0  501 -0.00000000000E+00 -0.00000000000E+00 -0.21746246799E+02  0.21746246799E+02  0.00000000000E+00 0. -1.
         25    2    1    2    0    0 -0.98410349926E+02  0.14849359264E+02  0.59274929153E+03  0.61392465850E+03  0.12508662301E+03 0.  0.
          5    1    3    3  502    0 -0.37181208553E+02  0.61554467116E+02  0.17724229539E+03  0.19132093028E+03  0.41800000000E+01 0.  1.
         -5    1    3    3    0  502 -0.61229141373E+02 -0.46705107853E+02  0.41550699615E+03  0.42260372822E+03  0.41800000000E+01 0.  1.
        -11    1    1    2    0    0 -0.14977423645E+02  0.11192467403E+02  0.47403489661E+02  0.50957682224E+02  0.00000000000E+00 0. -1.
         11    1    1    2    0    0  0.11338777357E+03 -0.26041826667E+02  0.35130209879E+03  0.37006503286E+03  0.00000000000E+00 0.  1.
</event>
<event>
 7    1  0.2686828E-009  0.3069841E+03  0.7561462E-02  0.1081801E+00
          2   -1    0    0  501    0  0.00000000000E+00  0.00000000000E+00  0.78270990292E+03  0.78270990292E+03  0.00000000000E+00 0. -1.
         -2   -1    0    0    0  501 -0.00000000000E+00 -0.00000000000E+00 -0.16485913353E+03  0.16485913353E+03  0.00000000000E+00 0.  1.
         25    2    1    2    0    0  0.22899323929E+03  0.20264462942E+03  0.11342987965E+03  0.34930876999E+03  0.12509008642E+03 0.  0.
          5    1    3    3  502    0  0.13471388559E+03  0.14159024871E+03  0.86938025809E+01  0.19567494501E+03  0.41800000000E+01 0.  1.
         -5    1    3    3    0  502  0.94279353701E+02  0.61054380710E+02  0.10473607707E+03  0.15363382498E+03  0.41800000000E+01 0.  1.
        -11    1    1    2    0    0 -0.47636871936E+02 -0.49764925633E+02  0.48249968222E+02  0.84106354246E+02  0.00000000000E+00 0.  1.
         11    1    1    2    0    0 -0.18135636736E+03 -0.15287970379E+03  0.45617092151E+03  0.51415391221E+03  0.00000000000E+00 0. -1.
</event>
<event>
 7    1  0.2686828E-009  0.1623172E+03  0.7561462E-02  0.1186105E+00
         -1   -1    0    0    0  501 -0.00000000000E+00  0.00000000000E+00  0.45475476539E+02  0.45475476539E+02  0.00000000000E+00 0.  1.
          1   -1    0    0  501    0  0.00000000000E+00 -0.00000000000E+00 -0.71739389082E+03  0.71739389082E+03  0.00000000000E+00 0. -1.
         25    2    1    2    0    0  0.10602541538E+03 -0.87121739224E+02 -0.33299030461E+03  0.38126337502E+03  0.12509049530E+03 0.  0.
          5    1    3    3  502    0 -0.27023030596E+02 -0.30379833318E+02 -0.68035472450E+02  0.79369240682E+02  0.41800000000E+01 0. -1.
         -5    1    3    3    0  502  0.13304844597E+03 -0.56741905906E+02 -0.26495483216E+03  0.30189413433E+03  0.41800000000E+01 0. -1.
        -11    1    1    2    0    0 -0.51066567638E+02  0.56443523851E+02 -0.63644145810E+02  0.99218158676E+02  0.00000000000E+00 0.  1.
         11    1    1    2    0    0 -0.54958847738E+02  0.30678215372E+02 -0.27528396386E+03  0.28238783367E+03  0.00000000000E+00 0. -1.
</event>
<event>
 7    1  0.2686828E-009  0.1366616E+03  0.7561462E-02  0.1217893E+00
         -1   -1    0    0    0  501 -0.00000000000E+00  0.00000000000E+00  0.54690153685E+02  0.54690153685E+02  0.00000000000E+00 0.  1.
          1   -1    0    0  501    0  0.00000000000E+00 -0.00000000000E+00 -0.57839646025E+03  0.57839646025E+03  0.00000000000E+00 0. -1.
         25    2    1    2    0    0  0.10381433529E+03 -0.56725349577E+02 -0.41252974094E+03  0.44701680657E+03  0.12509219281E+03 0.  0.
          5    1    3    3  502    0  0.85624684111E+02 -0.10647550467E+02 -0.10723949979E+03  0.13770526342E+03  0.41800000000E+01 0. -1.
         -5    1    3    3    0  502  0.18189651175E+02 -0.46077799110E+02 -0.30529024115E+03  0.30931154314E+03  0.41800000000E+01 0. -1.
        -11    1    1    2    0    0 -0.11407303376E+03  0.48016622572E+02 -0.68791533525E+02  0.14159988757E+03  0.00000000000E+00 0.  1.
         11    1    1    2    0    0  0.10258698476E+02  0.87087270056E+01 -0.42385032102E+02  0.44469919797E+02  0.00000000000E+00 0. -1.
</event>
<event>
 7    1  0.2686828E-009  0.2533757E+03  0.7561462E-02  0.1111190E+00
          2   -1    0    0  501    0  0.00000000000E+00  0.00000000000E+00  0.85026156207E+03  0.85026156207E+03  0.00000000000E+00 0. -1.
         -2   -1    0    0    0  501 -0.00000000000E+00 -0.00000000000E+00 -0.10841364938E+03  0.10841364938E+03  0.00000000000E+00 0.  1.
         25    2    1    2    0    0 -0.42610354421E+02  0.23360218544E+03  0.13202766131E+03  0.29910656249E+03  0.12509120285E+03 0.  0.
          5    1    3    3  502    0 -0.59323070253E+02  0.51368163067E+02  0.71691726555E+02  0.10637241606E+03  0.41800000000E+01 0.  1.
         -5    1    3    3    0  502  0.16712715832E+02  0.18223402237E+03  0.60335934753E+02  0.19273414644E+03  0.41800000000E+01 0.  1.
        -11    1    1    2    0    0  0.58252501587E+02 -0.19342949583E+03  0.43668199092E+03  0.48114393376E+03  0.00000000000E+00 0. -1.
         11    1    1    2    0    0 -0.15642147165E+02 -0.40172689605E+02  0.17313826046E+03  0.17842471520E+03  0.00000000000E+00 0.  1.
</event>
<event>
 7    1  0.2686828E-009  0.2961800E+03  0.7561462E-02  0.1087166E+00
          2   -1    0    0  501    0  0.00000000000E+00  0.00000000000E+00  0.18753704833E+04  0.18753704833E+04  0.00000000000E+00 0. -1.
         -2   -1    0    0    0  501 -0.00000000000E+00 -0.00000000000E+00 -0.50628048584E+02  0.50628048584E+02  0.00000000000E+00 0.  1.
         25    2    1    2    0    0 -0.28334051997E+03  0.49619041141E+02  0.89677736083E+03  0.95005227771E+03  0.12508315632E+03 0.  0.
          5    1    3    3  502    0 -0.33159262642E+02  0.39964248888E+02  0.77660254078E+02  0.93516123485E+02  0.41800000000E+01 0. -1.
         -5    1    3    3    0  502 -0.25018125733E+03  0.96547922530E+01  0.81911710675E+03  0.85653615423E+03  0.41800000000E+01 0. -1.
        -11    1    1    2    0    0  0.10071001808E+03 -0.35107934727E+02  0.48502754468E+03  0.49661533799E+03  0.00000000000E+00 0. -1.
         11    1    1    2    0    0  0.18263050189E+03 -0.14511106413E+02  0.44293752921E+03  0.47933091619E+03  0.00000000000E+00 0.  1.
</event>
<event>
 7    1  0.2686828E-009  0.1360472E+03  0.7561462E-02  0.1218749E+00
         -2   -1    0    0    0  501 -0.00000000000E+00  0.00000000000E+00  0.55504631601E+02  0.55504631601E+02  0.00000000000E+00 0.  1.
          2   -1    0    0  501    0  0.00000000000E+00 -0.00000000000E+00 -0.47149393444E+03  0.47149393444E+03  0.00000000000E+00 0. -1.
         25    2    1    2    0    0  0.27080068332E+02  0.10915140231E+03 -0.15806679453E+03  0.23082422736E+03  0.12508938275E+03 0.  0.
          5    1    3    3  502    0  0.54300265554E+02  0.35405589754E+02 -0.13332504162E+03  0.14830749728E+03  0.41800000000E+01 0.  1.
         -5    1    3    3    0  502 -0.27220197222E+02  0.73745812558E+02 -0.24741752904E+02  0.82516730082E+02  0.41800000000E+01 0.  1.
        -11    1    1    2    0    0  0.11927753867E+02 -0.76850965663E+02 -0.21870197420E+03  0.23211827966E+03  0.00000000000E+00 0. -1.
         11    1    1    2    0    0 -0.39007822199E+02 -0.32300436650E+02 -0.39220534108E+02  0.64056059013E+02  0.00000000000E+00 0.  1.
</event>
<event>
 7    1  0.2686828E-009  0.1003079E+03  0.7561462E-02  0.1279650E+00
          2   -1    0    0  501    0  0.00000000000E+00  0.00000000000E+00  0.82707841297E+02  0.82707841297E+02  0.00000000000E+00 0.  1.
         -2   -1    0    0    0  501 -0.00000000000E+00 -0.00000000000E+00 -0.25432136124E+03  0.25432136124E+03  0.00000000000E+00 0. -1.
         25    2    1    2    0    0 -0.14441219249E+02  0.10014900604E+02 -0.12251726252E+03  0.17596558131E+03  0.12507821210E+03 0.  0.
          5    1    3    3  502    0 -0.57206901594E+01 -0.56746167819E+02 -0.42163094669E+02  0.71049650316E+02  0.41800000000E+01 0. -1.
         -5    1    3    3    0  502 -0.87205290892E+01  0.66761068423E+02 -0.80354167850E+02  0.10491593099E+03  0.41800000000E+01 0. -1.
        -11    1    1    2    0    0 -0.28935869755E+02 -0.14494751843E+02  0.46116716925E+02  0.56339453045E+02  0.00000000000E+00 0.  1.
         11    1    1    2    0    0  0.43377089004E+02  0.44798512385E+01 -0.95212974353E+02  0.10472416819E+03  0.00000000000E+00 0. -1.
</event>
<event>
 7    1  0.2686828E-009  0.1145873E+03  0.7561462E-02  0.1252303E+00
          1   -1    0    0  501    0  0.00000000000E+00  0.00000000000E+00  0.24091962973E+02  0.24091962973E+02  0.00000000000E+00 0. -1.
         -1   -1    0    0    0  501 -0.00000000000E+00 -0.00000000000E+00 -0.10478370948E+04  0.10478370948E+04  0.00000000000E+00 0.  1.
         25    2    1    2    0    0  0.68954575470E+02  0.51510709044E+02 -0.78353105508E+03  0.79810763141E+03  0.12508713128E+03 0.  0.
          5    1    3    3  502    0  0.30193676550E+02 -0.36058707283E+02 -0.40010508391E+03  0.40288142058E+03  0.41800000000E+01 0.  1.
         -5    1    3    3    0  502  0.38760898920E+02  0.87569416326E+02 -0.38342597117E+03  0.39522621083E+03  0.41800000000E+01 0.  1.
        -11    1    1    2    0    0 -0.34520126141E+02 -0.24305870809E+02 -0.15675843475E+02  0.45034947909E+02  0.00000000000E+00 0. -1.
         11    1    1    2    0    0 -0.34434449329E+02 -0.27204838234E+02 -0.22453823330E+03  0.22878647849E+03  0.00000000000E+00 0.  1.
</event>
<event>
 7    1  0.2686828E-009  0.1221244E+03  0.7561462E-02  0.1239633E+00
         -1   -1    0    0    0  501 -0.00000000000E+00  0.00000000000E+00  0.15729117848E+03  0.15729117848E+03  0.00000000000E+00 0.  1.
          1   -1    0    0  501    0  0.00000000000E+00 -0.00000000000E+00 -0.12991663263E+03  0.12991663263E+03  0.00000000000E+00 0. -1.
         25    2    1    2    0    0 -0.75124609008E+02 -0.21778823138E+02 -0.35209886981E+02  0.15167179680E+03  0.12508626538E+03 0.  0.
          5    1    3    3  502    0 -0.98171216398E+02 -0.11797056449E+02  0.10324105611E+02  0.99502853359E+02  0.41800000000E+01 0.  1.
         -5    1    3    3    0  502  0.23046607390E+02 -0.99817666892E+01 -0.45533992592E+02  0.52168943442E+02  0.41800000000E+01 0.  1.
        -11    1    1    2    0    0  0.41527529375E+02 -0.34692762335E+02  0.33776613359E+02  0.63788580988E+02  0.00000000000E+00 0.  1.
         11    1    1    2    0    0  0.33597079633E+02  0.56471585473E+02  0.28807819475E+02  0.71747433324E+02  0.00000000000E+00 0. -1.
</event>
<event>
 7    1  0.2686828E-009  0.2032804E+03  0.7561462E-02  0.1147000E+00
         -2   -1    0    0    0  501 -0.00000000000E+00  0.00000000000E+00  0.28068539125E+02  0.28068539125E+02  0.00000000000E+00 0.  1.
          2   -1    0    0  501    0  0.00000000000E+00 -0.00000000000E+00 -0.19897714237E+04  0.19897714237E+04  0.00000000000E+00 0. -1.
         25    2    1    2    0    0 -0.18171488322E+03  0.30124433778E+01 -0.14619277349E+04  0.14784822931E+04  0.12509122738E+03 0.  0.
          5    1    3    3  502    0 -0.71287809514E+02 -0.43764595934E+02 -0.89977075274E+03  0.90366042933E+03  0.41800000000E+01 0. -1.
         -5    1    3    3    0  502 -0.11042707371E+03  0.46777039312E+02 -0.56215698217E+03  0.57482186373E+03  0.41800000000E+01 0. -1.
        -11    1    1    2    0    0  0.11506857083E+03 -0.45536049548E+02 -0.30406821461E+03  0.32828613577E+03  0.00000000000E+00 0. -1.
         11    1    1    2    0    0  0.66646312393E+02  0.42523606170E+02 -0.19570693501E+03  0.21107153396E+03  0.00000000000E+00 0.  1.
</event>
<event>
 7    1  0.2686828E-009  0.1737196E+03  0.7561462E-02  0.1174023E+00
         -1   -1    0    0    0  501 -0.00000000000E+00  0.00000000000E+00  0.32295513183E+03  0.32295513183E+03  0.00000000000E+00 0.  1.
          1   -1    0    0  501    0  0.00000000000E+00 -0.00000000000E+00 -0.94690562237E+02  0.94690562237E+02  0.00000000000E+00 0. -1.
         25    2    1    2    0    0  0.34911815122E+02 -0.13064276419E+03  0.99819591559E+02  0.20951892029E+03  0.12509140830E+03 0.  0.
          5    1    3    3  502    0  0.33882709246E+02 -0.15531582305E+03  0.83348259909E+02  0.17954232845E+03  0.41800000000E+01 0. -1.
         -5    1    3    3    0  502  0.10291058759E+01  0.24673058858E+02  0.16471331650E+02  0.29976591845E+02  0.41800000000E+01 0. -1.
        -11    1    1    2    0    0  0.25799181788E+02  0.88336545989E+01  0.27037092317E+02  0.38400984304E+02  0.00000000000E+00 0.  1.
         11    1    1    2    0    0 -0.60710996910E+02  0.12180910959E+03  0.10140788572E+03  0.16972578947E+03  0.00000000000E+00 0. -1.
</event>
<event>
 7    1  0.2686828E-009  0.2070844E+03  0.7561462E-02  0.1143896E+00
         -1   -1    0    0    0  501 -0.00000000000E+00  0.00000000000E+00  0.11763169520E+03  0.11763169520E+03  0.00000000000E+00 0.  1.
          1   -1    0    0  501    0  0.00000000000E+00 -0.00000000000E+00 -0.45255910445E+03  0.45255910445E+03  0.00000000000E+00 0. -1.
         25    2    1    2    0    0 -0.17448699891E+03  0.85825898186E+02 -0.24613619384E+03  0.33770446114E+03  0.12509787996E+03 0.  0.
          5    1    3    3  502    0 -0.17376677490E+03  0.90738260585E+02 -0.25807722097E+03  0.32411363498E+03  0.41800000000E+01 0. -1.
         -5    1    3    3    0  502 -0.72022400828E+00 -0.49123623987E+01  0.11941027132E+02  0.13590826168E+02  0.41800000000E+01 0. -1.
        -11    1    1    2    0    0  0.14903265944E+03 -0.32531958805E+02 -0.81581241264E+02  0.17298716961E+03  0.00000000000E+00 0.  1.
         11    1    1    2    0    0  0.25454339470E+02 -0.53293939382E+02 -0.72099741514E+01  0.59499168901E+02  0.00000000000E+00 0. -1.
</event>
<event>
 7    1  0.2686828E-009  0.2163033E+03  0.7561462E-02  0.1136669E+00
          1   -1    0    0  501    0  0.00000000000E+00  0.00000000000E+00  0.34700610475E+03  0.34700610475E+03  0.00000000000E+00 0. -1.
         -1   -1    0    0    0  501 -0.00000000000E+00 -0.00000000000E+00 -0.13942912179E+03  0.13942912179E+03  0.00000000000E+00 0.  1.
         25    2    1    2    0    0 -0.12309587903E+02 -0.19021788245E+03  0.13457355579E+03  0.26474013621E+03  0.12507169560E+03 0.  0.
          5    1    3    3  502    0 -0.17883320080E+02 -0.20568270342E+03  0.13669647601E+03  0.24764609139E+03  0.41800000000E+01 0. -1.
         -5    1    3    3    0  502  0.55737321767E+01  0.15464820970E+02 -0.21229202243E+01  0.17094044820E+02  0.41800000000E+01 0. -1.
        -11    1    1    2    0    0  0.49108886576E+02  0.12430662331E+03  0.42141703429E+02  0.14014186565E+03  0.00000000000E+00 0. -1.
         11    1    1    2    0    0 -0.36799298673E+02  0.65911259140E+02  0.30861723739E+02  0.81553224684E+02  0.00000000000E+00 0.  1.
</event>
<event>
 7    1  0.2686828E-009  0.2299797E+03  0.7561462E-02  0.1126654E+00
          1   -1    0    0  501    0  0.00000000000E+00  0.00000000000E+00  0.20842592666E+03  0.20842592666E+03  0.00000000000E+00 0. -1.
         -1   -1    0    0    0  501 -0.00000000000E+00 -0.00000000000E+00 -0.28225802090E+03  0.28225802090E+03  0.00000000000E+00 0.  1.
         25    2    1    2    0    0 -0.86974787466E+02  0.19467249423E+03 -0.11317835573E+01  0.24720566898E+03  0.12508944072E+03 0.  0.
          5    1    3    3  502    0  0.17019874803E+02  0.11320785452E+03  0.71289093254E+01  0.11477799533E+03  0.41800000000E+01 0. -1.
         -5    1    3    3    0  502 -0.10399466227E+03  0.81464639707E+02 -0.82606928827E+01  0.13242767366E+03  0.41800000000E+01 0. -1.
        -11    1    1    2    0    0  0.57879361175E+02 -0.13244438183E+03 -0.92968410829E+02  0.17185651033E+03  0.00000000000E+00 0.  1.
         11    1    1    2    0    0  0.29095426291E+02 -0.62228112393E+02  0.20268100145E+02  0.71621768244E+02  0.00000000000E+00 0. -1.
</event>
<event>
 7    1  0.2686828E-009  0.1806172E+03  0.7561462E-02  0.1167207E+00
         -2   -1    0    0    0  501 -0.00000000000E+00  0.00000000000E+00  0.49513296794E+02  0.49513296794E+02  0.00000000000E+00 0.  1.
          2   -1    0    0  501    0  0.00000000000E+00 -0.00000000000E+00 -0.80522555623E+03  0.80522555623E+03  0.00000000000E+00 0. -1.
         25    2    1    2    0    0  0.10833883567E+03  0.12117685144E+03 -0.32027878800E+03  0.38032498495E+03  0.12508980574E+03 0.  0.
          5    1    3    3  502    0  0.10477236749E+03  0.80225547179E+02 -0.31116206906E+03  0.33801285927E+03  0.41800000000E+01 0. -1.
         -5    1    3    3    0  502  0.35664681783E+01  0.40951304263E+02 -0.91167189414E+01  0.42312125689E+02  0.41800000000E+01 0. -1.
        -11    1    1    2    0    0 -0.30208439859E+01 -0.71290863088E+02 -0.14997088304E+03  0.16608063830E+03  0.00000000000E+00 0.  1.
         11    1    1    2    0    0 -0.10531799168E+03 -0.49885988354E+02 -0.28546258840E+03  0.30833322977E+03  0.00000000000E+00 0. -1.
</event>
<event>
 7    1  0.2686828E-009  0.1493985E+03  0.7561462E-02  0.1201214E+00
         -1   -1    0    0    0  501 -0.00000000000E+00  0.00000000000E+00  0.29705345941E+03  0.29705345941E+03  0.00000000000E+00 0.  1.
          1   -1    0    0  501    0  0.00000000000E+00 -0.00000000000E+00 -0.10023588454E+03  0.10023588454E+03  0.00000000000E+00 0. -1.
         25    2    1    2    0    0  0.13188233410E+03  0.99704664026E+01  0.10994001319E+03  0.21266624593E+03  0.12509102849E+03 0.  0.
          5    1    3    3  502    0  0.13093777492E+03  0.30383644227E+02  0.40929208383E+02  0.14057218514E+03  0.41800000000E+01 0. -1.
         -5    1    3    3    0  502  0.94455918841E+00 -0.20413177824E+02  0.69010804811E+02  0.72094060793E+02  0.41800000000E+01 0. -1.
        -11    1    1    2    0    0 -0.12793528078E+03  0.49424527992E+01  0.10148808974E+03  0.16337593540E+03  0.00000000000E+00 0.  1.
         11    1    1    2    0    0 -0.39470533253E+01 -0.14912919202E+02 -0.14610528065E+02  0.21247162620E+02  0.00000000000E+00 0. -1.
</event>
<event>
 7    1  0.2686828E-009  0.1643906E+03  0.7561462E-02  0.1183827E+00
          2   -1    0    0  501    0  0.00000000000E+00  0.00000000000E+00  0.18392924512E+03  0.18392924512E+03  0.00000000000E+00 0. -1.
         -2   -1    0    0    0  501 -0.00000000000E+00 -0.00000000000E+00 -0.16847830233E+03  0.16847830233E+03  0.00000000000E+00 0.  1.
         25    2    1    2    0    0  0.13123504187E+03  0.38246017956E+02 -0.48584992855E+01  0.18535592638E+03  0.12509124800E+03 0.  0.
          5    1    3    3  502    0  0.55925919973E+02 -0.38569612220E+02 -0.30661385272E+02  0.74651968885E+02  0.41800000000E+01 0.  1.
         -5    1    3    3    0  502  0.75309121899E+02  0.76815630175E+02  0.25802885987E+02  0.11070395750E+03  0.41800000000E+01 0.  1.
        -11    1    1    2    0    0 -0.60081465359E+02 -0.53319557042E+02  0.42670808277E+02  0.90959087077E+02  0.00000000000E+00 0. -1.
         11    1    1    2    0    0 -0.71153576513E+02  0.15073539086E+02 -0.22361366198E+02  0.76092533992E+02  0.00000000000E+00 0.  1.
</event>
<event>
 7    1  0.2686828E-009  0.1163756E+03  0.7561462E-02  0.1249199E+00
         -2   -1    0    0    0  501 -0.00000000000E+00  0.00000000000E+00  0.19791516843E+03  0.19791516843E+03  0.00000000000E+00 0. -1.
          2   -1    0    0  501    0  0.00000000000E+00 -0.00000000000E+00 -0.19674928399E+03  0.19674928399E+03  0.00000000000E+00 0.  1.
         25    2    1    2    0    0 -0.87448627405E+02 -0.33369177546E+02  0.13613961340E+03  0.20722192840E+03  0.12508464664E+03 0.  0.
          5    1    3    3  502    0 -0.92896984271E+01 -0.49505423915E+02  0.13965709072E+01  0.50561925439E+02  0.41800000000E+01 0.  1.
         -5    1    3    3    0  502 -0.78158928978E+02  0.16136246369E+02  0.13474304250E+03  0.15666000296E+03  0.41800000000E+01 0.  1.
        -11    1    1    2    0    0  0.16738037680E+02  0.26373030385E+02  0.38679569652E+01  0.31474747468E+02  0.00000000000E+00 0. -1.
         11    1    1    2    0    0  0.70710589725E+02  0.69961471603E+01 -0.13884168592E+03  0.15596777656E+03  0.00000000000E+00 0.  1.
</event>
<event>
 7    1  0.2686828E-009  0.1087954E+03  0.7561462E-02  0.1262817E+00
          4   -1    0    0  501    0  0.00000000000E+00  0.00000000000E+00  0.86382175565E+03  0.86382175565E+03  0.00000000000E+00 0. -1.
         -4   -1    0    0    0  501 -0.00000000000E+00 -0.00000000000E+00 -0.15432492344E+02  0.15432492344E+02  0.00000000000E+00 0.  1.
         25    2    1    2    0    0  0.11396271838E+02 -0.26473381769E+02  0.57170365637E+03  0.58593998464E+03  0.12509948018E+03 0.  0.
          5    1    3    3  502    0  0.33670392713E+02  0.43303150326E+02  0.24512615333E+03  0.25122333017E+03  0.41800000000E+01 0.  1.
         -5    1    3    3    0  502 -0.22274120875E+02 -0.69776532095E+02  0.32657750303E+03  0.33471665447E+03  0.41800000000E+01 0.  1.
        -11    1    1    2    0    0  0.33101771312E+02  0.29870165843E+02  0.79575026290E+02  0.91214795294E+02  0.00000000000E+00 0.  1.
         11    1    1    2    0    0 -0.44498043150E+02 -0.33967840742E+01  0.19711058065E+03  0.20209946806E+03  0.00000000000E+00 0. -1.
</event>
<event>
 7    1  0.2686828E-009  0.1114752E+03  0.7561462E-02  0.1257862E+00
         -2   -1    0    0    0  501 -0.00000000000E+00  0.00000000000E+00  0.18018144342E+02  0.18018144342E+02  0.00000000000E+00 0.  1.
          2   -1    0    0  501    0  0.00000000000E+00 -0.00000000000E+00 -0.11019250251E+04  0.11019250251E+04  0.00000000000E+00 0. -1.
         25    2    1    2    0    0 -0.17256483039E+02  0.85289932409E+02 -0.52040848686E+03  0.54225809496E+03  0.12508672820E+03 0.  0.
          5    1    3    3  502    0 -0.23813407414E+02  0.15921021850E+02 -0.41391661544E+03  0.41492769761E+03  0.41800000000E+01 0. -1.
         -5    1    3    3    0  502  0.65569243748E+01  0.69368910559E+02 -0.10649187143E+03  0.12733039735E+03  0.41800000000E+01 0. -1.
        -11    1    1    2    0    0  0.40205669169E+02 -0.47887919765E+01 -0.12930387513E+03  0.13549509395E+03  0.00000000000E+00 0.  1.
         11    1    1    2    0    0 -0.22949186130E+02 -0.80501140432E+02 -0.43419451877E+03  0.44218998053E+03  0.00000000000E+00 0. -1.
</event>
<event>
 7    1  0.2686828E-009  0.1413567E+03  0.7561462E-02  0.1211515E+00
         -2   -1    0    0    0  501 -0.00000000000E+00  0.00000000000E+00  0.58452709703E+02  0.58452709703E+02  0.00000000000E+00 0.  1.
          2   -1    0    0  501    0  0.00000000000E+00 -0.00000000000E+00 -0.57571066173E+03  0.57571066173E+03  0.00000000000E+00 0. -1.
         25    2    1    2    0    0 -0.17204840379E+02  0.13162105701E+03 -0.38482286732E+03  0.42586177240E+03  0.12509796479E+03 0.  0.
          5    1    3    3  502    0 -0.18182974981E+02  0.13840548944E+03 -0.21833309951E+03  0.25917853852E+03  0.41800000000E+01 0.  1.
         -5    1    3    3    0  502  0.97813460238E+00 -0.67844324297E+01 -0.16648976781E+03  0.16668323388E+03  0.41800000000E+01 0.  1.
        -11    1    1    2    0    0 -0.22455600955E+01 -0.77240645571E+02 -0.16847635798E+02  0.79088575030E+02  0.00000000000E+00 0.  1.
         11    1    1    2    0    0  0.19450400475E+02 -0.54380411442E+02 -0.11558744891E+03  0.12921302401E+03  0.00000000000E+00 0. -1.
</event>
<event>
 7    1  0.2686828E-009  0.4996426E+02  0.7561462E-02  0.1445534E+00
          3   -1    0    0  501    0  0.00000000000E+00  0.00000000000E+00  0.21913528600E+03  0.21913528600E+03  0.00000000000E+00 0. -1.
         -3   -1    0    0    0  501 -0.00000000000E+00 -0.00000000000E+00 -0.64291319962E+02  0.64291319962E+02  0.00000000000E+00 0.  1.
         25    2    1    2    0    0  0.29405000283E+02  0.18307545689E+02  0.13507308718E+03  0.18732667099E+03  0.12508685987E+03 0.  0.
          5    1    3    3  502    0  0.23060286343E+02  0.23627825921E+02 -0.15328068687E+02  0.36639774203E+02  0.41800000000E+01 0. -1.
         -5    1    3    3    0  502  0.63447139401E+01 -0.53202802320E+01  0.15040115587E+03  0.15068689679E+03  0.41800000000E+01 0. -1.
        -11    1    1    2    0    0 -0.41478221716E+02 -0.18211243716E+02 -0.23600701628E+02  0.51079207039E+02  0.00000000000E+00 0.  1.
         11    1    1    2    0    0  0.12073221433E+02 -0.96301973333E-01  0.43371580485E+02  0.45020727933E+02  0.00000000000E+00 0. -1.
</event>
<event>
 7    1  0.2686828E-009  0.1076840E+03  0.7561462E-02  0.1264920E+00
         -4   -1    0    0    0  501 -0.00000000000E+00  0.00000000000E+00  0.11697799162E+03  0.11697799162E+03  0.00000000000E+00 0. -1.
          4   -1    0    0  501    0  0.00000000000E+00 -0.00000000000E+00 -0.11014974853E+03  0.11014974853E+03  0.00000000000E+00 0.  1.
         25    2    1    2    0    0 -0.98507700979E+01 -0.33381357714E+02  0.29186445408E+01  0.12987666654E+03  0.12509227519E+03 0.  0.
          5    1    3    3  502    0  0.44946769910E+02  0.16072342154E+02 -0.20795614819E+02  0.52234684869E+02  0.41800000000E+01 0. -1.
         -5    1    3    3    0  502 -0.54797540008E+02 -0.49453699868E+02  0.23714259360E+02  0.77641981676E+02  0.41800000000E+01 0. -1.
        -11    1    1    2    0    0  0.16904748732E+02 -0.27473221442E+02  0.13998229690E+02  0.35163885743E+02  0.00000000000E+00 0. -1.
         11    1    1    2    0    0 -0.70539786341E+01  0.60854579155E+02 -0.10088631138E+02  0.62087187865E+02  0.00000000000E+00 0.  1.
</event>
<event>
 7    1  0.2686828E-009  0.1387362E+03  0.7561462E-02  0.1215040E+00
          3   -1    0    0  501    0  0.00000000000E+00  0.00000000000E+00  0.24084043360E+03  0.24084043360E+03  0.00000000000E+00 0. -1.
         -3   -1    0    0    0  501 -0.00000000000E+00 -0.00000000000E+00 -0.11418595899E+03  0.11418595899E+03  0.00000000000E+00 0.  1.
         25    2    1    2    0    0 -0.11414693189E+03  0.33598473858E+02  0.10556326270E+03  0.20235993668E+03  0.12509021559E+03 0.  0.
          5    1    3    3  502    0 -0.32714219093E+02  0.33950158183E+02 -0.21018052825E+02  0.51788650456E+02  0.41800000000E+01 0. -1.
         -5    1    3    3    0  502 -0.81432712794E+02 -0.35168432472E+00  0.12658131553E+03  0.15057128623E+03  0.41800000000E+01 0. -1.
        -11    1    1    2    0    0  0.71175647620E+01 -0.40716629210E+02 -0.66644099730E+01  0.41867863364E+02  0.00000000000E+00 0.  1.
         11    1    1    2    0    0  0.10702936713E+03  0.71181553517E+01  0.27755621879E+02  0.11079859254E+03  0.00000000000E+00 0. -1.
</event>
<event>
 7    1  0.2686828E-009  0.1057067E+03  0.7561462E-02  0.1268733E+00
          2   -1    0    0  501    0  0.00000000000E+00  0.00000000000E+00  0.49276189472E+02  0.49276189472E+02  0.00000000000E+00 0. -1.
         -2   -1    0    0    0  501 -0.00000000000E+00 -0.00000000000E+00 -0.33061225624E+03  0.33061225624E+03  0.00000000000E+00 0.  1.
         25    2    1    2    0    0 -0.24405953301E+01 -0.50793495761E+02 -0.22389436137E+03  0.26146211017E+03  0.12509122384E+03 0.  0.
          5    1    3    3  502    0 -0.14475384851E+02 -0.90512938991E+02 -0.17136875872E+03  0.19438840695E+03  0.41800000000E+01 0. -1.
         -5    1    3    3    0  502  0.12034789521E+02  0.39719443230E+02 -0.52525602648E+02  0.67073703214E+02  0.41800000000E+01 0. -1.
        -11    1    1    2    0    0  0.17244323633E+02  0.58685386180E+02 -0.73212517673E+02  0.95401331189E+02  0.00000000000E+00 0.  1.
         11    1    1    2    0    0 -0.14803728303E+02 -0.78918904195E+01  0.15770812272E+02  0.23025004360E+02  0.00000000000E+00 0. -1.
</event>
<event>
 7    1  0.2686828E-009  0.8474822E+02  0.7561462E-02  0.1316092E+00
         -1   -1    0    0    0  501 -0.00000000000E+00  0.00000000000E+00  0.56563437828E+03  0.56563437828E+03  0.00000000000E+00 0.  1.
          1   -1    0    0  501    0  0.00000000000E+00 -0.00000000000E+00 -0.40797574701E+02  0.40797574701E+02  0.00000000000E+00 0. -1.
         25    2    1    2    0    0 -0.21460747046E+01  0.21208924726E+02  0.48860456397E+03  0.50481278277E+03  0.12508837512E+03 0.  0.
          5    1    3    3  502    0  0.30160683146E+02  0.65258538273E+02  0.28699560645E+03  0.29589236919E+03  0.41800000000E+01 0.  1.
         -5    1    3    3    0  502 -0.32306757851E+02 -0.44049613547E+02  0.20160895752E+03  0.20892041357E+03  0.41800000000E+01 0.  1.
        -11    1    1    2    0    0 -0.16007896281E+02 -0.17795119099E+01 -0.27887426972E+02  0.32204471570E+02  0.00000000000E+00 0. -1.
         11    1    1    2    0    0  0.18153970986E+02 -0.19429412817E+02  0.64119666585E+02  0.69414698644E+02  0.00000000000E+00 0.  1.
</event>
<event>
 7    1  0.2686828E-009  0.1484388E+03  0.7561462E-02  0.1202405E+00
          3   -1    0    0  501    0  0.00000000000E+00  0.00000000000E+00  0.21821872558E+03  0.21821872558E+03  0.00000000000E+00 0. -1.
         -3   -1    0    0    0  501 -0.00000000000E+00 -0.00000000000E+00 -0.15960056693E+03  0.15960056693E+03  0.00000000000E+00 0.  1.
         25    2    1    2    0    0 -0.30891210029E+02  0.13277910999E+03 -0.36745721957E+02  0.18862996897E+03  0.12508580338E+03 0.  0.
          5    1    3    3  502    0  0.15261230739E+02  0.21802198929E+01  0.30628112069E+02  0.34542903344E+02  0.41800000000E+01 0. -1.
         -5    1    3    3    0  502 -0.46152440768E+02  0.13059889009E+03 -0.67373834026E+02  0.15408706563E+03  0.41800000000E+01 0. -1.
        -11    1    1    2    0    0  0.13876791407E+02 -0.72610453500E+01 -0.14629186460E+02  0.21431313908E+02  0.00000000000E+00 0.  1.
         11    1    1    2    0    0  0.17014418622E+02 -0.12551806464E+03  0.10999306706E+03  0.16775800962E+03  0.00000000000E+00 0. -1.
</event>
<event>
 7    1  0.2686828E-009  0.1746680E+03  0.7561462E-02  0.1173066E+00
         -2   -1    0    0    0  501 -0.00000000000E+00  0.00000000000E+00  0.26601852978E+02  0.26601852978E+02  0.00000000000E+00 0. -1.
          2   -1    0    0  501    0  0.00000000000E+00 -0.00000000000E+00 -0.16480315731E+04  0.16480315731E+04  0.00000000000E+00 0.  1.
         25    2    1    2    0    0 -0.13423718318E+03 -0.63528144170E+02 -0.12408365177E+04  0.12559372567E+04  0.12509069833E+03 0.  0.
          5    1    3    3  502    0 -0.13734841010E+02 -0.71846381443E+02 -0.48144974375E+03  0.48699268633E+03  0.41800000000E+01 0. -1.
         -5    1    3    3    0  502 -0.12050234217E+03  0.83182372732E+01 -0.75938677391E+03  0.76894457038E+03  0.41800000000E+01 0. -1.
        -11    1    1    2    0    0  0.81907807774E+02  0.13883294071E+02 -0.29643401623E+03  0.30785509709E+03  0.00000000000E+00 0.  1.
         11    1    1    2    0    0  0.52329375406E+02  0.49644850099E+02 -0.84159186204E+02  0.11084107224E+03  0.00000000000E+00 0. -1.
</event>
<event>
 7    1  0.2686828E-009  0.1098506E+03  0.7561462E-02  0.1260847E+00
         -2   -1    0    0    0  501 -0.00000000000E+00  0.00000000000E+00  0.42669428744E+03  0.42669428744E+03  0.00000000000E+00 0. -1.
          2   -1    0    0  501    0  0.00000000000E+00 -0.00000000000E+00 -0.94050350051E+02  0.94050350051E+02  0.00000000000E+00 0.  1.
         25    2    1    2    0    0  0.25064153820E+02 -0.14898224348E+02  0.38758099283E+03  0.40830932033E+03  0.12508919284E+03 0.  0.
          5    1    3    3  502    0  0.70597188254E+02 -0.25729656038E+02  0.17326908968E+03  0.18890640018E+03  0.41800000000E+01 0.  1.
         -5    1    3    3    0  502 -0.45533034434E+02  0.10831431691E+02  0.21431190315E+03  0.21940292015E+03  0.41800000000E+01 0.  1.
        -11    1    1    2    0    0 -0.32569390238E+02 -0.34526432217E+02 -0.33198025595E+02  0.57921918179E+02  0.00000000000E+00 0.  1.
         11    1    1    2    0    0  0.75052364183E+01  0.49424656565E+02 -0.21739029849E+02  0.54513398986E+02  0.00000000000E+00 0. -1.
</event>
<event>
 7    1  0.2686828E-009  0.6589700E+02  0.7561462E-02  0.1374629E+00
         -1   -1    0    0    0  501 -0.00000000000E+00  0.00000000000E+00  0.83574884314E+02  0.83574884314E+02  0.00000000000E+00 0.  1.
          1   -1    0    0  501    0  0.00000000000E+00 -0.00000000000E+00 -0.17425708177E+03  0.17425708177E+03  0.00000000000E+00 0. -1.
         25    2    1    2    0    0 -0.48419103067E+02 -0.10041682009E+02 -0.74583220642E+02  0.15381287555E+03  0.12510195427E+03 0.  0.
          5    1    3    3  502    0 -0.34018830681E+01 -0.79587778026E+01 -0.10096817072E+03  0.10142464617E+03  0.41800000000E+01 0.  1.
         -5    1    3    3    0  502 -0.45017219998E+02 -0.20829042065E+01  0.26384950078E+02  0.52388229374E+02  0.41800000000E+01 0.  1.
        -11    1    1    2    0    0 -0.10409538710E+02 -0.10332059950E+02 -0.35825834677E+02  0.38711760348E+02  0.00000000000E+00 0.  1.
         11    1    1    2    0    0  0.58828641777E+02  0.20373741959E+02  0.19726857866E+02  0.65307330185E+02  0.00000000000E+00 0. -1.
</event>
<event>
 7    1  0.2686828E-009  0.1159137E+03  0.7561462E-02  0.1249994E+00
          2   -1    0    0  501    0  0.00000000000E+00  0.00000000000E+00  0.38174043253E+03  0.38174043253E+03  0.00000000000E+00 0. -1.
         -2   -1    0    0    0  501 -0.00000000000E+00 -0.00000000000E+00 -0.41170331895E+02  0.41170331895E+02  0.00000000000E+00 0.  1.
         25    2    1    2    0    0 -0.57112326602E+02 -0.14860495289E+02  0.15793619420E+03  0.20994040968E+03  0.12509389278E+03 0.  0.
          5    1    3    3  502    0 -0.32354734726E+02 -0.69259623008E+02  0.71389698830E+02  0.10467896511E+03  0.41800000000E+01 0. -1.
         -5    1    3    3    0  502 -0.24757591876E+02  0.54399127720E+02  0.86546495369E+02  0.10526144457E+03  0.41800000000E+01 0. -1.
        -11    1    1    2    0    0  0.41135795271E+02 -0.27901789106E+02  0.14664700684E+03  0.15484188097E+03  0.00000000000E+00 0. -1.
         11    1    1    2    0    0  0.15976531330E+02  0.42762284395E+02  0.35986899590E+02  0.58128473764E+02  0.00000000000E+00 0.  1.
</event>
<event>
 7    1  0.2686828E-009  0.1426505E+03  0.7561462E-02  0.1209806E+00
          1   -1    0    0  501    0  0.00000000000E+00  0.00000000000E+00  0.17742344949E+02  0.17742344949E+02  0.00000000000E+00 0. -1.
         -1   -1    0    0    0  501 -0.00000000000E+00 -0.00000000000E+00 -0.12817634005E+04  0.12817634005E+04  0.00000000000E+00 0.  1.
         25    2    1    2    0    0  0.74805573644E+02 -0.61792922434E+02 -0.84376306601E+03  0.85848646001E+03  0.12509456958E+03 0.  0.
          5    1    3    3  502    0  0.83662647765E+02 -0.90406868934E+02 -0.74724305084E+03  0.75733908523E+03  0.41800000000E+01 0.  1.
         -5    1    3    3    0  502 -0.88570741210E+01  0.28613946500E+02 -0.96520015175E+02  0.10114737478E+03  0.41800000000E+01 0.  1.
        -11    1    1    2    0    0 -0.69920244250E+02  0.83872722198E+02 -0.31591866946E+03  0.33425750522E+03  0.00000000000E+00 0. -1.
         11    1    1    2    0    0 -0.48853293941E+01 -0.22079799764E+02 -0.10433932003E+03  0.10676178017E+03  0.00000000000E+00 0.  1.
</event>
<event>
 7    1  0.2686828E-009  0.1344793E+03  0.7561462E-02  0.1220957E+00
          1   -1    0    0  501    0  0.00000000000E+00  0.00000000000E+00  0.52384568935E+03  0.52384568935E+03  0.00000000000E+00 0. -1.
         -1   -1    0    0    0  501 -0.00000000000E+00 -0.00000000000E+00 -0.41253085994E+02  0.41253085994E+02  0.00000000000E+00 0.  1.
         25    2    1    2    0    0 -0.86983504343E+02  0.26498625137E+02  0.18977474353E+03  0.24480558594E+03  0.12508802686E+03 0.  0.
          5    1    3    3  502    0  0.54024342757E+01  0.54318314154E+02  0.94080935430E+02  0.10885017391E+03  0.41800000000E+01 0. -1.
         -5    1    3    3    0  502 -0.92385938619E+02 -0.27819689018E+02  0.95693808101E+02  0.13595541203E+03  0.41800000000E+01 0. -1.
        -11    1    1    2    0    0  0.76822973517E+02 -0.50254862456E+02  0.15558252051E+03  0.18064673025E+03  0.00000000000E+00 0.  1.
         11    1    1    2    0    0  0.10160530826E+02  0.23756237319E+02  0.13723533931E+03  0.13964645915E+03  0.00000000000E+00 0. -1.
</event>
<event>
 7    1  0.2686828E-009  0.1209663E+03  0.7561462E-02  0.1241511E+00
         -1   -1    0    0    0  501 -0.00000000000E+00  0.00000000000E+00  0.12244831452E+02  0.12244831452E+02  0.00000000000E+00 0.  1.
          1   -1    0    0  501    0  0.00000000000E+00 -0.00000000000E+00 -0.14015352249E+04  0.14015352249E+04  0.00000000000E+00 0. -1.
         25    2    1    2    0    0 -0.14391119809E+02 -0.68390456483E+02 -0.87630037611E+03  0.88793818614E+03  0.12509002508E+03 0.  0.
          5    1    3    3  502    0  0.49500402365E+02 -0.13661025974E+02 -0.48173440785E+03  0.48448160499E+03  0.41800000000E+01 0. -1.
         -5    1    3    3    0  502 -0.63891522174E+02 -0.54729430509E+02 -0.39456596826E+03  0.40345658116E+03  0.41800000000E+01 0. -1.
        -11    1    1    2    0    0  0.32633936438E+02 -0.27393331800E+01 -0.76452561332E+02  0.83171340544E+02  0.00000000000E+00 0.  1.
         11    1    1    2    0    0 -0.18242816630E+02  0.71129789663E+02 -0.43653745596E+03  0.44267052962E+03  0.00000000000E+00 0. -1.
</event>
<event>
 7    1  0.2686828E-009  0.1761550E+03  0.7561462E-02  0.1171577E+00
         -1   -1    0    0    0  501 -0.00000000000E+00  0.00000000000E+00  0.79506987335E+03  0.79506987335E+03  0.00000000000E+00 0.  1.
          1   -1    0    0  501    0  0.00000000000E+00 -0.00000000000E+00 -0.40117066421E+02  0.40117066421E+02  0.00000000000E+00 0. -1.
         25    2    1    2    0    0 -0.84449551217E+02 -0.11337266127E+03  0.41759888362E+03  0.45827932395E+03  0.12508406828E+03 0.  0.
          5    1    3    3  502    0 -0.99303860837E+02 -0.36082479706E+02  0.28553635390E+03  0.30448593386E+03  0.41800000000E+01 0. -1.
         -5    1    3    3    0  502  0.14854309621E+02 -0.77290181562E+02  0.13206252971E+03  0.15379339009E+03  0.41800000000E+01 0. -1.
        -11    1    1    2    0    0  0.27176228313E+02  0.10668662359E+03  0.23234760750E+03  0.25711085886E+03  0.00000000000E+00 0.  1.
         11    1    1    2    0    0  0.57273322904E+02  0.66860376830E+01  0.10500631582E+03  0.11979675696E+03  0.00000000000E+00 0. -1.
</event>
<event>
 7    1  0.2686828E-009  0.8871831E+02  0.7561462E-02  0.1305986E+00
         -1   -1    0    0    0  501 -0.00000000000E+00  0.00000000000E+00  0.25345403536E+03  0.25345403536E+03  0.00000000000E+00 0.  1.
          1   -1    0    0  501    0  0.00000000000E+00 -0.00000000000E+00 -0.83811135361E+02  0.83811135361E+02  0.00000000000E+00 0. -1.
         25    2    1    2    0    0  0.94015405452E+01  0.26822525072E+02 -0.15980668794E+02  0.12925901581E+03  0.12507867355E+03 0.  0.
          5    1    3    3  502    0 -0.31108842583E+02 -0.62105287971E+01 -0.55182090824E+02  0.63787665755E+02  0.41800000000E+01 0.  1.
         -5    1    3    3    0  502  0.40510383128E+02  0.33033053870E+02  0.39201422031E+02  0.65471350057E+02  0.41800000000E+01 0.  1.
        -11    1    1    2    0    0 -0.50130944696E+01 -0.59661005852E+02  0.13249243992E+03  0.14539193022E+03  0.00000000000E+00 0. -1.
         11    1    1    2    0    0 -0.43884460756E+01  0.32838480779E+02  0.53131128872E+02  0.62614224694E+02  0.00000000000E+00 0.  1.
</event>
<event>
 7    1  0.2686828E-009  0.1209816E+03  0.7561462E-02  0.1241486E+00
          1   -1    0    0  501    0  0.00000000000E+00  0.00000000000E+00  0.23273862835E+03  0.23273862835E+03  0.00000000000E+00 0. -1.
         -1   -1    0    0    0  501 -0.00000000000E+00 -0.00000000000E+00 -0.89193226436E+02  0.89193226436E+02  0.00000000000E+00 0.  1.
         25    2    1    2    0    0 -0.61565650300E+02 -0.61230888660E+02  0.37153548966E+02  0.15673971673E+03  0.12508957422E+03 0.  0.
          5    1    3    3  502    0 -0.69249611142E+02  0.11737945605E+02 -0.74773543298E+01  0.70757835171E+02  0.41800000000E+01 0. -1.
         -5    1    3    3    0  502  0.76839608420E+01 -0.72968834265E+02  0.44630903296E+02  0.85981881563E+02  0.41800000000E+01 0. -1.
        -11    1    1    2    0    0  0.47046174875E+02  0.67514598365E+02  0.11919389239E+03  0.14484042097E+03  0.00000000000E+00 0. -1.
         11    1    1    2    0    0  0.14519475425E+02 -0.62837097048E+01 -0.12802039444E+02  0.20351717082E+02  0.00000000000E+00 0.  1.
</event>
<event>
 7    1  0.2686828E-009  0.1360580E+03  0.7561462E-02  0.1218734E+00
          2   -1    0    0  501    0  0.00000000000E+00  0.00000000000E+00  0.62401606066E+03  0.62401606066E+03  0.00000000000E+00 0. -1.
         -2   -1    0    0    0  501 -0.00000000000E+00 -0.00000000000E+00 -0.31985320934E+02  0.31985320934E+02  0.00000000000E+00 0.  1.
         25    2    1    2    0    0 -0.76852562424E+02  0.48116523638E+02  0.33120326304E+03  0.36546574705E+03  0.12509234437E+03 0.  0.
          5    1    3    3  502    0 -0.10717787470E+03  0.17120433183E+02  0.20569055339E+03  0.23260757127E+03  0.41800000000E+01 0. -1.
         -5    1    3    3    0  502  0.30325312277E+02  0.30996090456E+02  0.12551270965E+03  0.13285817578E+03  0.41800000000E+01 0. -1.
        -11    1    1    2    0    0  0.85574200916E+02 -0.16517308963E+02  0.13643118561E+03  0.16189266125E+03  0.00000000000E+00 0.  1.
         11    1    1    2    0    0 -0.87216384925E+01 -0.31599214675E+02  0.12439629107E+03  0.12864297330E+03  0.00000000000E+00 0. -1.
</event>
<event>
 7    1  0.2686828E-009  0.1203833E+03  0.7561462E-02  0.1242466E+00
         -3   -1    0    0    0  501 -0.00000000000E+00  0.00000000000E+00  0.38726465726E+03  0.38726465726E+03  0.00000000000E+00 0.  1.
          3   -1    0    0  501    0  0.00000000000E+00 -0.00000000000E+00 -0.43688586927E+02  0.43688586927E+02  0.00000000000E+00 0. -1.
         25    2    1    2    0    0 -0.39238832201E+02  0.59192828116E+02  0.16692156432E+03  0.22034940272E+03  0.12509026258E+03 0.  0.
          5    1    3    3  502    0 -0.82983633872E+02  0.43036137752E+02  0.87250693971E+02  0.12793962889E+03  0.41800000000E+01 0. -1.
         -5    1    3    3    0  502  0.43744801671E+02  0.16156690364E+02  0.79670870345E+02  0.92409773825E+02  0.41800000000E+01 0. -1.
        -11    1    1    2    0    0  0.16423965436E+02  0.15311719606E+02  0.95476314829E+02  0.98081201518E+02  0.00000000000E+00 0.  1.
         11    1    1    2    0    0  0.22814866765E+02 -0.74504547722E+02  0.81178191189E+02  0.11252263995E+03  0.00000000000E+00 0. -1.
</event>
<event>
 7    1  0.2686828E-009  0.1750768E+03  0.7561462E-02  0.1172655E+00
         -3   -1    0    0    0  501 -0.00000000000E+00  0.00000000000E+00  0.36881982736E+03  0.36881982736E+03  0.00000000000E+00 0.  1.
          3   -1    0    0  501    0  0.00000000000E+00 -0.00000000000E+00 -0.10222947762E+03  0.10222947762E+03  0.00000000000E+00 0. -1.
         25    2    1    2    0    0 -0.69494412753E+02  0.14262040412E+03  0.15488777692E+03  0.25457187926E+03  0.12508623105E+03 0.  0.
          5    1    3    3  502    0 -0.88774642903E+02  0.97947842697E+02  0.54714263313E+02  0.14312875365E+03  0.41800000000E+01 0. -1.
         -5    1    3    3    0  502  0.19280230150E+02  0.44672561422E+02  0.10017351361E+03  0.11144312561E+03  0.41800000000E+01 0. -1.
        -11    1    1    2    0    0  0.27261093043E+02 -0.86644916268E+01 -0.10330508519E+02  0.30413155300E+02  0.00000000000E+00 0. -1.
         11    1    1    2    0    0  0.42233319711E+02 -0.13395591249E+03  0.12203308134E+03  0.18606427042E+03  0.00000000000E+00 0.  1.
</event>
<event>
 7    1  0.2686828E-009  0.1704549E+03  0.7561462E-02  0.1177374E+00
          1   -1    0    0  501    0  0.00000000000E+00  0.00000000000E+00  0.58715430174E+03  0.58715430174E+03  0.00000000000E+00 0. -1.
         -1   -1    0    0    0  501 -0.00000000000E+00 -0.00000000000E+00 -0.57373060528E+02  0.57373060528E+02  0.00000000000E+00 0.  1.
         25    2    1    2    0    0 -0.33919747147E+02  0.13694388917E+03  0.35652769676E+03  0.40331549394E+03  0.12508881272E+03 0.  0.
          5    1    3    3  502    0  0.30540920049E+01  0.14529436497E+03  0.31501084639E+03  0.34694248185E+03  0.41800000000E+01 0.  1.
         -5    1    3    3    0  502 -0.36973839152E+02 -0.83504757927E+01  0.41516850378E+02  0.56373012097E+02  0.41800000000E+01 0.  1.
        -11    1    1    2    0    0  0.55265041377E+02 -0.86930771583E+02  0.15024486733E+03  0.18216669291E+03  0.00000000000E+00 0.  1.
         11    1    1    2    0    0 -0.21345294230E+02 -0.50013117592E+02  0.23008677118E+02  0.59045175414E+02  0.00000000000E+00 0. -1.
</event>
<event>
 7    1  0.2686828E-009  0.1396664E+03  0.7561462E-02  0.1213778E+00
          1   -1    0    0  501    0  0.00000000000E+00  0.00000000000E+00  0.51815763358E+03  0.51815763358E+03  0.00000000000E+00 0. -1.
         -1   -1    0    0    0  501 -0.00000000000E+00 -0.00000000000E+00 -0.54329898135E+02  0.54329898135E+02  0.00000000000E+00 0.  1.
         25    2    1    2    0    0  0.10049294460E+03 -0.78139051613E+02  0.25283423816E+03  0.30947701078E+03  0.12508527056E+03 0.  0.
          5    1    3    3  502    0  0.29572940423E+02  0.13705006714E+02  0.18245607216E+01  0.32911813018E+02  0.41800000000E+01 0.  1.
         -5    1    3    3    0  502  0.70920004180E+02 -0.91844058328E+02  0.25100967744E+03  0.27656519776E+03  0.41800000000E+01 0.  1.
        -11    1    1    2    0    0 -0.43653615611E+02  0.16913421721E+02  0.15629187575E+03  0.16315284986E+03  0.00000000000E+00 0. -1.
         11    1    1    2    0    0 -0.56839328992E+02  0.61225629892E+02  0.54701621536E+02  0.99857671085E+02  0.00000000000E+00 0.  1.
</event>
<event>
 7    1  0.2686828E-009  0.1002971E+03  0.7561462E-02  0.1279672E+00
         -2   -1    0    0    0  501 -0.00000000000E+00  0.00000000000E+00  0.25130450302E+02  0.25130450302E+02  0.00000000000E+00 0.  1.
          2   -1    0    0  501    0  0.00000000000E+00 -0.00000000000E+00 -0.52906721041E+03  0.52906721041E+03  0.00000000000E+00 0. -1.
         25    2    1    2    0    0 -0.15625177615E+02  0.37462675852E+02 -0.32111860497E+03  0.34700569218E+03  0.12509274037E+03 0.  0.
          5    1    3    3  502    0 -0.10249014427E+02  0.77342379937E+02 -0.27390050354E+03  0.28482598946E+03  0.41800000000E+01 0. -1.
         -5    1    3    3    0  502 -0.53761631878E+01 -0.39879704085E+02 -0.47218101424E+02  0.62179702722E+02  0.41800000000E+01 0. -1.
        -11    1    1    2    0    0  0.40134568726E+02 -0.37262371826E+01 -0.34284576604E+02  0.52915977203E+02  0.00000000000E+00 0.  1.
         11    1    1    2    0    0 -0.24509391112E+02 -0.33736438669E+02 -0.14853357854E+03  0.15427599133E+03  0.00000000000E+00 0. -1.
</event>
<event>
 7    1  0.2686828E-009  0.9714753E+02  0.7561462E-02  0.1286411E+00
          2   -1    0    0  501    0  0.00000000000E+00  0.00000000000E+00  0.14606895558E+03  0.14606895558E+03  0.00000000000E+00 0. -1.
         -2   -1    0    0    0  501 -0.00000000000E+00 -0.00000000000E+00 -0.98396618046E+02  0.98396618046E+02  0.00000000000E+00 0.  1.
         25    2    1    2    0    0  0.18228828724E+01  0.37325393654E+02  0.58406995414E+02  0.14302940739E+03  0.12509806694E+03 0.  0.
          5    1    3    3  502    0 -0.34308161829E+02 -0.34579524515E+02  0.13230532307E+02  0.50648917746E+02  0.41800000000E+01 0. -1.
         -5    1    3    3    0  502  0.36131044701E+02  0.71904918168E+02  0.45176463107E+02  0.92380489644E+02  0.41800000000E+01 0. -1.
        -11    1    1    2    0    0  0.25279274063E+02 -0.13094690894E+02  0.33640660011E+02  0.44070473480E+02  0.00000000000E+00 0. -1.
         11    1    1    2    0    0 -0.27102156935E+02 -0.24230702760E+02 -0.44375317894E+02  0.57365692753E+02  0.00000000000E+00 0.  1.
</event>
<event>
 7    1  0.2686828E-009  0.9106382E+02  0.7561462E-02  0.1300296E+00
          1   -1    0    0  501    0  0.00000000000E+00  0.00000000000E+00  0.57477177108E+03  0.57477177108E+03  0.00000000000E+00 0. -1.
         -1   -1    0    0    0  501 -0.00000000000E+00 -0.00000000000E+00 -0.35979468371E+02  0.35979468371E+02  0.00000000000E+00 0.  1.
         25    2    1    2    0    0 -0.40775997342E+02 -0.39210609188E+01  0.46885352912E+03  0.48697945900E+03  0.12508918833E+03 0.  0.
          5    1    3    3  502    0 -0.91373734096E+01 -0.50110861203E+02  0.86068633774E+02  0.10009931130E+03  0.41800000000E+01 0.  1.
         -5    1    3    3    0  502 -0.31638623932E+02  0.46189800284E+02  0.38278489535E+03  0.38688014769E+03  0.41800000000E+01 0.  1.
        -11    1    1    2    0    0  0.39085107955E+02 -0.24680590489E+02  0.80834678699E+02  0.93118325217E+02  0.00000000000E+00 0.  1.
         11    1    1    2    0    0  0.16908893866E+01  0.28601651408E+02 -0.10895905107E+02  0.30653455242E+02  0.00000000000E+00 0. -1.
</event>
<event>
 7    1  0.2686828E-009  0.1632155E+03  0.7561462E-02  0.1185114E+00
          2   -1    0    0  501    0  0.00000000000E+00  0.00000000000E+00  0.17887388181E+03  0.17887388181E+03  0.00000000000E+00 0. -1.
         -2   -1    0    0    0  501 -0.00000000000E+00 -0.00000000000E+00 -0.19515225577E+03  0.19515225577E+03  0.00000000000E+00 0.  1.
         25    2    1    2    0    0 -0.67151721170E+02 -0.13612693748E+03 -0.16746962255E+02  0.19740212382E+03  0.12508893228E+03 0.  0.
          5    1    3    3  502    0 -0.30939216122E+02 -0.16760354355E+02  0.45711701276E+02  0.57837501726E+02  0.41800000000E+01 0. -1.
         -5    1    3    3    0  502 -0.36212505048E+02 -0.11936658313E+03 -0.62458663531E+02  0.13956462209E+03  0.41800000000E+01 0. -1.
        -11    1    1    2    0    0  0.69514000162E+02  0.65469263917E+02 -0.29344909473E+02  0.99897669884E+02  0.00000000000E+00 0.  1.
         11    1    1    2    0    0 -0.23622789922E+01  0.70657673568E+02  0.29813497760E+02  0.76726343877E+02  0.00000000000E+00 0. -1.
</event>
<event>
 7    1  0.2686828E-009  0.1050811E+03  0.7561462E-02  0.1269960E+00
         -2   -1    0    0    0  501 -0.00000000000E+00  0.00000000000E+00  0.35493908522E+02  0.35493908522E+02  0.00000000000E+00 0.  1.
          2   -1    0    0  501    0  0.00000000000E+00 -0.00000000000E+00 -0.35733025172E+03  0.35733025172E+03  0.00000000000E+00 0. -1.
         25    2    1    2    0    0 -0.95037499664E+01 -0.29330817672E+02 -0.19134472767E+03  0.23067481709E+03  0.12508976099E+03 0.  0.
          5    1    3    3  502    0  0.42249248039E+02 -0.43097796429E+02 -0.15342951028E+03  0.16492575918E+03  0.41800000000E+01 0.  1.
         -5    1    3    3    0  502 -0.51752998006E+02  0.13766978757E+02 -0.37915217398E+02  0.65749057917E+02  0.41800000000E+01 0.  1.
        -11    1    1    2    0    0 -0.37560914655E+02  0.31227797980E+02 -0.72839744330E+02  0.87701915774E+02  0.00000000000E+00 0. -1.
         11    1    1    2    0    0  0.47064664621E+02 -0.18969803076E+01 -0.57651871198E+02  0.74447427375E+02  0.00000000000E+00 0.  1.
</event>
<event>
 7    1  0.2686828E-009  0.2306803E+03  0.7561462E-02  0.1126162E+00
         -2   -1    0    0    0  501 -0.00000000000E+00  0.00000000000E+00  0.14520717617E+03  0.14520717617E+03  0.00000000000E+00 0.  1.
          2   -1    0    0  501    0  0.00000000000E+00 -0.00000000000E+00 -0.40026443198E+03  0.40026443198E+03  0.00000000000E+00 0. -1.
         25    2    1    2    0    0 -0.18729471234E+03  0.10422490406E+03 -0.11920988704E+03  0.27532371925E+03  0.12510001326E+03 0.  0.
          5    1    3    3  502    0 -0.16188930136E+03  0.26315147722E+02 -0.62447665002E+02  0.17555003890E+03  0.41800000000E+01 0.  1.
         -5    1    3    3    0  502 -0.25405410977E+02  0.77909756337E+02 -0.56762222035E+02  0.99773680346E+02  0.41800000000E+01 0.  1.
        -11    1    1    2    0    0  0.89453208292E+02 -0.61017722369E+02 -0.12065152749E+03  0.16211671722E+03  0.00000000000E+00 0. -1.
         11    1    1    2    0    0  0.97841504046E+02 -0.43207181690E+02 -0.15195841287E+02  0.10803117169E+03  0.00000000000E+00 0.  1.
</event>
<event>
 7    1  0.2686828E-009  0.8186737E+02  0.7561462E-02  0.1323834E+00
         -1   -1    0    0    0  501 -0.00000000000E+00  0.00000000000E+00  0.49921130296E+03  0.49921130296E+03  0.00000000000E+00 0.  1.
          1   -1    0    0  501    0  0.00000000000E+00 -0.00000000000E+00 -0.78727686128E+02  0.78727686128E+02  0.00000000000E+00 0. -1.
         25    2    1    2    0    0 -0.89298475397E+01 -0.47066902773E+02 -0.12146961061E+02  0.13449161952E+03  0.12508161953E+03 0.  0.
          5    1    3    3  502    0  0.21693452060E+02 -0.12732353017E+02 -0.61690023306E+02  0.66752153906E+02  0.41800000000E+01 0. -1.
         -5    1    3    3    0  502 -0.30623299600E+02 -0.34334549755E+02  0.49543062246E+02  0.67739465616E+02  0.41800000000E+01 0. -1.
        -11    1    1    2    0    0  0.17917006904E+02  0.67436073736E+02  0.37916174930E+03  0.38552856614E+03  0.00000000000E+00 0.  1.
         11    1    1    2    0    0 -0.89871593643E+01 -0.20369170963E+02  0.53468828585E+02  0.57918803418E+02  0.00000000000E+00 0. -1.
</event>
<event>
 7    1  0.2686828E-009  0.8853027E+02  0.7561462E-02  0.1306450E+00
         -1   -1    0    0    0  501 -0.00000000000E+00  0.00000000000E+00  0.16027157891E+03  0.16027157891E+03  0.00000000000E+00 0.  1.
          1   -1    0    0  501    0  0.00000000000E+00 -0.00000000000E+00 -0.15511517231E+03  0.15511517231E+03  0.00000000000E+00 0. -1.
         25    2    1    2    0    0  0.35489249534E+02 -0.13491262253E+02 -0.10518975451E+03  0.16779402288E+03  0.12509375952E+03 0.  0.
          5    1    3    3  502    0  0.19326350356E+02  0.30769657508E+02 -0.11395785733E+03  0.11968352137E+03  0.41800000000E+01 0.  1.
         -5    1    3    3    0  502  0.16162899178E+02 -0.44260919761E+02  0.87681028221E+01  0.48110501505E+02  0.41800000000E+01 0.  1.
        -11    1    1    2    0    0  0.11299808857E+02  0.38502217652E+02  0.25559901461E+02  0.47575361344E+02  0.00000000000E+00 0. -1.
         11    1    1    2    0    0 -0.46789058391E+02 -0.25010955398E+02  0.84786259645E+02  0.10001736699E+03  0.00000000000E+00 0.  1.
</event>
<event>
 7    1  0.2686828E-009  0.1136162E+03  0.7561462E-02  0.1254016E+00
         -2   -1    0    0    0  501 -0.00000000000E+00  0.00000000000E+00  0.20387898312E+03  0.20387898312E+03  0.00000000000E+00 0.  1.
          2   -1    0    0  501    0  0.00000000000E+00 -0.00000000000E+00 -0.10767637046E+03  0.10767637046E+03  0.00000000000E+00 0. -1.
         25    2    1    2    0    0 -0.28809630950E+02 -0.53094733646E+02 -0.31961863238E+02  0.14254284165E+03  0.12509138830E+03 0.  0.
          5    1    3    3  502    0 -0.77197640066E+02 -0.40112829756E+02 -0.99577486211E+01  0.87664952520E+02  0.41800000000E+01 0. -1.
         -5    1    3    3    0  502  0.48388009116E+02 -0.12981903890E+02 -0.22004114617E+02  0.54877889126E+02  0.41800000000E+01 0. -1.
        -11    1    1    2    0    0 -0.14252077567E+02 -0.70422232950E+01  0.78089930925E+02  0.79691605177E+02  0.00000000000E+00 0.  1.
         11    1    1    2    0    0  0.43061708516E+02  0.60136956941E+02  0.50074544968E+02  0.89320906759E+02  0.00000000000E+00 0. -1.
</event>
<event>
 7    1  0.2686828E-009  0.1981513E+03  0.7561462E-02  0.1151308E+00
          1   -1    0    0  501    0  0.00000000000E+00  0.00000000000E+00  0.11490504683E+04  0.11490504683E+04  0.00000000000E+00 0. -1.
         -1   -1    0    0    0  501 -0.00000000000E+00 -0.00000000000E+00 -0.35604544583E+02  0.35604544583E+02  0.00000000000E+00 0.  1.
         25    2    1    2    0    0  0.16461514683E+03 -0.39066384815E+02  0.62501098721E+03  0.65947767079E+03  0.12509090752E+03 0.  0.
          5    1    3    3  502    0  0.13439160469E+03 -0.79594792669E+02  0.41536977878E+03  0.44378593934E+03  0.41800000000E+01 0.  1.
         -5    1    3    3    0  502  0.30223542140E+02  0.40528407854E+02  0.20964120843E+03  0.21569173145E+03  0.41800000000E+01 0.  1.
        -11    1    1    2    0    0  0.59967389687E+01  0.16090350459E+02  0.82139475737E+02  0.83915157931E+02  0.00000000000E+00 0. -1.
         11    1    1    2    0    0 -0.17061188580E+03  0.22976034356E+02  0.40629546074E+03  0.44126218414E+03  0.00000000000E+00 0.  1.
</event>
<event>
 7    1  0.2686828E-009  0.8960350E+02  0.7561462E-02  0.1303815E+00
          1   -1    0    0  501    0  0.00000000000E+00  0.00000000000E+00  0.22068129536E+03  0.22068129536E+03  0.00000000000E+00 0. -1.
         -1   -1    0    0    0  501 -0.00000000000E+00 -0.00000000000E+00 -0.11201547730E+03  0.11201547730E+03  0.00000000000E+00 0.  1.
         25    2    1    2    0    0 -0.79450130918E+01  0.21715923134E+02 -0.59088931432E+02  0.14026269404E+03  0.12508963574E+03 0.  0.
          5    1    3    3  502    0  0.35940178133E+02  0.39557272296E+02 -0.73130909404E+02  0.90675666559E+02  0.41800000000E+01 0.  1.
         -5    1    3    3    0  502 -0.43885191224E+02 -0.17841349161E+02  0.14041977972E+02  0.49587027478E+02  0.41800000000E+01 0.  1.
        -11    1    1    2    0    0  0.37805617447E+02 -0.28590020337E+02  0.14934752181E+03  0.15668866023E+03  0.00000000000E+00 0.  1.
         11    1    1    2    0    0 -0.29860604355E+02  0.68740972026E+01  0.18407227676E+02  0.35745418385E+02  0.00000000000E+00 0. -1.
</event>
<event>
 7    1  0.2686828E-009  0.9702958E+02  0.7561462E-02  0.1286669E+00
         -2   -1    0    0    0  501 -0.00000000000E+00  0.00000000000E+00  0.35010363222E+02  0.35010363222E+02  0.00000000000E+00 0.  1.
          2   -1    0    0  501    0  0.00000000000E+00 -0.00000000000E+00 -0.51189792254E+03  0.51189792254E+03  0.00000000000E+00 0. -1.
         25    2    1    2    0    0 -0.12873836433E+02  0.35209957604E+02 -0.40003910083E+03  0.42081398171E+03  0.12509056013E+03 0.  0.
          5    1    3    3  502    0 -0.20740498683E+02  0.80521571074E+02 -0.28306605257E+03  0.29505551039E+03  0.41800000000E+01 0.  1.
         -5    1    3    3    0  502  0.78666622492E+01 -0.45311613469E+02 -0.11697304826E+03  0.12575847133E+03  0.41800000000E+01 0.  1.
        -11    1    1    2    0    0  0.22044066822E+02 -0.45671750924E+02 -0.92292702611E+02  0.10530808454E+03  0.00000000000E+00 0. -1.
         11    1    1    2    0    0 -0.91702303887E+01  0.10461793319E+02  0.15444244124E+02  0.20786219507E+02  0.00000000000E+00 0.  1.
</event>
<event>
 7    1  0.2686828E-009  0.1003845E+03  0.7561462E-02  0.1279490E+00
         -1   -1    0    0    0  501 -0.00000000000E+00  0.00000000000E+00  0.86651521458E+01  0.86651521458E+01  0.00000000000E+00 0.  1.
          1   -1    0    0  501    0  0.00000000000E+00 -0.00000000000E+00 -0.22740293349E+04  0.22740293349E+04  0.00000000000E+00 0. -1.
         25    2    1    2    0    0 -0.32147879066E+00 -0.35828494507E+02 -0.19025353799E+04  0.19069799082E+04  0.12509082225E+03 0.  0.
          5    1    3    3  502    0  0.16545974806E+02 -0.68630974970E+02 -0.63939628247E+03  0.64329546745E+03  0.41800000000E+01 0.  1.
         -5    1    3    3    0  502 -0.16867453596E+02  0.32802480463E+02 -0.12631390975E+04  0.12636844407E+04  0.41800000000E+01 0.  1.
        -11    1    1    2    0    0  0.23403886702E+02  0.56992284343E+02 -0.18073751201E+03  0.19095002130E+03  0.00000000000E+00 0.  1.
         11    1    1    2    0    0 -0.23082407912E+02 -0.21163789835E+02 -0.18209129084E+03  0.18476455762E+03  0.00000000000E+00 0. -1.
</event>
<event>
 7    1  0.2686828E-009  0.1620378E+03  0.7561462E-02  0.1186415E+00
          2   -1    0    0  501    0  0.00000000000E+00  0.00000000000E+00  0.31746533026E+03  0.31746533026E+03  0.00000000000E+00 0. -1.
         -2   -1    0    0    0  501 -0.00000000000E+00 -0.00000000000E+00 -0.10830781432E+03  0.10830781432E+03  0.00000000000E+00 0.  1.
         25    2    1    2    0    0 -0.14628598528E+03  0.11465425709E+02  0.14820567407E+03  0.24319359963E+03  0.12508860700E+03 0.  0.
          5    1    3    3  502    0 -0.12930613625E+03 -0.55600072578E+01  0.44919138367E+02  0.13706272996E+03  0.41800000000E+01 0. -1.
         -5    1    3    3    0  502 -0.16979849028E+02  0.17025432966E+02  0.10328653570E+03  0.10613086967E+03  0.41800000000E+01 0. -1.
        -11    1    1    2    0    0  0.13219815270E+03 -0.40199254947E+02  0.59791878200E+02  0.15055696720E+03  0.00000000000E+00 0. -1.
         11    1    1    2    0    0  0.14087832578E+02  0.28733829238E+02  0.11599636687E+01  0.32022577740E+02  0.00000000000E+00 0.  1.
</event>
<event>
 7    1  0.2686828E-009  0.9743922E+02  0.7561462E-02  0.1285775E+00
         -1   -1    0    0    0  501 -0.00000000000E+00  0.00000000000E+00  0.65638663388E+02  0.65638663388E+02  0.00000000000E+00 0.  1.
          1   -1    0    0  501    0  0.00000000000E+00 -0.00000000000E+00 -0.23551673150E+03  0.23551673150E+03  0.00000000000E+00 0. -1.
         25    2    1    2    0    0  0.42768866690E+01  0.43240563831E+02 -0.14617710198E+03  0.19724873096E+03  0.12510507025E+03 0.  0.
          5    1    3    3  502    0 -0.29464866573E+02  0.56990311678E+02 -0.22289715351E+02  0.68046879412E+02  0.41800000000E+01 0. -1.
         -5    1    3    3    0  502  0.33741753241E+02 -0.13749747847E+02 -0.12388738663E+03  0.12920185155E+03  0.41800000000E+01 0. -1.
        -11    1    1    2    0    0  0.32109152340E+02  0.60207553158E+01  0.97911993260E+01  0.34104468077E+02  0.00000000000E+00 0.  1.
         11    1    1    2    0    0 -0.36386039009E+02 -0.49261319147E+02 -0.33492165460E+02  0.69802195854E+02  0.00000000000E+00 0. -1.
</event>
<event>
 7    1  0.2841138E-009  0.1217160E+03  0.7561462E-02  0.1240293E+00
         -1   -1    0    0    0  501 -0.00000000000E+00  0.00000000000E+00  0.21577875475E+03  0.21577875475E+03  0.00000000000E+00 0.  1.
          1   -1    0    0  501    0  0.00000000000E+00 -0.00000000000E+00 -0.92755011619E+02  0.92755011619E+02  0.00000000000E+00 0. -1.
         25    2    1    2    0    0 -0.29533188496E+02  0.84709024030E+02  0.82014361055E+02  0.17441919305E+03  0.12509145259E+03 0.  0.
          5    1    3    3  502    0  0.42062030175E+02  0.17507355181E+02  0.56836932087E+02  0.72963217562E+02  0.41800000000E+01 0. -1.
         -5    1    3    3    0  502 -0.71595218672E+02  0.67201668849E+02  0.25177428967E+02  0.10145597549E+03  0.41800000000E+01 0. -1.
        -11    1    1    2    0    0  0.40305038806E+02 -0.58289477634E+02  0.65509779727E+02  0.96507463939E+02  0.00000000000E+00 0.  1.
         11    1    1    2    0    0 -0.10771850310E+02 -0.26419546396E+02 -0.24500397652E+02  0.37607109380E+02  0.00000000000E+00 0. -1.
</event>
<event>
 7    1  0.2686828E-009  0.9368726E+02  0.7561462E-02  0.1294160E+00
          2   -1    0    0  501    0  0.00000000000E+00  0.00000000000E+00  0.69750545213E+03  0.69750545213E+03  0.00000000000E+00 0. -1.
         -2   -1    0    0    0  501 -0.00000000000E+00 -0.00000000000E+00 -0.22748611378E+02  0.22748611378E+02  0.00000000000E+00 0.  1.
         25    2    1    2    0    0 -0.27889706730E+02 -0.13023028355E+02  0.54863565626E+03  0.56355396087E+03  0.12507816949E+03 0.  0.
          5    1    3    3  502    0 -0.76430644221E+02 -0.92553178066E+01  0.39055107049E+03  0.39808907966E+03  0.41800000000E+01 0.  1.
         -5    1    3    3    0  502  0.48540937491E+02 -0.37677105486E+01  0.15808458577E+03  0.16546488121E+03  0.41800000000E+01 0.  1.
        -11    1    1    2    0    0  0.35849821119E+02 -0.98575620446E+01  0.10594034055E+02  0.38660247817E+02  0.00000000000E+00 0.  1.
         11    1    1    2    0    0 -0.79601143890E+01  0.22880590400E+02  0.11552715044E+03  0.11803985482E+03  0.00000000000E+00 0. -1.
</event>
<event>
 7    1  0.2686828E-009  0.1393109E+03  0.7561462E-02  0.1214259E+00
          3   -1    0    0  501    0  0.00000000000E+00  0.00000000000E+00  0.28835208089E+03  0.28835208089E+03  0.00000000000E+00 0. -1.
         -3   -1    0    0    0  501 -0.00000000000E+00 -0.00000000000E+00 -0.16758754348E+03  0.16758754348E+03  0.00000000000E+00 0.  1.
         25    2    1    2    0    0 -0.63029039477E+02  0.60253100874E+02  0.23863910873E+03  0.28318824283E+03  0.12507541996E+03 0.  0.
          5    1    3    3  502    0 -0.18090438212E+02 -0.39129941714E+02  0.69021284535E+02  0.81485130006E+02  0.41800000000E+01 0. -1.
         -5    1    3    3    0  502 -0.44938601264E+02  0.99383042587E+02  0.16961782420E+03  0.20170311282E+03  0.41800000000E+01 0. -1.
        -11    1    1    2    0    0 -0.23669906933E+02 -0.82836130219E+01 -0.20391774407E+02  0.32321930672E+02  0.00000000000E+00 0. -1.
         11    1    1    2    0    0  0.86698946409E+02 -0.51969487852E+02 -0.97482796916E+02  0.14042945087E+03  0.00000000000E+00 0.  1.
</event>
<event>
 7    1  0.2686828E-009  0.7249369E+02  0.7561462E-02  0.1351813E+00
          1   -1    0    0  501    0  0.00000000000E+00  0.00000000000E+00  0.40435916826E+03  0.40435916826E+03  0.00000000000E+00 0. -1.
         -1   -1    0    0    0  501 -0.00000000000E+00 -0.00000000000E+00 -0.35657599294E+02  0.35657599294E+02  0.00000000000E+00 0.  1.
         25    2    1    2    0    0  0.43697903276E+02 -0.88839089069E+00  0.15481071953E+03  0.20377611439E+03  0.12509216573E+03 0.  0.
          5    1    3    3  502    0  0.15097444545E+02 -0.23225437859E+01  0.17024347005E+03  0.17097847389E+03  0.41800000000E+01 0.  1.
         -5    1    3    3    0  502  0.28600458732E+02  0.14341528952E+01 -0.15432750511E+02  0.32797640502E+02  0.41800000000E+01 0.  1.
        -11    1    1    2    0    0 -0.26645503090E+02 -0.44420522405E+02  0.11556605388E+03  0.12664390414E+03  0.00000000000E+00 0.  1.
         11    1    1    2    0    0 -0.17052400186E+02  0.45308913296E+02  0.98324795542E+02  0.10959674901E+03  0.00000000000E+00 0. -1.
</event>
<event>
 7    1  0.2686828E-009  0.1389421E+03  0.7561462E-02  0.1214760E+00
         -1   -1    0    0    0  501 -0.00000000000E+00  0.00000000000E+00  0.63959088610E+02  0.63959088610E+02  0.00000000000E+00 0.  1.
          1   -1    0    0  501    0  0.00000000000E+00 -0.00000000000E+00 -0.47132012446E+03  0.47132012446E+03  0.00000000000E+00 0. -1.
         25    2    1    2    0    0 -0.26461796213E+02  0.12044331461E+03 -0.13007358044E+03  0.21857175865E+03  0.12509060179E+03 0.  0.
          5    1    3    3  502    0 -0.17003060885E+02  0.27937424849E+02 -0.12058036631E+03  0.12500680352E+03  0.41800000000E+01 0. -1.
         -5    1    3    3    0  502 -0.94587353276E+01  0.92505889758E+02 -0.94932141348E+01  0.93564955131E+02  0.41800000000E+01 0. -1.
        -11    1    1    2    0    0  0.22928734857E+02  0.72817547304E+01 -0.30913813584E+02  0.39171605845E+02  0.00000000000E+00 0. -1.
         11    1    1    2    0    0  0.35330613553E+01 -0.12772506934E+03 -0.24637364182E+03  0.27753584857E+03  0.00000000000E+00 0.  1.
</event>
<event>
 7    1  0.2686828E-009  0.1078154E+03  0.7561462E-02  0.1264670E+00
         -2   -1    0    0    0  501 -0.00000000000E+00  0.00000000000E+00  0.45475614852E+03  0.45475614852E+03  0.00000000000E+00 0.  1.
          2   -1    0    0  501    0  0.00000000000E+00 -0.00000000000E+00 -0.35210523865E+02  0.35210523865E+02  0.00000000000E+00 0. -1.
         25    2    1    2    0    0 -0.42175129178E+02 -0.17815391247E+02  0.32337129613E+03  0.34973133770E+03  0.12508750426E+03 0.  0.
          5    1    3    3  502    0  0.28210360688E+02 -0.33726995513E+02  0.48865695815E+02  0.65868530453E+02  0.41800000000E+01 0. -1.
         -5    1    3    3    0  502 -0.70385489866E+02  0.15911604266E+02  0.27450560031E+03  0.28386280725E+03  0.41800000000E+01 0. -1.
        -11    1    1    2    0    0  0.50241118066E+02  0.47062798914E+02  0.50396076833E+02  0.85316127117E+02  0.00000000000E+00 0. -1.
         11    1    1    2    0    0 -0.80659888881E+01 -0.29247407667E+02  0.45778251694E+02  0.54919207570E+02  0.00000000000E+00 0.  1.
</event>
<event>
 7    1  0.2806258E-009  0.7495235E+02  0.7561462E-02  0.1344019E+00
         -1   -1    0    0    0  501 -0.00000000000E+00  0.00000000000E+00  0.34954366899E+03  0.34954366899E+03  0.00000000000E+00 0.  1.
          1   -1    0    0  501    0  0.00000000000E+00 -0.00000000000E+00 -0.40631960536E+02  0.40631960536E+02  0.00000000000E+00 0. -1.
         25    2    1    2    0    0  0.48434368655E+01  0.38622846926E+01  0.25708802619E+03  0.28597197503E+03  0.12508933275E+03 0.  0.
          5    1    3    3  502    0 -0.50879049105E+02  0.20957777769E+02  0.18564997038E+03  0.19367831574E+03  0.41800000000E+01 0. -1.
         -5    1    3    3    0  502  0.55722485970E+02 -0.17095493076E+02  0.71438055810E+02  0.92293659285E+02  0.41800000000E+01 0. -1.
        -11    1    1    2    0    0  0.74184135299E+01 -0.16857222130E+02  0.73695431359E+02  0.75961933891E+02  0.00000000000E+00 0.  1.
         11    1    1    2    0    0 -0.12261850395E+02  0.12994937438E+02 -0.21871749098E+02  0.28241720605E+02  0.00000000000E+00 0. -1.
</event>
<event>
 7    1  0.2686828E-009  0.3000126E+03  0.7561462E-02  0.1085234E+00
          2   -1    0    0  501    0  0.00000000000E+00  0.00000000000E+00  0.16402818150E+03  0.16402818150E+03  0.00000000000E+00 0. -1.
         -2   -1    0    0    0  501 -0.00000000000E+00 -0.00000000000E+00 -0.58872543497E+03  0.58872543497E+03  0.00000000000E+00 0.  1.
         25    2    1    2    0    0 -0.26878010148E+03 -0.10497785568E+03 -0.25925932236E+03  0.40758532092E+03  0.12508918604E+03 0.  0.
          5    1    3    3  502    0 -0.25722647390E+03 -0.12566916785E+03 -0.25445873125E+03  0.38304688608E+03  0.41800000000E+01 0.  1.
         -5    1    3    3    0  502 -0.11553627577E+02  0.20691312168E+02 -0.48005911046E+01  0.24538434840E+02  0.41800000000E+01 0.  1.
        -11    1    1    2    0    0  0.16457418374E+03  0.51027205084E+02 -0.47347317240E+02  0.17869025173E+03  0.00000000000E+00 0. -1.
         11    1    1    2    0    0  0.10420591773E+03  0.53950650600E+02 -0.11809061386E+03  0.16647804382E+03  0.00000000000E+00 0.  1.
</event>
<event>
 7    1  0.2686828E-009  0.1237180E+03  0.7561462E-02  0.1237086E+00
         -1   -1    0    0    0  501 -0.00000000000E+00  0.00000000000E+00  0.63536037287E+02  0.63536037287E+02  0.00000000000E+00 0.  1.
          1   -1    0    0  501    0  0.00000000000E+00 -0.00000000000E+00 -0.36309938982E+03  0.36309938982E+03  0.00000000000E+00 0. -1.
         25    2    1    2    0    0  0.66973549735E+02  0.16691924585E+02 -0.49211485622E+02  0.15110898620E+03  0.12509228066E+03 0.  0.
          5    1    3    3  502    0 -0.35667659354E+02  0.95249517147E+01 -0.26561127235E+02  0.45671353264E+02  0.41800000000E+01 0. -1.
         -5    1    3    3    0  502  0.10264120909E+03  0.71669728703E+01 -0.22650358387E+02  0.10543763293E+03  0.41800000000E+01 0. -1.
        -11    1    1    2    0    0 -0.39597568416E+02  0.32356059577E+02 -0.70400531190E+02  0.87012164711E+02  0.00000000000E+00 0.  1.
         11    1    1    2    0    0 -0.27375981319E+02 -0.49047984162E+02 -0.17995133573E+03  0.18851427620E+03  0.00000000000E+00 0. -1.
</event>
<event>
 7    1  0.2686828E-009  0.1667836E+03  0.7561462E-02  0.1181244E+00
         -1   -1    0    0    0  501 -0.00000000000E+00  0.00000000000E+00  0.96644699368E+02  0.96644699368E+02  0.00000000000E+00 0. -1.
          1   -1    0    0  501    0  0.00000000000E+00 -0.00000000000E+00 -0.30078186082E+03  0.30078186082E+03  0.00000000000E+00 0.  1.
         25    2    1    2    0    0  0.92208678539E+02 -0.90470945944E+02 -0.14484229752E+03  0.23090214278E+03  0.12509626666E+03 0.  0.
          5    1    3    3  502    0 -0.30442845070E+02 -0.27415071161E+02 -0.25199841905E+02  0.48278953745E+02  0.41800000000E+01 0. -1.
         -5    1    3    3    0  502  0.12265152361E+03 -0.63055874784E+02 -0.11964245561E+03  0.18262318904E+03  0.41800000000E+01 0. -1.
        -11    1    1    2    0    0 -0.58314750469E+02  0.55161606895E+00 -0.12503805908E+02  0.59642766240E+02  0.00000000000E+00 0. -1.
         11    1    1    2    0    0 -0.33893928069E+02  0.89919329875E+02 -0.46791058027E+02  0.10688165117E+03  0.00000000000E+00 0.  1.
</event>
<event>
 7    1  0.2686828E-009  0.2024955E+03  0.7561462E-02  0.1147650E+00
          1   -1    0    0  501    0  0.00000000000E+00  0.00000000000E+00  0.12983578328E+04  0.12983578328E+04  0.00000000000E+00 0. -1.
         -1   -1    0    0    0  501 -0.00000000000E+00 -0.00000000000E+00 -0.37913861866E+02  0.37913861866E+02  0.00000000000E+00 0.  1.
         25    2    1    2    0    0  0.65883177522E+02  0.17233061021E+03  0.48004110394E+03  0.52926846899E+03  0.12508884243E+03 0.  0.
          5    1    3    3  502    0  0.44536276556E+02  0.17468905687E+03  0.47312049122E+03  0.50632027229E+03  0.41800000000E+01 0. -1.
         -5    1    3    3    0  502  0.21346900966E+02 -0.23584466562E+01  0.69206127210E+01  0.22948196703E+02  0.41800000000E+01 0. -1.
        -11    1    1    2    0    0 -0.86132269044E+02 -0.14676396376E+03  0.59951610275E+03  0.62319979645E+03  0.00000000000E+00 0. -1.
         11    1    1    2    0    0  0.20249091522E+02 -0.25566646458E+02  0.18088676426E+03  0.18380342924E+03  0.00000000000E+00 0.  1.
</event>
<event>
 7    1  0.2686828E-009  0.1059143E+03  0.7561462E-02  0.1268329E+00
         -1   -1    0    0    0  501 -0.00000000000E+00  0.00000000000E+00  0.20038083932E+02  0.20038083932E+02  0.00000000000E+00 0.  1.
          1   -1    0    0  501    0  0.00000000000E+00 -0.00000000000E+00 -0.60119544017E+03  0.60119544017E+03  0.00000000000E+00 0. -1.
         25    2    1    2    0    0  0.48637969877E+01 -0.12517666970E+02 -0.37165339711E+03  0.39237033731E+03  0.12509150856E+03 0.  0.
          5    1    3    3  502    0  0.49476302046E+02 -0.47123562636E+02 -0.18205204342E+03  0.19449666715E+03  0.41800000000E+01 0. -1.
         -5    1    3    3    0  502 -0.44612505058E+02  0.34605895666E+02 -0.18960135368E+03  0.19787367016E+03  0.41800000000E+01 0. -1.
        -11    1    1    2    0    0  0.38072470993E+02  0.20263642859E+02 -0.65741604507E+02  0.78626247733E+02  0.00000000000E+00 0.  1.
         11    1    1    2    0    0 -0.42936267981E+02 -0.77459758885E+01 -0.14376235462E+03  0.15023693906E+03  0.00000000000E+00 0. -1.
</event>
<event>
 7    1  0.2686828E-009  0.8040488E+02  0.7561462E-02  0.1327906E+00
         -4   -1    0    0    0  501 -0.00000000000E+00  0.00000000000E+00  0.10179412329E+04  0.10179412329E+04  0.00000000000E+00 0.  1.
          4   -1    0    0  501    0  0.00000000000E+00 -0.00000000000E+00 -0.12995930078E+02  0.12995930078E+02  0.00000000000E+00 0. -1.
         25    2    1    2    0    0 -0.30817813943E+01 -0.38469810563E+02  0.56416421522E+03  0.57915668378E+03  0.12510706984E+03 0.  0.
          5    1    3    3  502    0  0.23241937308E+02 -0.91894600252E+01  0.16891974853E+02  0.30453982331E+02  0.41800000000E+01 0. -1.
         -5    1    3    3    0  502 -0.26323718703E+02 -0.29280350538E+02  0.54727224037E+03  0.54870270145E+03  0.41800000000E+01 0. -1.
        -11    1    1    2    0    0 -0.36472450346E+02 -0.53285052157E+01  0.11712782308E+03  0.12279071440E+03  0.00000000000E+00 0. -1.
         11    1    1    2    0    0  0.39554231740E+02  0.43798315778E+02  0.32365326451E+03  0.32898976480E+03  0.00000000000E+00 0.  1.
</event>
<event>
 7    1  0.2686828E-009  0.1145922E+03  0.7561462E-02  0.1252295E+00
         -1   -1    0    0    0  501 -0.00000000000E+00  0.00000000000E+00  0.33953802584E+02  0.33953802584E+02  0.00000000000E+00 0.  1.
          1   -1    0    0  501    0  0.00000000000E+00 -0.00000000000E+00 -0.62223358696E+03  0.62223358696E+03  0.00000000000E+00 0. -1.
         25    2    1    2    0    0  0.18087649864E+01  0.92919098485E+02 -0.37051796626E+03  0.40195829736E+03  0.12509867705E+03 0.  0.
          5    1    3    3  502    0 -0.15643202509E+02  0.12325960635E+02 -0.27478701990E+03  0.27553950315E+03  0.41800000000E+01 0.  1.
         -5    1    3    3    0  502  0.17451967496E+02  0.80593137850E+02 -0.95730946362E+02  0.12641879421E+03  0.41800000000E+01 0.  1.
        -11    1    1    2    0    0 -0.41408702243E+02 -0.27210370053E+02 -0.53416486943E+02  0.72858808233E+02  0.00000000000E+00 0.  1.
         11    1    1    2    0    0  0.39599937257E+02 -0.65708728432E+02 -0.16434533117E+03  0.18137028395E+03  0.00000000000E+00 0. -1.
</event>
<event>
 7    1  0.3759994E-009  0.1221929E+03  0.7561462E-02  0.1239523E+00
         -2   -1    0    0    0  501 -0.00000000000E+00  0.00000000000E+00  0.14635467586E+02  0.14635467586E+02  0.00000000000E+00 0.  1.
          2   -1    0    0  501    0  0.00000000000E+00 -0.00000000000E+00 -0.19925448379E+04  0.19925448379E+04  0.00000000000E+00 0. -1.
         25    2    1    2    0    0  0.78119494404E+02 -0.57371760482E+02 -0.15760136003E+04  0.15839383604E+04  0.12509071442E+03 0.  0.
          5    1    3    3  502    0  0.10333934222E+02  0.23455875153E+02 -0.78009199411E+02  0.82218464279E+02  0.41800000000E+01 0. -1.
         -5    1    3    3    0  502  0.67785560182E+02 -0.80827635635E+02 -0.14980044009E+04  0.15017198961E+04  0.41800000000E+01 0. -1.
        -11    1    1    2    0    0 -0.11845805152E+02  0.43565350001E+02 -0.62149302782E+02  0.76816656115E+02  0.00000000000E+00 0. -1.
         11    1    1    2    0    0 -0.66273689252E+02  0.13806410481E+02 -0.33974646722E+03  0.34642528898E+03  0.00000000000E+00 0.  1.
</event>
<event>
 7    1  0.2686828E-009  0.1003678E+03  0.7561462E-02  0.1279524E+00
         -2   -1    0    0    0  501 -0.00000000000E+00  0.00000000000E+00  0.30399074796E+02  0.30399074796E+02  0.00000000000E+00 0.  1.
          2   -1    0    0  501    0  0.00000000000E+00 -0.00000000000E+00 -0.52094389537E+03  0.52094389537E+03  0.00000000000E+00 0. -1.
         25    2    1    2    0    0  0.51378028455E+02  0.42784888384E+01 -0.36275180187E+03  0.38716168920E+03  0.12508915440E+03 0.  0.
          5    1    3    3  502    0  0.57398246903E+02 -0.30381646774E+02 -0.33734927334E+03  0.34356892734E+03  0.41800000000E+01 0. -1.
         -5    1    3    3    0  502 -0.60202184485E+01  0.34660135612E+02 -0.25402528523E+02  0.43592761855E+02  0.41800000000E+01 0. -1.
        -11    1    1    2    0    0  0.17075078045E+02 -0.23576472693E+02 -0.56057760557E+02  0.63165503826E+02  0.00000000000E+00 0.  1.
         11    1    1    2    0    0 -0.68453106500E+02  0.19297983855E+02 -0.71735258150E+02  0.10101577714E+03  0.00000000000E+00 0. -1.
</event>
<event>
 7    1  0.2686828E-009  0.8716417E+02  0.7561462E-02  0.1309868E+00
          2   -1    0    0  501    0  0.00000000000E+00  0.00000000000E+00  0.25271751819E+03  0.25271751819E+03  0.00000000000E+00 0. -1.
         -2   -1    0    0    0  501 -0.00000000000E+00 -0.00000000000E+00 -0.62139585372E+02  0.62139585372E+02  0.00000000000E+00 0.  1.
         25    2    1    2    0    0 -0.29393824064E+02 -0.22102511630E+02  0.17094156356E+03  0.21500228269E+03  0.12510973383E+03 0.  0.
          5    1    3    3  502    0 -0.37040639759E+02 -0.69128924142E+02  0.79180193861E+02  0.11152485215E+03  0.41800000000E+01 0.  1.
         -5    1    3    3    0  502  0.76468156956E+01  0.47026412512E+02  0.91761369695E+02  0.10347743055E+03  0.41800000000E+01 0.  1.
        -11    1    1    2    0    0  0.77499485196E+01 -0.78352705597E+01  0.50517328761E+02  0.51705451086E+02  0.00000000000E+00 0. -1.
         11    1    1    2    0    0  0.21643875544E+02  0.29937782190E+02 -0.30880959498E+02  0.48149369783E+02  0.00000000000E+00 0.  1.
</event>
<event>
 7    1  0.2686828E-009  0.1148103E+03  0.7561462E-02  0.1251913E+00
          1   -1    0    0  501    0  0.00000000000E+00  0.00000000000E+00  0.81500748721E+02  0.81500748721E+02  0.00000000000E+00 0. -1.
         -1   -1    0    0    0  501 -0.00000000000E+00 -0.00000000000E+00 -0.31215743800E+03  0.31215743800E+03  0.00000000000E+00 0.  1.
         25    2    1    2    0    0 -0.15688492602E+02 -0.92848881549E+02 -0.16451494202E+03  0.22711663153E+03  0.12509897906E+03 0.  0.
          5    1    3    3  502    0  0.37946608317E+02 -0.55853458759E+02 -0.14329737776E+03  0.15846502710E+03  0.41800000000E+01 0. -1.
         -5    1    3    3    0  502 -0.53635100919E+02 -0.36995422790E+02 -0.21217564259E+02  0.68651604432E+02  0.41800000000E+01 0. -1.
        -11    1    1    2    0    0  0.20394808156E+02  0.57383613630E+02 -0.10012916193E+03  0.11719503565E+03  0.00000000000E+00 0.  1.
         11    1    1    2    0    0 -0.47063155543E+01  0.35465267919E+02  0.33987414674E+02  0.49346519542E+02  0.00000000000E+00 0. -1.
</event>
<event>
 7    1  0.2686828E-009  0.1146702E+03  0.7561462E-02  0.1252158E+00
         -2   -1    0    0    0  501 -0.00000000000E+00  0.00000000000E+00  0.28665015456E+02  0.28665015456E+02  0.00000000000E+00 0.  1.
          2   -1    0    0  501    0  0.00000000000E+00 -0.00000000000E+00 -0.81844665597E+03  0.81844665597E+03  0.00000000000E+00 0. -1.
         25    2    1    2    0    0  0.76534464620E+02 -0.58486567833E+02 -0.56328869199E+03  0.58499579596E+03  0.12509087847E+03 0.  0.
          5    1    3    3  502    0  0.38721893775E+02 -0.41506703177E+02 -0.52604385240E+03  0.52911416397E+03  0.41800000000E+01 0. -1.
         -5    1    3    3    0  502  0.37812570846E+02 -0.16979864656E+02 -0.37244839585E+02  0.55881631986E+02  0.41800000000E+01 0. -1.
        -11    1    1    2    0    0 -0.29028338318E+02  0.75036538766E+02 -0.12195358488E+03  0.14610203092E+03  0.00000000000E+00 0.  1.
         11    1    1    2    0    0 -0.47506126302E+02 -0.16549970932E+02 -0.10453936366E+03  0.11601384455E+03  0.00000000000E+00 0. -1.
</event>
<event>
 7    1  0.2686828E-009  0.1085810E+03  0.7561462E-02  0.1263221E+00
          1   -1    0    0  501    0  0.00000000000E+00  0.00000000000E+00  0.18837371639E+03  0.18837371639E+03  0.00000000000E+00 0. -1.
         -1   -1    0    0    0  501 -0.00000000000E+00 -0.00000000000E+00 -0.10915213391E+03  0.10915213391E+03  0.00000000000E+00 0.  1.
         25    2    1    2    0    0 -0.12460616060E+02  0.59350464561E+02  0.11668045367E+03  0.18149273311E+03  0.12509012474E+03 0.  0.
          5    1    3    3  502    0  0.35925961348E+02  0.68913427758E+02  0.33572114843E+02  0.84760217786E+02  0.41800000000E+01 0. -1.
         -5    1    3    3    0  502 -0.48386577408E+02 -0.95629631963E+01  0.83108338832E+02  0.96732515329E+02  0.41800000000E+01 0. -1.
        -11    1    1    2    0    0 -0.19512877149E+02  0.30209164974E+01  0.17952068021E+02  0.26686233480E+02  0.00000000000E+00 0. -1.
         11    1    1    2    0    0  0.31973493209E+02 -0.62371381059E+02 -0.55410939216E+02  0.89346883706E+02  0.00000000000E+00 0.  1.
</event>
<event>
 7    1  0.2686828E-009  0.1124282E+03  0.7561462E-02  0.1256138E+00
          2   -1    0    0  501    0  0.00000000000E+00  0.00000000000E+00  0.41263936656E+03  0.41263936656E+03  0.00000000000E+00 0. -1.
         -2   -1    0    0    0  501 -0.00000000000E+00 -0.00000000000E+00 -0.51814944364E+02  0.51814944364E+02  0.00000000000E+00 0.  1.
         25    2    1    2    0    0  0.56179213354E+02 -0.19849415689E+02  0.72606451375E+02  0.15642497077E+03  0.12508785466E+03 0.  0.
          5    1    3    3  502    0  0.79949538615E+02  0.26845128861E+02  0.33206110901E+02  0.90734270645E+02  0.41800000000E+01 0. -1.
         -5    1    3    3    0  502 -0.23770325262E+02 -0.46694544550E+02  0.39400340474E+02  0.65690700127E+02  0.41800000000E+01 0. -1.
        -11    1    1    2    0    0 -0.18400381793E+02  0.40726264724E+02  0.55081149719E+02  0.70930499384E+02  0.00000000000E+00 0.  1.
         11    1    1    2    0    0 -0.37778831561E+02 -0.20876849035E+02  0.23313682110E+03  0.23709884077E+03  0.00000000000E+00 0. -1.
</event>
<event>
 7    1  0.2686828E-009  0.1211531E+03  0.7561462E-02  0.1241207E+00
         -1   -1    0    0    0  501 -0.00000000000E+00  0.00000000000E+00  0.59832482243E+02  0.59832482243E+02  0.00000000000E+00 0.  1.
          1   -1    0    0  501    0  0.00000000000E+00 -0.00000000000E+00 -0.29543411290E+03  0.29543411290E+03  0.00000000000E+00 0. -1.
         25    2    1    2    0    0  0.47053827978E+02 -0.45709605912E+02 -0.19040016641E+03  0.23707062647E+03  0.12508728059E+03 0.  0.
          5    1    3    3  502    0  0.69177675194E+02 -0.74473026681E+02 -0.15972649191E+03  0.18937213910E+03  0.41800000000E+01 0. -1.
         -5    1    3    3    0  502 -0.22123847215E+02  0.28763420769E+02 -0.30673674494E+02  0.47698487365E+02  0.41800000000E+01 0. -1.
        -11    1    1    2    0    0 -0.14335088549E+02  0.64664570422E+02 -0.10865206031E+02  0.67119700042E+02  0.00000000000E+00 0.  1.
         11    1    1    2    0    0 -0.32718739430E+02 -0.18954964510E+02 -0.34336258223E+02  0.51076268640E+02  0.00000000000E+00 0. -1.
</event>
<event>
 7    1  0.2686828E-009  0.9055218E+02  0.7561462E-02  0.1301520E+00
          1   -1    0    0  501    0  0.00000000000E+00  0.00000000000E+00  0.29697110854E+02  0.29697110854E+02  0.00000000000E+00 0. -1.
         -1   -1    0    0    0  501 -0.00000000000E+00 -0.00000000000E+00 -0.79540427808E+03  0.79540427808E+03  0.00000000000E+00 0.  1.
         25    2    1    2    0    0 -0.30838032328E+02 -0.56054447471E+01 -0.70397653751E+03  0.71569015083E+03  0.12508805455E+03 0.  0.
          5    1    3    3  502    0  0.52190647746E+01 -0.45677289516E+02 -0.55994406363E+03  0.56184382190E+03  0.41800000000E+01 0. -1.
         -5    1    3    3    0  502 -0.36057097102E+02  0.40071844769E+02 -0.14403247388E+03  0.15384632893E+03  0.41800000000E+01 0. -1.
        -11    1    1    2    0    0 -0.57279879201E+01 -0.29578504150E+02 -0.48289026011E+02  0.56916849759E+02  0.00000000000E+00 0. -1.
         11    1    1    2    0    0  0.36566020248E+02  0.35183948897E+02 -0.13441603703E+02  0.52494388337E+02  0.00000000000E+00 0.  1.
</event>
<event>
 7    1  0.2686828E-009  0.9917143E+02  0.7561462E-02  0.1282048E+00
          2   -1    0    0  501    0  0.00000000000E+00  0.00000000000E+00  0.28560737602E+02  0.28560737602E+02  0.00000000000E+00 0. -1.
         -2   -1    0    0    0  501 -0.00000000000E+00 -0.00000000000E+00 -0.45745206693E+03  0.45745206693E+03  0.00000000000E+00 0.  1.
         25    2    1    2    0    0 -0.11469948993E+02 -0.13629462877E+02 -0.22030211225E+03  0.25396521694E+03  0.12509192127E+03 0.  0.
          5    1    3    3  502    0 -0.65422662979E+02 -0.25796978495E+02 -0.13367306685E+03  0.15110119170E+03  0.41800000000E+01 0. -1.
         -5    1    3    3    0  502  0.53952713986E+02  0.12167515618E+02 -0.86629045394E+02  0.10286402524E+03  0.41800000000E+01 0. -1.
        -11    1    1    2    0    0 -0.17426336091E+02  0.33222694828E+02 -0.18759362906E+03  0.19130811354E+03  0.00000000000E+00 0.  1.
         11    1    1    2    0    0  0.28896285084E+02 -0.19593231951E+02 -0.20995588017E+02  0.40739474053E+02  0.00000000000E+00 0. -1.
</event>
<event>
 7    1  0.2686828E-009  0.7560312E+02  0.7561462E-02  0.1342013E+00
         -4   -1    0    0    0  501 -0.00000000000E+00  0.00000000000E+00  0.56975360266E+02  0.56975360266E+02  0.00000000000E+00 0.  1.
          4   -1    0    0  501    0  0.00000000000E+00 -0.00000000000E+00 -0.40264535361E+03  0.40264535361E+03  0.00000000000E+00 0. -1.
         25    2    1    2    0    0  0.27813321755E+02  0.26403170915E+02 -0.37430114429E+02  0.13608496789E+03  0.12508955479E+03 0.  0.
          5    1    3    3  502    0  0.48140217327E+02  0.24898313300E+02 -0.75302908427E+02  0.92873069008E+02  0.41800000000E+01 0. -1.
         -5    1    3    3    0  502 -0.20326895572E+02  0.15048576149E+01  0.37872793998E+02  0.43211898885E+02  0.41800000000E+01 0. -1.
        -11    1    1    2    0    0  0.19620390636E+02 -0.20272765750E+02 -0.29871180543E+02  0.41088102742E+02  0.00000000000E+00 0.  1.
         11    1    1    2    0    0 -0.47433712392E+02 -0.61304051647E+01 -0.27836869837E+03  0.28244764324E+03  0.00000000000E+00 0. -1.
</event>
<event>
 7    1  0.2686828E-009  0.7802768E+02  0.7561462E-02  0.1334744E+00
          2   -1    0    0  501    0  0.00000000000E+00  0.00000000000E+00  0.40633361374E+03  0.40633361374E+03  0.00000000000E+00 0. -1.
         -2   -1    0    0    0  501 -0.00000000000E+00 -0.00000000000E+00 -0.28886640693E+02  0.28886640693E+02  0.00000000000E+00 0.  1.
         25    2    1    2    0    0 -0.71108045724E+01  0.47783401863E+01  0.21319177271E+03  0.24733008351E+03  0.12509213477E+03 0.  0.
          5    1    3    3  502    0 -0.43223527930E+01 -0.38476357563E+02  0.10950140563E+02  0.40453563543E+02  0.41800000000E+01 0.  1.
         -5    1    3    3    0  502 -0.27884517794E+01  0.43254697749E+02  0.20224163215E+03  0.20687651997E+03  0.41800000000E+01 0.  1.
        -11    1    1    2    0    0  0.29687501925E+02 -0.28263172404E+02  0.14355659172E+03  0.14929383682E+03  0.00000000000E+00 0. -1.
         11    1    1    2    0    0 -0.22576697353E+02  0.23484832218E+02  0.20698608616E+02  0.38596334104E+02  0.00000000000E+00 0.  1.
</event>
<event>
 7    1  0.2686828E-009  0.1115336E+03  0.7561462E-02  0.1257756E+00
          1   -1    0    0  501    0  0.00000000000E+00  0.00000000000E+00  0.16178173910E+03  0.16178173910E+03  0.00000000000E+00 0. -1.
         -1   -1    0    0    0  501 -0.00000000000E+00 -0.00000000000E+00 -0.81899147894E+02  0.81899147894E+02  0.00000000000E+00 0.  1.
         25    2    1    2    0    0  0.11850281272E+02 -0.38639689550E+02  0.51342319409E+02  0.14113438486E+03  0.12509766605E+03 0.  0.
          5    1    3    3  502    0 -0.50754479010E+02  0.94074596322E+01  0.27228879376E+02  0.58509842833E+02  0.41800000000E+01 0.  1.
         -5    1    3    3    0  502  0.62604760282E+02 -0.48047149182E+02  0.24113440033E+02  0.82624542024E+02  0.41800000000E+01 0.  1.
        -11    1    1    2    0    0  0.10527921015E+02  0.60237792382E+02  0.12401693860E+01  0.61163443102E+02  0.00000000000E+00 0.  1.
         11    1    1    2    0    0 -0.22378202287E+02 -0.21598102833E+02  0.27300102415E+02  0.41383059039E+02  0.00000000000E+00 0. -1.
</event>
<event>
 7    1  0.2686828E-009  0.1068780E+03  0.7561462E-02  0.1266463E+00
          2   -1    0    0  501    0  0.00000000000E+00  0.00000000000E+00  0.71722736470E+03  0.71722736470E+03  0.00000000000E+00 0. -1.
         -2   -1    0    0    0  501 -0.00000000000E+00 -0.00000000000E+00 -0.25561710372E+02  0.25561710372E+02  0.00000000000E+00 0.  1.
         25    2    1    2    0    0  0.65039105216E+02 -0.34700222886E+02  0.47030209449E+03  0.49220491008E+03  0.12508965887E+03 0.  0.
          5    1    3    3  502    0  0.69763861841E+02 -0.56980566408E+01  0.10849480750E+03  0.12918227403E+03  0.41800000000E+01 0.  1.
         -5    1    3    3    0  502 -0.47247566253E+01 -0.29002166245E+02  0.36180728698E+03  0.36302263605E+03  0.41800000000E+01 0.  1.
        -11    1    1    2    0    0 -0.84092658273E+02  0.41434289965E+02  0.15433923410E+03  0.18057955240E+03  0.00000000000E+00 0.  1.
         11    1    1    2    0    0  0.19053553057E+02 -0.67340670794E+01  0.67024325746E+02  0.70004612599E+02  0.00000000000E+00 0. -1.
</event>
<event>
 7    1  0.2686828E-009  0.2940550E+03  0.7561462E-02  0.1088251E+00
         -1   -1    0    0    0  501 -0.00000000000E+00  0.00000000000E+00  0.34436085598E+03  0.34436085598E+03  0.00000000000E+00 0.  1.
          1   -1    0    0  501    0  0.00000000000E+00 -0.00000000000E+00 -0.28355036249E+03  0.28355036249E+03  0.00000000000E+00 0. -1.
         25    2    1    2    0    0  0.24683725492E+03  0.12943861105E+03  0.12102144451E+03  0.32860156520E+03  0.12509921733E+03 0.  0.
          5    1    3    3  502    0  0.11920257932E+03  0.13175242182E+03  0.67275390021E+02  0.19003001362E+03  0.41800000000E+01 0.  1.
         -5    1    3    3    0  502  0.12763467559E+03 -0.23138107754E+01  0.53746054487E+02  0.13857155158E+03  0.41800000000E+01 0.  1.
        -11    1    1    2    0    0 -0.28838366209E+02 -0.34288962002E+02  0.18917644533E+02  0.48633954758E+02  0.00000000000E+00 0.  1.
         11    1    1    2    0    0 -0.21799888871E+03 -0.95149649047E+02 -0.79128595550E+02  0.25067569852E+03  0.00000000000E+00 0. -1.
</event>
<event>
 7    1  0.2686828E-009  0.1221765E+03  0.7561462E-02  0.1239549E+00
          2   -1    0    0  501    0  0.00000000000E+00  0.00000000000E+00  0.47168799380E+03  0.47168799380E+03  0.00000000000E+00 0. -1.
         -2   -1    0    0    0  501 -0.00000000000E+00 -0.00000000000E+00 -0.49858691180E+02  0.49858691180E+02  0.00000000000E+00 0.  1.
         25    2    1    2    0    0 -0.78803448388E+02 -0.73843364284E+02  0.22010674459E+03  0.27523991284E+03  0.12508878718E+03 0.  0.
          5    1    3    3  502    0 -0.16981845325E+02  0.11363284914E+02 -0.92711951106E+01  0.22823995563E+02  0.41800000000E+01 0.  1.
         -5    1    3    3    0  502 -0.61821603063E+02 -0.85206649198E+02  0.22937793970E+03  0.25241591727E+03  0.41800000000E+01 0.  1.
        -11    1    1    2    0    0  0.53222287529E+02  0.17104235963E+02  0.29555678589E+02  0.63235313825E+02  0.00000000000E+00 0.  1.
         11    1    1    2    0    0  0.25581160859E+02  0.56739128322E+02  0.17216687944E+03  0.18307145832E+03  0.00000000000E+00 0. -1.
</event>
<event>
 7    1  0.2686828E-009  0.7773437E+02  0.7561462E-02  0.1335607E+00
         -1   -1    0    0    0  501 -0.00000000000E+00  0.00000000000E+00  0.86122142956E+02  0.86122142956E+02  0.00000000000E+00 0.  1.
          1   -1    0    0  501    0  0.00000000000E+00 -0.00000000000E+00 -0.14061221059E+03  0.14061221059E+03  0.00000000000E+00 0. -1.
         25    2    1    2    0    0  0.19942107172E+02  0.88980624296E+01 -0.17842144129E+02  0.12822822617E+03  0.12508905918E+03 0.  0.
          5    1    3    3  502    0  0.66586971727E+02 -0.66734267058E+01 -0.35428969509E+02  0.75835636137E+02  0.41800000000E+01 0. -1.
         -5    1    3    3    0  502 -0.46644864556E+02  0.15571489135E+02  0.17586825380E+02  0.52392590032E+02  0.41800000000E+01 0. -1.
        -11    1    1    2    0    0 -0.12259621901E+02  0.11782489373E+02  0.26572399294E+02  0.31547072593E+02  0.00000000000E+00 0.  1.
         11    1    1    2    0    0 -0.76824852710E+01 -0.20680551802E+02 -0.63220322796E+02  0.66959054781E+02  0.00000000000E+00 0. -1.
</event>
<event>
 7    1  0.2686828E-009  0.1330348E+03  0.7561462E-02  0.1223021E+00
         -4   -1    0    0    0  501 -0.00000000000E+00  0.00000000000E+00  0.58420074998E+02  0.58420074998E+02  0.00000000000E+00 0.  1.
          4   -1    0    0  501    0  0.00000000000E+00 -0.00000000000E+00 -0.50296407508E+03  0.50296407508E+03  0.00000000000E+00 0. -1.
         25    2    1    2    0    0 -0.21513219224E+02 -0.13035664177E+03 -0.23903523391E+03  0.30040145920E+03  0.12509005149E+03 0.  0.
          5    1    3    3  502    0 -0.11615227997E+02 -0.73611828631E+02 -0.23017285109E+03  0.24197237160E+03  0.41800000000E+01 0.  1.
         -5    1    3    3    0  502 -0.98979912268E+01 -0.56744813137E+02 -0.88623828152E+01  0.58429087598E+02  0.41800000000E+01 0.  1.
        -11    1    1    2    0    0 -0.27939837505E+01  0.40320309079E+02 -0.61412286554E+01  0.40880904575E+02  0.00000000000E+00 0.  1.
         11    1    1    2    0    0  0.24307202975E+02  0.90036332689E+02 -0.19936753751E+03  0.22010178630E+03  0.00000000000E+00 0. -1.
</event>
<event>
 7    1  0.2686828E-009  0.9163446E+02  0.7561462E-02  0.1298941E+00
          2   -1    0    0  501    0  0.00000000000E+00  0.00000000000E+00  0.72784771009E+02  0.72784771009E+02  0.00000000000E+00 0. -1.
         -2   -1    0    0    0  501 -0.00000000000E+00 -0.00000000000E+00 -0.18984315907E+03  0.18984315907E+03  0.00000000000E+00 0.  1.
         25    2    1    2    0    0 -0.42127309874E+02  0.10539385134E+02 -0.94687133829E+02  0.16278321432E+03  0.12508769994E+03 0.  0.
          5    1    3    3  502    0 -0.83110192531E+01  0.54126949652E+02 -0.92303304034E+02  0.10740657361E+03  0.41800000000E+01 0.  1.
         -5    1    3    3    0  502 -0.33816290621E+02 -0.43587564518E+02 -0.23838297948E+01  0.55376640711E+02  0.41800000000E+01 0.  1.
        -11    1    1    2    0    0 -0.59942268067E+01 -0.22626210993E+02  0.22851207992E+02  0.32711678123E+02  0.00000000000E+00 0. -1.
         11    1    1    2    0    0  0.48121536681E+02  0.12086825860E+02 -0.45222462223E+02  0.67133037629E+02  0.00000000000E+00 0.  1.
</event>
<event>
 7    1  0.2686828E-009  0.1070543E+03  0.7561462E-02  0.1266124E+00
         -1   -1    0    0    0  501 -0.00000000000E+00  0.00000000000E+00  0.41954546125E+02  0.41954546125E+02  0.00000000000E+00 0.  1.
          1   -1    0    0  501    0  0.00000000000E+00 -0.00000000000E+00 -0.31368174279E+03  0.31368174279E+03  0.00000000000E+00 0. -1.
         25    2    1    2    0    0  0.29940688269E+02 -0.18083854742E+02 -0.13906077352E+03  0.19028644735E+03  0.12509021824E+03 0.  0.
          5    1    3    3  502    0 -0.43295911044E+02 -0.17635299526E+02 -0.91570451330E+02  0.10289878357E+03  0.41800000000E+01 0.  1.
         -5    1    3    3    0  502  0.73236599313E+02 -0.44855521524E+00 -0.47490322189E+02  0.87387663788E+02  0.41800000000E+01 0.  1.
        -11    1    1    2    0    0  0.24716402651E+02  0.28973795796E+02 -0.80312664965E+02  0.88884788106E+02  0.00000000000E+00 0. -1.
         11    1    1    2    0    0 -0.54657090920E+02 -0.10889941054E+02 -0.52353758179E+02  0.76465053452E+02  0.00000000000E+00 0.  1.
</event>
<event>
 7    1  0.2686828E-009  0.2932895E+03  0.7561462E-02  0.1088644E+00
          2   -1    0    0  501    0  0.00000000000E+00  0.00000000000E+00  0.86925775628E+03  0.86925775628E+03  0.00000000000E+00 0. -1.
         -2   -1    0    0    0  501 -0.00000000000E+00 -0.00000000000E+00 -0.10551732660E+03  0.10551732660E+03  0.00000000000E+00 0.  1.
         25    2    1    2    0    0 -0.39851586660E+02  0.27944286713E+03  0.37125208815E+03  0.48285734512E+03  0.12508652136E+03 0.  0.
          5    1    3    3  502    0  0.27814686041E+02  0.15119159602E+03  0.13010293702E+03  0.20143684392E+03  0.41800000000E+01 0.  1.
         -5    1    3    3    0  502 -0.67666272701E+02  0.12825127111E+03  0.24114915113E+03  0.28142050119E+03  0.41800000000E+01 0.  1.
        -11    1    1    2    0    0 -0.14241866538E+02 -0.49667804438E+02  0.12446343260E+03  0.13476226332E+03  0.00000000000E+00 0. -1.
         11    1    1    2    0    0  0.54093453198E+02 -0.22977506269E+03  0.26802490893E+03  0.35715547444E+03  0.00000000000E+00 0.  1.
</event>
<event>
 7    1  0.2686828E-009  0.1297013E+03  0.7561462E-02  0.1227900E+00
          2   -1    0    0  501    0  0.00000000000E+00  0.00000000000E+00  0.21544630984E+04  0.21544630984E+04  0.00000000000E+00 0. -1.
         -2   -1    0    0    0  501 -0.00000000000E+00 -0.00000000000E+00 -0.19239724613E+02  0.19239724613E+02  0.00000000000E+00 0.  1.
         25    2    1    2    0    0 -0.28453063372E+02  0.11594397786E+03  0.17785548504E+04  0.17869402020E+04  0.12508136132E+03 0.  0.
          5    1    3    3  502    0 -0.20075387116E+02  0.48633738829E+02  0.14718753647E+04  0.14728213821E+04  0.41800000000E+01 0.  1.
         -5    1    3    3    0  502 -0.83776762563E+01  0.67310239034E+02  0.30667948563E+03  0.31411881995E+03  0.41800000000E+01 0.  1.
        -11    1    1    2    0    0  0.48686907167E+02 -0.50430750915E+02  0.25252802956E+03  0.26207647984E+03  0.00000000000E+00 0. -1.
         11    1    1    2    0    0 -0.20233843795E+02 -0.65513226949E+02  0.10414049384E+03  0.12468614116E+03  0.00000000000E+00 0.  1.
</event>
<event>
 7    1  0.2686828E-009  0.8370991E+02  0.7561462E-02  0.1318841E+00
         -2   -1    0    0    0  501 -0.00000000000E+00  0.00000000000E+00  0.90296960835E+02  0.90296960835E+02  0.00000000000E+00 0.  1.
          2   -1    0    0  501    0  0.00000000000E+00 -0.00000000000E+00 -0.14775602581E+03  0.14775602581E+03  0.00000000000E+00 0. -1.
         25    2    1    2    0    0  0.21302585440E+02 -0.35920262547E+02 -0.52721728345E+02  0.14202473311E+03  0.12508948304E+03 0.  0.
          5    1    3    3  502    0  0.14889718990E+02  0.25627412080E+02  0.27483790325E+02  0.40636179842E+02  0.41800000000E+01 0.  1.
         -5    1    3    3    0  502  0.64128664498E+01 -0.61547674627E+02 -0.80205518670E+02  0.10138855327E+03  0.41800000000E+01 0.  1.
        -11    1    1    2    0    0  0.22341175784E+02  0.16066154670E+02  0.26981303571E+02  0.38538814249E+02  0.00000000000E+00 0.  1.
         11    1    1    2    0    0 -0.43643761224E+02  0.19854107877E+02 -0.31718640199E+02  0.57489439287E+02  0.00000000000E+00 0. -1.
</event>
<event>
 7    1  0.2686828E-009  0.2509145E+03  0.7561462E-02  0.1112728E+00
         -2   -1    0    0    0  501 -0.00000000000E+00  0.00000000000E+00  0.86387219053E+02  0.86387219053E+02  0.00000000000E+00 0.  1.
          2   -1    0    0  501    0  0.00000000000E+00 -0.00000000000E+00 -0.85503340580E+03  0.85503340580E+03  0.00000000000E+00 0. -1.
         25    2    1    2    0    0  0.48520475495E+01 -0.23379476810E+03 -0.53644220633E+03  0.59841586804E+03  0.12509106461E+03 0.  0.
          5    1    3    3  502    0 -0.81253978954E+01 -0.23781082211E+03 -0.53310857747E+03  0.58381695502E+03  0.41800000000E+01 0. -1.
         -5    1    3    3    0  502  0.12977445445E+02  0.40160540100E+01 -0.33336288584E+01  0.14598913023E+02  0.41800000000E+01 0. -1.
        -11    1    1    2    0    0 -0.46118348082E+02  0.11719476877E+03 -0.14271432417E+03  0.19033889298E+03  0.00000000000E+00 0.  1.
         11    1    1    2    0    0  0.41266300533E+02  0.11659999933E+03 -0.89489656251E+02  0.15266586383E+03  0.00000000000E+00 0. -1.
</event>
<event>
 7    1  0.2686828E-009  0.9036212E+02  0.7561462E-02  0.1301977E+00
         -2   -1    0    0    0  501 -0.00000000000E+00  0.00000000000E+00  0.98846014328E+01  0.98846014328E+01  0.00000000000E+00 0.  1.
          2   -1    0    0  501    0  0.00000000000E+00 -0.00000000000E+00 -0.15757975518E+04  0.15757975518E+04  0.00000000000E+00 0. -1.
         25    2    1    2    0    0  0.37729598536E+02 -0.40620473722E+02 -0.10346513963E+04  0.10436572362E+04  0.12507345516E+03 0.  0.
          5    1    3    3  502    0 -0.11250707493E+01 -0.36690588607E+02 -0.94569142550E+03  0.94641281149E+03  0.41800000000E+01 0.  1.
         -5    1    3    3    0  502  0.38854669285E+02 -0.39298851147E+01 -0.88959970846E+02  0.97244424700E+02  0.41800000000E+01 0.  1.
        -11    1    1    2    0    0  0.28806013373E+02  0.19144396461E+02 -0.12090722031E+03  0.12575710813E+03  0.00000000000E+00 0.  1.
         11    1    1    2    0    0 -0.66535611909E+02  0.21476077261E+02 -0.41035433374E+03  0.41626780895E+03  0.00000000000E+00 0. -1.
</event>
<event>
 7    1  0.2686828E-009  0.1786923E+03  0.7561462E-02  0.1169075E+00
         -2   -1    0    0    0  501 -0.00000000000E+00  0.00000000000E+00  0.88508641234E+03  0.88508641234E+03  0.00000000000E+00 0.  1.
          2   -1    0    0  501    0  0.00000000000E+00 -0.00000000000E+00 -0.52018863104E+02  0.52018863104E+02  0.00000000000E+00 0. -1.
         25    2    1    2    0    0 -0.78746009355E+02 -0.14564091137E+03  0.25669381892E+03  0.33007862984E+03  0.12509187084E+03 0.  0.
          5    1    3    3  502    0 -0.69226327365E+02 -0.14317427411E+03  0.13711051561E+03  0.21001886357E+03  0.41800000000E+01 0.  1.
         -5    1    3    3    0  502 -0.95196819902E+01 -0.24666372625E+01  0.11958330331E+03  0.12005976627E+03  0.41800000000E+01 0.  1.
        -11    1    1    2    0    0  0.42442305926E+02  0.54426932257E+01  0.91960857540E+02  0.10142865257E+03  0.00000000000E+00 0.  1.
         11    1    1    2    0    0  0.36303703430E+02  0.14019821814E+03  0.48441287278E+03  0.50559799304E+03  0.00000000000E+00 0. -1.
</event>
<event>
 7    1  0.2686828E-009  0.1246147E+03  0.7561462E-02  0.1235673E+00
         -2   -1    0    0    0  501 -0.00000000000E+00  0.00000000000E+00  0.19628333172E+02  0.19628333172E+02  0.00000000000E+00 0.  1.
          2   -1    0    0  501    0  0.00000000000E+00 -0.00000000000E+00 -0.97846388635E+03  0.97846388635E+03  0.00000000000E+00 0. -1.
         25    2    1    2    0    0 -0.69397750892E+02  0.28118049593E+02 -0.68085704574E+03  0.69629351856E+03  0.12510665333E+03 0.  0.
          5    1    3    3  502    0 -0.18766148374E+02  0.68576903345E+02 -0.22976470586E+03  0.24054989598E+03  0.41800000000E+01 0. -1.
         -5    1    3    3    0  502 -0.50631602518E+02 -0.40458853752E+02 -0.45109233988E+03  0.45574362258E+03  0.41800000000E+01 0. -1.
        -11    1    1    2    0    0  0.88731541912E+02 -0.15770099575E+02 -0.18166612717E+03  0.20279192373E+03  0.00000000000E+00 0.  1.
         11    1    1    2    0    0 -0.19333791020E+02 -0.12347950018E+02 -0.96312380269E+02  0.99006777232E+02  0.00000000000E+00 0. -1.
</event>
<event>
 7    1  0.2686828E-009  0.2170701E+03  0.7561462E-02  0.1136086E+00
          3   -1    0    0  501    0  0.00000000000E+00  0.00000000000E+00  0.45806606701E+02  0.45806606701E+02  0.00000000000E+00 0. -1.
         -3   -1    0    0    0  501 -0.00000000000E+00 -0.00000000000E+00 -0.10347966962E+04  0.10347966962E+04  0.00000000000E+00 0.  1.
         25    2    1    2    0    0  0.17624157065E+03  0.69016426686E+02 -0.52673508546E+03  0.57351710581E+03  0.12509061525E+03 0.  0.
          5    1    3    3  502    0  0.10430892025E+03 -0.26031059696E+02 -0.25290399838E+03  0.27483790079E+03  0.41800000000E+01 0.  1.
         -5    1    3    3    0  502  0.71932650398E+02  0.95047486382E+02 -0.27383108707E+03  0.29867920502E+03  0.41800000000E+01 0.  1.
        -11    1    1    2    0    0 -0.65330452772E+02 -0.70822696074E+02 -0.18814589375E+03  0.21138306383E+03  0.00000000000E+00 0. -1.
         11    1    1    2    0    0 -0.11091111788E+03  0.18062693878E+01 -0.27410911031E+03  0.29570313329E+03  0.00000000000E+00 0.  1.
</event>
<event>
 7    1  0.2686828E-009  0.2250904E+03  0.7561462E-02  0.1130144E+00
          2   -1    0    0  501    0  0.00000000000E+00  0.00000000000E+00  0.17965925355E+04  0.17965925355E+04  0.00000000000E+00 0. -1.
         -2   -1    0    0    0  501 -0.00000000000E+00 -0.00000000000E+00 -0.30877485664E+02  0.30877485664E+02  0.00000000000E+00 0.  1.
         25    2    1    2    0    0  0.20699182973E+03 -0.19535070619E+02  0.98176699279E+03  0.10113062731E+04  0.12508682352E+03 0.  0.
          5    1    3    3  502    0 -0.16153645824E+02 -0.85924175423E+01  0.61555594437E+02  0.64353193543E+02  0.41800000000E+01 0. -1.
         -5    1    3    3    0  502  0.22314547555E+03 -0.10942653077E+02  0.92021139835E+03  0.94695307960E+03  0.41800000000E+01 0. -1.
        -11    1    1    2    0    0 -0.82941456851E+02  0.10033719854E+02  0.16626185579E+03  0.18607247376E+03  0.00000000000E+00 0.  1.
         11    1    1    2    0    0 -0.12405037287E+03  0.95013507653E+01  0.61768620123E+03  0.63009127423E+03  0.00000000000E+00 0. -1.
</event>
<event>
 7    1  0.2686828E-009  0.9822139E+02  0.7561462E-02  0.1284081E+00
         -1   -1    0    0    0  501 -0.00000000000E+00  0.00000000000E+00  0.36574627327E+03  0.36574627327E+03  0.00000000000E+00 0.  1.
          1   -1    0    0  501    0  0.00000000000E+00 -0.00000000000E+00 -0.34276633713E+02  0.34276633713E+02  0.00000000000E+00 0. -1.
         25    2    1    2    0    0  0.17790475901E+02  0.19613421381E+02  0.20431191577E+03  0.24102356959E+03  0.12509122608E+03 0.  0.
          5    1    3    3  502    0  0.12696713119E+02  0.71459755236E+02  0.92917324856E+02  0.11797798439E+03  0.41800000000E+01 0. -1.
         -5    1    3    3    0  502  0.50937627823E+01 -0.51846333854E+02  0.11139459091E+03  0.12304558520E+03  0.41800000000E+01 0. -1.
        -11    1    1    2    0    0 -0.33576979841E+02 -0.35653033301E+02  0.12740383406E+03  0.13649281773E+03  0.00000000000E+00 0.  1.
         11    1    1    2    0    0  0.15786503939E+02  0.16039611919E+02 -0.24611026634E+00  0.22506519665E+02  0.00000000000E+00 0. -1.
</event>
<event>
 7    1  0.2904568E-009  0.1932859E+03  0.7561462E-02  0.1155531E+00
         -2   -1    0    0    0  501 -0.00000000000E+00  0.00000000000E+00  0.24522936990E+02  0.24522936990E+02  0.00000000000E+00 0.  1.
          2   -1    0    0  501    0  0.00000000000E+00 -0.00000000000E+00 -0.21345074923E+04  0.21345074923E+04  0.00000000000E+00 0. -1.
         25    2    1    2    0    0  0.30877518555E+02 -0.16585901884E+03 -0.16071444868E+04  0.16208095493E+04  0.12509020035E+03 0.  0.
          5    1    3    3  502    0  0.66777805451E+02 -0.11848946668E+03 -0.13505570873E+04  0.13573949121E+04  0.41800000000E+01 0.  1.
         -5    1    3    3    0  502 -0.35900286896E+02 -0.47369552158E+02 -0.25658739952E+03  0.26341463714E+03  0.41800000000E+01 0.  1.
        -11    1    1    2    0    0 -0.61781443132E+02  0.91678322743E+02 -0.26356733391E+03  0.28581392737E+03  0.00000000000E+00 0.  1.
         11    1    1    2    0    0  0.30903924577E+02  0.74180696099E+02 -0.23927273457E+03  0.25240695263E+03  0.00000000000E+00 0. -1.
</event>
<event>
 7    1  0.2686828E-009  0.8390477E+02  0.7561462E-02  0.1318322E+00
         -2   -1    0    0    0  501 -0.00000000000E+00  0.00000000000E+00  0.95793746202E+01  0.95793746202E+01  0.00000000000E+00 0.  1.
          2   -1    0    0  501    0  0.00000000000E+00 -0.00000000000E+00 -0.15438113659E+04  0.15438113659E+04  0.00000000000E+00 0. -1.
         25    2    1    2    0    0  0.12514300408E+02 -0.62790272018E+01 -0.10262007791E+04  0.10338914284E+04  0.12508961921E+03 0.  0.
          5    1    3    3  502    0  0.15325833495E+01 -0.31798680214E+02 -0.67176924825E+02  0.74456138122E+02  0.41800000000E+01 0. -1.
         -5    1    3    3    0  502  0.10981717059E+02  0.25519653012E+02 -0.95902385425E+03  0.95943529028E+03  0.41800000000E+01 0. -1.
        -11    1    1    2    0    0  0.47239431319E+02  0.75477760006E+01 -0.26038327563E+03  0.26474135117E+03  0.00000000000E+00 0.  1.
         11    1    1    2    0    0 -0.59753731727E+02 -0.12687487988E+01 -0.24764793660E+03  0.25475796097E+03  0.00000000000E+00 0. -1.
</event>
<event>
 7    1  0.2686828E-009  0.9335510E+02  0.7561462E-02  0.1294924E+00
         -2   -1    0    0    0  501 -0.00000000000E+00  0.00000000000E+00  0.37904010031E+02  0.37904010031E+02  0.00000000000E+00 0.  1.
          2   -1    0    0  501    0  0.00000000000E+00 -0.00000000000E+00 -0.46357126175E+03  0.46357126175E+03  0.00000000000E+00 0. -1.
         25    2    1    2    0    0 -0.10156996771E+01  0.48465396517E+02 -0.34802323397E+03  0.37298166518E+03  0.12508087334E+03 0.  0.
          5    1    3    3  502    0  0.14422323319E+02 -0.19374599366E+02 -0.25784332730E+03  0.25900585388E+03  0.41800000000E+01 0.  1.
         -5    1    3    3    0  502 -0.15438022997E+02  0.67839995883E+02 -0.90179906670E+02  0.11397581130E+03  0.41800000000E+01 0.  1.
        -11    1    1    2    0    0 -0.23656995969E+02 -0.60562742865E+02 -0.26060447393E+02  0.70047456770E+02  0.00000000000E+00 0. -1.
         11    1    1    2    0    0  0.24672695646E+02  0.12097346348E+02 -0.51583570357E+02  0.58446149829E+02  0.00000000000E+00 0.  1.
</event>
<event>
 7    1  0.2686828E-009  0.1101104E+03  0.7561462E-02  0.1260366E+00
          2   -1    0    0  501    0  0.00000000000E+00  0.00000000000E+00  0.51269157570E+03  0.51269157570E+03  0.00000000000E+00 0. -1.
         -2   -1    0    0    0  501 -0.00000000000E+00 -0.00000000000E+00 -0.45416592965E+02  0.45416592965E+02  0.00000000000E+00 0.  1.
         25    2    1    2    0    0 -0.31107697319E+01  0.31203453206E+02  0.65298194044E+02  0.14454996486E+03  0.12508999086E+03 0.  0.
          5    1    3    3  502    0 -0.23795997634E+02  0.72633210053E+02  0.60958125193E+02  0.97852941361E+02  0.41800000000E+01 0. -1.
         -5    1    3    3    0  502  0.20685227902E+02 -0.41429756847E+02  0.43400688516E+01  0.46697023496E+02  0.41800000000E+01 0. -1.
        -11    1    1    2    0    0  0.35823528848E+02  0.16416805795E+02  0.16521888046E+03  0.16985321661E+03  0.00000000000E+00 0.  1.
         11    1    1    2    0    0 -0.32712759116E+02 -0.47620259001E+02  0.23675790823E+03  0.24370498720E+03  0.00000000000E+00 0. -1.
</event>
<event>
 7    1  0.2942148E-009  0.1374671E+03  0.7561462E-02  0.1216778E+00
          1   -1    0    0  501    0  0.00000000000E+00  0.00000000000E+00  0.22383386733E+04  0.22383386733E+04  0.00000000000E+00 0. -1.
         -1   -1    0    0    0  501 -0.00000000000E+00 -0.00000000000E+00 -0.14800238660E+02  0.14800238660E+02  0.00000000000E+00 0.  1.
         25    2    1    2    0    0  0.11055962873E+03 -0.64126499483E+02  0.16080517575E+04  0.16179657163E+04  0.12508782933E+03 0.  0.
          5    1    3    3  502    0  0.66695725027E+02 -0.43708186305E+02  0.35067330586E+03  0.35964978121E+03  0.41800000000E+01 0. -1.
         -5    1    3    3    0  502  0.43863903702E+02 -0.20418313178E+02  0.12573784516E+04  0.12583159351E+04  0.41800000000E+01 0. -1.
        -11    1    1    2    0    0 -0.91262294333E+02  0.80131237800E+02  0.57393502334E+03  0.58664404255E+03  0.00000000000E+00 0. -1.
         11    1    1    2    0    0 -0.19297334396E+02 -0.16004738318E+02  0.41551653787E+02  0.48529153051E+02  0.00000000000E+00 0.  1.
</event>
<event>
 7    1  0.2686828E-009  0.1029425E+03  0.7561462E-02  0.1274227E+00
         -2   -1    0    0    0  501 -0.00000000000E+00  0.00000000000E+00  0.53234739396E+03  0.53234739396E+03  0.00000000000E+00 0.  1.
          2   -1    0    0  501    0  0.00000000000E+00 -0.00000000000E+00 -0.33248208168E+02  0.33248208168E+02  0.00000000000E+00 0. -1.
         25    2    1    2    0    0 -0.48322818355E+02 -0.45918235152E+02  0.36105342944E+03  0.38787978136E+03  0.12509023455E+03 0.  0.
          5    1    3    3  502    0 -0.53864353274E+02 -0.18685715025E+01  0.32786514416E+03  0.33229186759E+03  0.41800000000E+01 0.  1.
         -5    1    3    3    0  502  0.55415349184E+01 -0.44049663649E+02  0.33188285289E+02  0.55587913770E+02  0.41800000000E+01 0.  1.
        -11    1    1    2    0    0  0.65315798374E+02  0.81552370375E+01  0.10828236481E+03  0.12671910644E+03  0.00000000000E+00 0.  1.
         11    1    1    2    0    0 -0.16992980018E+02  0.37762998114E+02  0.29763391538E+02  0.50996714329E+02  0.00000000000E+00 0. -1.
</event>
<event>
 7    1  0.2686828E-009  0.1888880E+03  0.7561462E-02  0.1159468E+00
         -2   -1    0    0    0  501 -0.00000000000E+00  0.00000000000E+00  0.24076885416E+02  0.24076885416E+02  0.00000000000E+00 0.  1.
          2   -1    0    0  501    0  0.00000000000E+00 -0.00000000000E+00 -0.24981818971E+04  0.24981818971E+04  0.00000000000E+00 0. -1.
         25    2    1    2    0    0  0.89955478743E+02  0.15433845018E+03 -0.19275309516E+04  0.19398287695E+04  0.12509092804E+03 0.  0.
          5    1    3    3  502    0 -0.17418569869E+01  0.32833713560E+01 -0.16198333605E+01  0.58233026145E+01  0.41800000000E+01 0. -1.
         -5    1    3    3    0  502  0.91697335730E+02  0.15105507883E+03 -0.19259111182E+04  0.19340054669E+04  0.41800000000E+01 0. -1.
        -11    1    1    2    0    0 -0.91564473116E+02 -0.81541459492E+02 -0.27185862903E+03  0.29822839659E+03  0.00000000000E+00 0.  1.
         11    1    1    2    0    0  0.16089943734E+01 -0.72796990690E+02 -0.27471543104E+03  0.28420161640E+03  0.00000000000E+00 0. -1.
</event>
<event>
 7    1  0.2686828E-009  0.1178216E+03  0.7561462E-02  0.1246735E+00
         -2   -1    0    0    0  501 -0.00000000000E+00  0.00000000000E+00  0.10369052047E+03  0.10369052047E+03  0.00000000000E+00 0.  1.
          2   -1    0    0  501    0  0.00000000000E+00 -0.00000000000E+00 -0.13980910670E+03  0.13980910670E+03  0.00000000000E+00 0. -1.
         25    2    1    2    0    0  0.13220820592E+02 -0.51113671175E+02 -0.31096468663E+02  0.13929132344E+03  0.12509070687E+03 0.  0.
          5    1    3    3  502    0  0.42941436239E+02 -0.79775811564E+02 -0.62251360040E+01  0.90908590217E+02  0.41800000000E+01 0.  1.
         -5    1    3    3    0  502 -0.29720615647E+02  0.28662140390E+02 -0.24871332658E+02  0.48382733226E+02  0.41800000000E+01 0.  1.
        -11    1    1    2    0    0  0.20775998329E+02 -0.17310761421E+02 -0.64059412549E+01  0.27791017450E+02  0.00000000000E+00 0.  1.
         11    1    1    2    0    0 -0.33996818921E+02  0.68424432595E+02  0.13838236868E+01  0.76417286269E+02  0.00000000000E+00 0. -1.
</event>
<event>
 7    1  0.2686828E-009  0.6422924E+02  0.7561462E-02  0.1380894E+00
          2   -1    0    0  501    0  0.00000000000E+00  0.00000000000E+00  0.42610219916E+03  0.42610219916E+03  0.00000000000E+00 0. -1.
         -2   -1    0    0    0  501 -0.00000000000E+00 -0.00000000000E+00 -0.30401079223E+02  0.30401079223E+02  0.00000000000E+00 0.  1.
         25    2    1    2    0    0  0.62536186954E-01  0.21602220347E+02  0.27027763776E+03  0.29860417309E+03  0.12509113029E+03 0.  0.
          5    1    3    3  502    0  0.96266793404E+01  0.47305506220E+02  0.30562093761E+02  0.57288723576E+02  0.41800000000E+01 0.  1.
         -5    1    3    3    0  502 -0.95641431535E+01 -0.25703285873E+02  0.23971554400E+03  0.24131544951E+03  0.41800000000E+01 0.  1.
        -11    1    1    2    0    0 -0.21152801841E+02 -0.22845041964E+02  0.13211805969E+03  0.13573694657E+03  0.00000000000E+00 0. -1.
         11    1    1    2    0    0  0.21090265654E+02  0.12428216161E+01 -0.66945775177E+01  0.22162158718E+02  0.00000000000E+00 0.  1.
</event>
<event>
 7    1  0.2686828E-009  0.2478863E+03  0.7561462E-02  0.1114648E+00
         -3   -1    0    0    0  501 -0.00000000000E+00  0.00000000000E+00  0.89224585309E+03  0.89224585309E+03  0.00000000000E+00 0.  1.
          3   -1    0    0  501    0  0.00000000000E+00 -0.00000000000E+00 -0.15959292392E+03  0.15959292392E+03  0.00000000000E+00 0. -1.
         25    2    1    2    0    0  0.19152875118E+03 -0.13272506343E+03 -0.13466492692E+02  0.26481714654E+03  0.12509024617E+03 0.  0.
          5    1    3    3  502    0  0.54003150759E+02  0.15967382391E+02  0.19142710278E+02  0.59625609843E+02  0.41800000000E+01 0. -1.
         -5    1    3    3    0  502  0.13752560042E+03 -0.14869244582E+03 -0.32609202970E+02  0.20519153670E+03  0.41800000000E+01 0. -1.
        -11    1    1    2    0    0 -0.10242557556E+03  0.45661650058E+02  0.48375432310E+03  0.49658255098E+03  0.00000000000E+00 0.  1.
         11    1    1    2    0    0 -0.89103175617E+02  0.87063413368E+02  0.26236509875E+03  0.29043907949E+03  0.00000000000E+00 0. -1.
</event>
<event>
 7    1  0.2686828E-009  0.1170198E+03  0.7561462E-02  0.1248096E+00
         -2   -1    0    0    0  501 -0.00000000000E+00  0.00000000000E+00  0.64534868848E+02  0.64534868848E+02  0.00000000000E+00 0.  1.
          2   -1    0    0  501    0  0.00000000000E+00 -0.00000000000E+00 -0.98377287971E+03  0.98377287971E+03  0.00000000000E+00 0. -1.
         25    2    1    2    0    0  0.47095935554E+02  0.76163327288E+02 -0.89943523440E+03  0.91249691952E+03  0.12509199687E+03 0.  0.
          5    1    3    3  502    0  0.69186723882E+02  0.46703180965E+01 -0.59184024566E+03  0.59590348498E+03  0.41800000000E+01 0.  1.
         -5    1    3    3    0  502 -0.22090788328E+02  0.71493009191E+02 -0.30759498875E+03  0.31659343454E+03  0.41800000000E+01 0.  1.
        -11    1    1    2    0    0 -0.38346400520E+02 -0.59130282803E+02 -0.59177868874E+02  0.92026392637E+02  0.00000000000E+00 0. -1.
         11    1    1    2    0    0 -0.87495350334E+01 -0.17033044485E+02  0.39375092418E+02  0.43784436398E+02  0.00000000000E+00 0.  1.
</event>
<event>
 7    1  0.2686828E-009  0.3324854E+03  0.7561462E-02  0.1070042E+00
         -2   -1    0    0    0  501 -0.00000000000E+00  0.00000000000E+00  0.15156535881E+03  0.15156535881E+03  0.00000000000E+00 0.  1.
          2   -1    0    0  501    0  0.00000000000E+00 -0.00000000000E+00 -0.91372760928E+03  0.91372760928E+03  0.00000000000E+00 0. -1.
         25    2    1    2    0    0  0.27411706950E+03  0.17015278426E+03 -0.60058773939E+03  0.69314029661E+03  0.12508277379E+03 0.  0.
          5    1    3    3  502    0  0.10575582354E+03  0.10582426286E+03 -0.17094246535E+03  0.22720446229E+03  0.41800000000E+01 0.  1.
         -5    1    3    3    0  502  0.16836124596E+03  0.64328521400E+02 -0.42964527404E+03  0.46593583433E+03  0.41800000000E+01 0.  1.
        -11    1    1    2    0    0 -0.21013584870E+03 -0.17117687291E+03 -0.12527083415E+03  0.29858228115E+03  0.00000000000E+00 0. -1.
         11    1    1    2    0    0 -0.63981220802E+02  0.10240886543E+01 -0.36303676939E+02  0.73570390322E+02  0.00000000000E+00 0.  1.
</event>
<event>
 7    1  0.2686828E-009  0.6096080E+02  0.7561462E-02  0.1393843E+00
          2   -1    0    0  501    0  0.00000000000E+00  0.00000000000E+00  0.28445755102E+03  0.28445755102E+03  0.00000000000E+00 0. -1.
         -2   -1    0    0    0  501 -0.00000000000E+00 -0.00000000000E+00 -0.43325247236E+02  0.43325247236E+02  0.00000000000E+00 0.  1.
         25    2    1    2    0    0 -0.21113083556E+02 -0.12332569369E+00  0.15665312370E+03  0.20157846353E+03  0.12509155961E+03 0.  0.
          5    1    3    3  502    0 -0.96827995360E+01 -0.21960131533E+02 -0.14672393903E+02  0.28438627369E+02  0.41800000000E+01 0. -1.
         -5    1    3    3    0  502 -0.11430284020E+02  0.21836805839E+02  0.17132551761E+03  0.17313983616E+03  0.41800000000E+01 0. -1.
        -11    1    1    2    0    0 -0.25363578875E+02  0.49232243857E+01 -0.40011126354E+01  0.26144945478E+02  0.00000000000E+00 0.  1.
         11    1    1    2    0    0  0.46476662431E+02 -0.47998986921E+01  0.88480292717E+02  0.10005938925E+03  0.00000000000E+00 0. -1.
</event>
<event>
 7    1  0.2736492E-009  0.8302919E+02  0.7561462E-02  0.1320668E+00
         -1   -1    0    0    0  501 -0.00000000000E+00  0.00000000000E+00  0.15805936222E+02  0.15805936222E+02  0.00000000000E+00 0.  1.
          1   -1    0    0  501    0  0.00000000000E+00 -0.00000000000E+00 -0.11365708590E+04  0.11365708590E+04  0.00000000000E+00 0. -1.
         25    2    1    2    0    0 -0.17041470543E+02 -0.43016574197E+01 -0.94854624030E+03  0.95691986354E+03  0.12508692690E+03 0.  0.
          5    1    3    3  502    0  0.15315119138E+02  0.42988765591E+02 -0.16427798078E+03  0.17055003433E+03  0.41800000000E+01 0. -1.
         -5    1    3    3    0  502 -0.32356589680E+02 -0.47290423011E+02 -0.78426825952E+03  0.78636982921E+03  0.41800000000E+01 0. -1.
        -11    1    1    2    0    0 -0.15000012688E+02 -0.18230656544E+02 -0.55566074600E+01  0.24253517376E+02  0.00000000000E+00 0.  1.
         11    1    1    2    0    0  0.32041483231E+02  0.22532313964E+02 -0.16666207506E+03  0.17120341435E+03  0.00000000000E+00 0. -1.
</event>
<event>
 7    1  0.2686828E-009  0.2069608E+03  0.7561462E-02  0.1143996E+00
         -2   -1    0    0    0  501 -0.00000000000E+00  0.00000000000E+00  0.12850182762E+04  0.12850182762E+04  0.00000000000E+00 0.  1.
          2   -1    0    0  501    0  0.00000000000E+00 -0.00000000000E+00 -0.39436733855E+02  0.39436733855E+02  0.00000000000E+00 0. -1.
         25    2    1    2    0    0  0.19080535511E+03 -0.30531815479E+02  0.71984062010E+03  0.75574899651E+03  0.12508857695E+03 0.  0.
          5    1    3    3  502    0  0.18167256914E+03 -0.17665711236E+02  0.45299273882E+03  0.48840238897E+03  0.41800000000E+01 0. -1.
         -5    1    3    3    0  502  0.91327859760E+01 -0.12866104243E+02  0.26684788129E+03  0.26734660754E+03  0.41800000000E+01 0. -1.
        -11    1    1    2    0    0 -0.12673535955E+03 -0.26234270243E+02  0.35160816967E+03  0.37467104676E+03  0.00000000000E+00 0. -1.
         11    1    1    2    0    0 -0.64069995560E+02  0.56766085722E+02  0.17413275260E+03  0.19403496682E+03  0.00000000000E+00 0.  1.
</event>
<event>
 7    1  0.2686828E-009  0.1040748E+03  0.7561462E-02  0.1271953E+00
         -2   -1    0    0    0  501 -0.00000000000E+00  0.00000000000E+00  0.46820788471E+02  0.46820788471E+02  0.00000000000E+00 0.  1.
          2   -1    0    0  501    0  0.00000000000E+00 -0.00000000000E+00 -0.34092150733E+03  0.34092150733E+03  0.00000000000E+00 0. -1.
         25    2    1    2    0    0 -0.46462830771E+02  0.30853323201E+02 -0.20685833055E+03  0.24809050623E+03  0.12509119941E+03 0.  0.
          5    1    3    3  502    0  0.20192964812E+02  0.52931219576E+02 -0.13982529649E+03  0.15092400661E+03  0.41800000000E+01 0. -1.
         -5    1    3    3    0  502 -0.66655795584E+02 -0.22077896375E+02 -0.67033034066E+02  0.97166499625E+02  0.41800000000E+01 0. -1.
        -11    1    1    2    0    0 -0.13951453377E+02 -0.96974264775E+01 -0.71828561715E+02  0.73810740477E+02  0.00000000000E+00 0. -1.
         11    1    1    2    0    0  0.60414284148E+02 -0.21155896724E+02 -0.15413826595E+02  0.65841049093E+02  0.00000000000E+00 0.  1.
</event>
<event>
 7    1  0.2686828E-009  0.1102400E+03  0.7561462E-02  0.1260126E+00
         -3   -1    0    0    0  501 -0.00000000000E+00  0.00000000000E+00  0.80611342602E+02  0.80611342602E+02  0.00000000000E+00 0.  1.
          3   -1    0    0  501    0  0.00000000000E+00 -0.00000000000E+00 -0.16692718875E+03  0.16692718875E+03  0.00000000000E+00 0. -1.
         25    2    1    2    0    0  0.36323882670E+02  0.25844684788E+02 -0.62665482883E+02  0.14684208013E+03  0.12509301166E+03 0.  0.
          5    1    3    3  502    0  0.72596832630E+02 -0.18503935748E+02 -0.30430316876E+02  0.80970194091E+02  0.41800000000E+01 0.  1.
         -5    1    3    3    0  502 -0.36272949960E+02  0.44348620536E+02 -0.32235166006E+02  0.65871886034E+02  0.41800000000E+01 0.  1.
        -11    1    1    2    0    0  0.21247084077E+02 -0.21559673627E+02 -0.30000633934E+02  0.42618026058E+02  0.00000000000E+00 0.  1.
         11    1    1    2    0    0 -0.57570966746E+02 -0.42850111618E+01  0.63502706661E+01  0.58078425171E+02  0.00000000000E+00 0. -1.
</event>
<event>
 7    1  0.2686828E-009  0.2925443E+03  0.7561462E-02  0.1089028E+00
          2   -1    0    0  501    0  0.00000000000E+00  0.00000000000E+00  0.34226459135E+03  0.34226459135E+03  0.00000000000E+00 0. -1.
         -2   -1    0    0    0  501 -0.00000000000E+00 -0.00000000000E+00 -0.28504401441E+03  0.28504401441E+03  0.00000000000E+00 0.  1.
         25    2    1    2    0    0  0.26499220227E+03 -0.62358143773E+02 -0.80550736407E+02  0.31023450845E+03  0.12509046221E+03 0.  0.
          5    1    3    3  502    0  0.10058441355E+03  0.37161386306E+02 -0.31735347396E+02  0.11190530620E+03  0.41800000000E+01 0.  1.
         -5    1    3    3    0  502  0.16440778873E+03 -0.99519530079E+02 -0.48815389011E+02  0.19832920225E+03  0.41800000000E+01 0.  1.
        -11    1    1    2    0    0 -0.87229657670E+02 -0.20220725712E+02  0.45291066124E+02  0.10034526195E+03  0.00000000000E+00 0. -1.
         11    1    1    2    0    0 -0.17776254460E+03  0.82578869485E+02  0.92480247232E+02  0.21672883536E+03  0.00000000000E+00 0.  1.
</event>
<event>
 7    1  0.2686828E-009  0.1250356E+03  0.7561462E-02  0.1235014E+00
          2   -1    0    0  501    0  0.00000000000E+00  0.00000000000E+00  0.11150471717E+04  0.11150471717E+04  0.00000000000E+00 0. -1.
         -2   -1    0    0    0  501 -0.00000000000E+00 -0.00000000000E+00 -0.22175206501E+02  0.22175206501E+02  0.00000000000E+00 0.  1.
         25    2    1    2    0    0  0.78042218133E+02  0.72678439838E+02  0.71018108487E+03  0.72895638010E+03  0.12508991707E+03 0.  0.
          5    1    3    3  502    0  0.21787782512E+01  0.36866281763E+01 -0.41552610317E+01  0.72853892291E+01  0.41800000000E+01 0. -1.
         -5    1    3    3    0  502  0.75863439882E+02  0.68991811661E+02  0.71433634590E+03  0.72167099087E+03  0.41800000000E+01 0. -1.
        -11    1    1    2    0    0 -0.84939637753E+02 -0.18613322561E+02  0.21412072516E+03  0.23110361914E+03  0.00000000000E+00 0.  1.
         11    1    1    2    0    0  0.68974196203E+01 -0.54065117277E+02  0.16857015512E+03  0.17716237891E+03  0.00000000000E+00 0. -1.
</event>
<event>
 7    1  0.2686828E-009  0.1164048E+03  0.7561462E-02  0.1249149E+00
          1   -1    0    0  501    0  0.00000000000E+00  0.00000000000E+00  0.43031412837E+03  0.43031412837E+03  0.00000000000E+00 0. -1.
         -1   -1    0    0    0  501 -0.00000000000E+00 -0.00000000000E+00 -0.39330203951E+02  0.39330203951E+02  0.00000000000E+00 0.  1.
         25    2    1    2    0    0 -0.65493053054E+02  0.26401346156E+01  0.23713991177E+03  0.27600598561E+03  0.12509059130E+03 0.  0.
          5    1    3    3  502    0 -0.92982987524E+01  0.55484082814E+02  0.57954690673E+02  0.80877440466E+02  0.41800000000E+01 0.  1.
         -5    1    3    3    0  502 -0.56194754302E+02 -0.52843948198E+02  0.17918522110E+03  0.19512854515E+03  0.41800000000E+01 0.  1.
        -11    1    1    2    0    0  0.12816263481E+02 -0.35034204909E+02  0.12475185174E+02  0.39335510272E+02  0.00000000000E+00 0. -1.
         11    1    1    2    0    0  0.52676789574E+02  0.32394070293E+02  0.14136882748E+03  0.15430283644E+03  0.00000000000E+00 0.  1.
</event>
<event>
 7    1  0.2686828E-009  0.1086553E+03  0.7561462E-02  0.1263080E+00
         -2   -1    0    0    0  501 -0.00000000000E+00  0.00000000000E+00  0.18465474609E+02  0.18465474609E+02  0.00000000000E+00 0. -1.
          2   -1    0    0  501    0  0.00000000000E+00 -0.00000000000E+00 -0.79899789329E+03  0.79899789329E+03  0.00000000000E+00 0.  1.
         25    2    1    2    0    0  0.13989363744E+02  0.14832998095E+02 -0.61059901768E+03  0.62361355012E+03  0.12508788659E+03 0.  0.
          5    1    3    3  502    0  0.32084115223E+02 -0.48456104879E+02 -0.22543420155E+03  0.23284208421E+03  0.41800000000E+01 0.  1.
         -5    1    3    3    0  502 -0.18094751480E+02  0.63289102974E+02 -0.38516481613E+03  0.39077146591E+03  0.41800000000E+01 0.  1.
        -11    1    1    2    0    0  0.99707201037E+01  0.35751377782E+02 -0.61798327119E+02  0.72087512840E+02  0.00000000000E+00 0. -1.
         11    1    1    2    0    0 -0.23960083847E+02 -0.50584375877E+02 -0.10813507388E+03  0.12176230494E+03  0.00000000000E+00 0.  1.
</event>
<event>
 7    1  0.2686828E-009  0.2175196E+03  0.7561462E-02  0.1135746E+00
         -1   -1    0    0    0  501 -0.00000000000E+00  0.00000000000E+00  0.50295869061E+03  0.50295869061E+03  0.00000000000E+00 0.  1.
          1   -1    0    0  501    0  0.00000000000E+00 -0.00000000000E+00 -0.14134813022E+03  0.14134813022E+03  0.00000000000E+00 0. -1.
         25    2    1    2    0    0 -0.30431634804E+02  0.19310208132E+03  0.36073490075E+03  0.42894220879E+03  0.12508897498E+03 0.  0.
          5    1    3    3  502    0 -0.76834758153E+02  0.11650744375E+03  0.25119880342E+03  0.28739498212E+03  0.41800000000E+01 0. -1.
         -5    1    3    3    0  502  0.46403123349E+02  0.76594637568E+02  0.10953609733E+03  0.14154722668E+03  0.41800000000E+01 0. -1.
        -11    1    1    2    0    0  0.26995313595E+02 -0.22546108914E+02 -0.24545880768E+02  0.42890258170E+02  0.00000000000E+00 0.  1.
         11    1    1    2    0    0  0.34363212091E+01 -0.17055597240E+03  0.25421540411E+02  0.17247435387E+03  0.00000000000E+00 0. -1.
</event>
<event>
 7    1  0.2686828E-009  0.7338803E+02  0.7561462E-02  0.1348937E+00
          2   -1    0    0  501    0  0.00000000000E+00  0.00000000000E+00  0.84479143849E+02  0.84479143849E+02  0.00000000000E+00 0. -1.
         -2   -1    0    0    0  501 -0.00000000000E+00 -0.00000000000E+00 -0.21305780521E+03  0.21305780521E+03  0.00000000000E+00 0.  1.
         25    2    1    2    0    0  0.44354931442E+02 -0.13001998896E+02 -0.14151395603E+03  0.19444966646E+03  0.12509221046E+03 0.  0.
          5    1    3    3  502    0  0.13890114752E+01 -0.26378826587E+02 -0.14655532295E+03  0.14897552460E+03  0.41800000000E+01 0.  1.
         -5    1    3    3    0  502  0.42965919967E+02  0.13376827691E+02  0.50413669225E+01  0.45474141862E+02  0.41800000000E+01 0.  1.
        -11    1    1    2    0    0 -0.57254944844E+02  0.19382140446E+02 -0.22768145369E+02  0.64592449411E+02  0.00000000000E+00 0.  1.
         11    1    1    2    0    0  0.12900013402E+02 -0.63801415502E+01  0.35703440033E+02  0.38494833188E+02  0.00000000000E+00 0. -1.
</event>
<event>
 7    1  0.2686828E-009  0.1179629E+03  0.7561462E-02  0.1246496E+00
          1   -1    0    0  501    0  0.00000000000E+00  0.00000000000E+00  0.45832800557E+03  0.45832800557E+03  0.00000000000E+00 0. -1.
         -1   -1    0    0    0  501 -0.00000000000E+00 -0.00000000000E+00 -0.38616551470E+02  0.38616551470E+02  0.00000000000E+00 0.  1.
         25    2    1    2    0    0  0.99325962028E+01  0.60744232998E+02  0.28466793017E+03  0.31697289644E+03  0.12508984092E+03 0.  0.
          5    1    3    3  502    0  0.55595618042E+02 -0.49562957568E+01  0.84401154978E+02  0.10127420686E+03  0.41800000000E+01 0. -1.
         -5    1    3    3    0  502 -0.45663021839E+02  0.65700528755E+02  0.20026677519E+03  0.21569868958E+03  0.41800000000E+01 0. -1.
        -11    1    1    2    0    0  0.33646762918E+02 -0.37720615369E+02  0.19184532123E+02  0.54064736672E+02  0.00000000000E+00 0. -1.
         11    1    1    2    0    0 -0.43579359120E+02 -0.23023617629E+02  0.11585899180E+03  0.12590692392E+03  0.00000000000E+00 0.  1.
</event>
<event>
 7    1  0.2686828E-009  0.1255376E+03  0.7561462E-02  0.1234232E+00
         -1   -1    0    0    0  501 -0.00000000000E+00  0.00000000000E+00  0.82569732852E+02  0.82569732852E+02  0.00000000000E+00 0.  1.
          1   -1    0    0  501    0  0.00000000000E+00 -0.00000000000E+00 -0.25660351032E+03  0.25660351032E+03  0.00000000000E+00 0. -1.
         25    2    1    2    0    0  0.54596287215E+01  0.95728355940E+02 -0.78358423975E+02  0.17601452738E+03  0.12508935032E+03 0.  0.
          5    1    3    3  502    0 -0.29264921902E+02 -0.17166706280E+02  0.44940603494E-01  0.34184877915E+02  0.41800000000E+01 0. -1.
         -5    1    3    3    0  502  0.34724550623E+02  0.11289506222E+03 -0.78403364579E+02  0.14182964946E+03  0.41800000000E+01 0. -1.
        -11    1    1    2    0    0  0.83339225355E+01 -0.19059771021E+02  0.16525119879E+02  0.26567060869E+02  0.00000000000E+00 0.  1.
         11    1    1    2    0    0 -0.13793551257E+02 -0.76668584920E+02 -0.11220047337E+03  0.13659165493E+03  0.00000000000E+00 0. -1.
</event>
<event>
 7    1  0.2686828E-009  0.1233440E+03  0.7561462E-02  0.1237680E+00
         -1   -1    0    0    0  501 -0.00000000000E+00  0.00000000000E+00  0.85919002057E+02  0.85919002057E+02  0.00000000000E+00 0.  1.
          1   -1    0    0  501    0  0.00000000000E+00 -0.00000000000E+00 -0.27150662349E+03  0.27150662349E+03  0.00000000000E+00 0. -1.
         25    2    1    2    0    0 -0.76178199436E+02  0.23801616310E+02 -0.18367881742E+03  0.23612698346E+03  0.12509360233E+03 0.  0.
          5    1    3    3  502    0 -0.72580071148E+02 -0.37370286274E+02 -0.73222039805E+02  0.10974217301E+03  0.41800000000E+01 0.  1.
         -5    1    3    3    0  502 -0.35981282887E+01  0.61171902584E+02 -0.11045677761E+03  0.12638481045E+03  0.41800000000E+01 0.  1.
        -11    1    1    2    0    0  0.11340083677E+02 -0.35829225163E+02  0.29955975543E+02  0.48059248270E+02  0.00000000000E+00 0.  1.
         11    1    1    2    0    0  0.64838115759E+02  0.12027608853E+02 -0.31864779562E+02  0.73239393815E+02  0.00000000000E+00 0. -1.
</event>
<event>
 7    1  0.2686828E-009  0.2266697E+03  0.7561462E-02  0.1129006E+00
         -2   -1    0    0    0  501 -0.00000000000E+00  0.00000000000E+00  0.89755265663E+02  0.89755265663E+02  0.00000000000E+00 0.  1.
          2   -1    0    0  501    0  0.00000000000E+00 -0.00000000000E+00 -0.69075817364E+03  0.69075817364E+03  0.00000000000E+00 0. -1.
         25    2    1    2    0    0 -0.21181847933E+03 -0.61751259376E+02 -0.36848879400E+03  0.44733885621E+03  0.12509106586E+03 0.  0.
          5    1    3    3  502    0 -0.19503620122E+03 -0.38453583007E+02 -0.22209115011E+03  0.29809352423E+03  0.41800000000E+01 0.  1.
         -5    1    3    3    0  502 -0.16782278114E+02 -0.23297676369E+02 -0.14639764389E+03  0.14924533199E+03  0.41800000000E+01 0.  1.
        -11    1    1    2    0    0  0.20810913480E+03  0.51214133007E+02 -0.18118113729E+03  0.28064016804E+03  0.00000000000E+00 0.  1.
         11    1    1    2    0    0  0.37093445299E+01  0.10537126369E+02 -0.51332976688E+02  0.52534415049E+02  0.00000000000E+00 0. -1.
</event>
<event>
 7    1  0.2686828E-009  0.1189786E+03  0.7561462E-02  0.1244792E+00
         -2   -1    0    0    0  501 -0.00000000000E+00  0.00000000000E+00  0.11583300954E+03  0.11583300954E+03  0.00000000000E+00 0.  1.
          2   -1    0    0  501    0  0.00000000000E+00 -0.00000000000E+00 -0.16190836395E+03  0.16190836395E+03  0.00000000000E+00 0. -1.
         25    2    1    2    0    0  0.77905284174E+02 -0.29166296476E+02 -0.20264834386E+02  0.15158611533E+03  0.12509108959E+03 0.  0.
          5    1    3    3  502    0  0.15502928067E+02 -0.46811024547E+02 -0.58156076075E+02  0.76362388532E+02  0.41800000000E+01 0. -1.
         -5    1    3    3    0  502  0.62402356107E+02  0.17644728071E+02  0.37891241689E+02  0.75223726796E+02  0.41800000000E+01 0. -1.
        -11    1    1    2    0    0 -0.38206442869E+02 -0.32490667769E+02 -0.10756441083E+02  0.51294022981E+02  0.00000000000E+00 0.  1.
         11    1    1    2    0    0 -0.39698841305E+02  0.61656964245E+02 -0.15054078941E+02  0.74861235186E+02  0.00000000000E+00 0. -1.
</event>
<event>
 7    1  0.2686828E-009  0.1058517E+03  0.7561462E-02  0.1268451E+00
          3   -1    0    0  501    0  0.00000000000E+00  0.00000000000E+00  0.31802071435E+02  0.31802071435E+02  0.00000000000E+00 0. -1.
         -3   -1    0    0    0  501 -0.00000000000E+00 -0.00000000000E+00 -0.44850417853E+03  0.44850417853E+03  0.00000000000E+00 0.  1.
         25    2    1    2    0    0  0.21712272048E+02  0.28832362094E+02 -0.16955453684E+03  0.21376904121E+03  0.12508290913E+03 0.  0.
          5    1    3    3  502    0  0.64775273008E+02  0.31165689866E+02 -0.14968313225E+03  0.16610132058E+03  0.41800000000E+01 0.  1.
         -5    1    3    3    0  502 -0.43063000959E+02 -0.23333277720E+01 -0.19871404596E+02  0.47667720637E+02  0.41800000000E+01 0.  1.
        -11    1    1    2    0    0 -0.34308637728E+02 -0.56426300378E+02 -0.19860868810E+03  0.20929983514E+03  0.00000000000E+00 0.  1.
         11    1    1    2    0    0  0.12596365680E+02  0.27593938284E+02 -0.48538882152E+02  0.57237373620E+02  0.00000000000E+00 0. -1.
</event>
<event>
 7    1  0.2686828E-009  0.6479450E+02  0.7561462E-02  0.1378746E+00
          1   -1    0    0  501    0  0.00000000000E+00  0.00000000000E+00  0.21300269809E+02  0.21300269809E+02  0.00000000000E+00 0. -1.
         -1   -1    0    0    0  501 -0.00000000000E+00 -0.00000000000E+00 -0.55745619310E+03  0.55745619310E+03  0.00000000000E+00 0.  1.
         25    2    1    2    0    0 -0.51702480916E+01 -0.12747455552E+02 -0.27024912460E+03  0.29811303351E+03  0.12509021668E+03 0.  0.
          5    1    3    3  502    0 -0.22291856715E+02 -0.25021167671E+02 -0.27420321742E+03  0.27627497634E+03  0.41800000000E+01 0. -1.
         -5    1    3    3    0  502  0.17121608624E+02  0.12273712119E+02  0.39540928138E+01  0.21838057172E+02  0.41800000000E+01 0. -1.
        -11    1    1    2    0    0 -0.32626527572E+00  0.43298470972E+02 -0.22586849397E+03  0.22998139186E+03  0.00000000000E+00 0.  1.
         11    1    1    2    0    0  0.54965133673E+01 -0.30551015420E+02 -0.40038304725E+02  0.50662037539E+02  0.00000000000E+00 0. -1.
</event>
<event>
 7    1  0.2686828E-009  0.1724019E+03  0.7561462E-02  0.1175366E+00
          3   -1    0    0  501    0  0.00000000000E+00  0.00000000000E+00  0.18952663784E+03  0.18952663784E+03  0.00000000000E+00 0. -1.
         -3   -1    0    0    0  501 -0.00000000000E+00 -0.00000000000E+00 -0.20242767680E+03  0.20242767680E+03  0.00000000000E+00 0.  1.
         25    2    1    2    0    0  0.13348006949E+03 -0.89837191986E+02  0.22055611304E+02  0.20498924042E+03  0.12508592520E+03 0.  0.
          5    1    3    3  502    0  0.11349789489E+03 -0.10620017305E+03 -0.18644102981E+02  0.15660563169E+03  0.41800000000E+01 0. -1.
         -5    1    3    3    0  502  0.19982174596E+02  0.16362981066E+02  0.40699714285E+02  0.48383608731E+02  0.41800000000E+01 0. -1.
        -11    1    1    2    0    0 -0.72845139083E+02  0.64983250474E+02 -0.62466995482E+02  0.11589375589E+03  0.00000000000E+00 0.  1.
         11    1    1    2    0    0 -0.60634930403E+02  0.24853941512E+02  0.27510345218E+02  0.71071318320E+02  0.00000000000E+00 0. -1.
</event>
<event>
 7    1  0.2686828E-009  0.1106804E+03  0.7561462E-02  0.1259315E+00
         -1   -1    0    0    0  501 -0.00000000000E+00  0.00000000000E+00  0.29617950486E+03  0.29617950486E+03  0.00000000000E+00 0.  1.
          1   -1    0    0  501    0  0.00000000000E+00 -0.00000000000E+00 -0.52280601348E+02  0.52280601348E+02  0.00000000000E+00 0. -1.
         25    2    1    2    0    0 -0.13694217333E+02 -0.39054514227E+00  0.13164955582E+03  0.18211848421E+03  0.12509137711E+03 0.  0.
          5    1    3    3  502    0  0.48611687522E+02  0.60074782517E+00  0.17199873611E+02  0.51737463350E+02  0.41800000000E+01 0.  1.
         -5    1    3    3    0  502 -0.62305904855E+02 -0.99129296744E+00  0.11444968221E+03  0.13038102086E+03  0.41800000000E+01 0.  1.
        -11    1    1    2    0    0  0.30300689611E+02 -0.49218313643E+02  0.21643203193E+02  0.61717116210E+02  0.00000000000E+00 0. -1.
         11    1    1    2    0    0 -0.16606472278E+02  0.49608858785E+02  0.90606144496E+02  0.10462450579E+03  0.00000000000E+00 0.  1.
</event>
<event>
 7    1  0.2686828E-009  0.1036449E+03  0.7561462E-02  0.1272813E+00
         -1   -1    0    0    0  501 -0.00000000000E+00  0.00000000000E+00  0.26449286542E+03  0.26449286542E+03  0.00000000000E+00 0.  1.
          1   -1    0    0  501    0  0.00000000000E+00 -0.00000000000E+00 -0.51495350055E+02  0.51495350055E+02  0.00000000000E+00 0. -1.
         25    2    1    2    0    0 -0.53561339074E+02 -0.20572051326E+02  0.12128053648E+03  0.18343442690E+03  0.12508874492E+03 0.  0.
          5    1    3    3  502    0  0.10313024570E+02  0.37772073931E+02  0.69243008643E+01  0.39981325481E+02  0.41800000000E+01 0.  1.
         -5    1    3    3    0  502 -0.63874363643E+02 -0.58344125257E+02  0.11435623561E+03  0.14345310142E+03  0.41800000000E+01 0.  1.
        -11    1    1    2    0    0  0.40050998276E+01 -0.18039808244E+02  0.58788512241E+02  0.61624383791E+02  0.00000000000E+00 0.  1.
         11    1    1    2    0    0  0.49556239246E+02  0.38611859570E+02  0.32928466648E+02  0.70929404787E+02  0.00000000000E+00 0. -1.
</event>
<event>
 7    1  0.2686828E-009  0.1375276E+03  0.7561462E-02  0.1216695E+00
          2   -1    0    0  501    0  0.00000000000E+00  0.00000000000E+00  0.69227545591E+03  0.69227545591E+03  0.00000000000E+00 0. -1.
         -2   -1    0    0    0  501 -0.00000000000E+00 -0.00000000000E+00 -0.40895868447E+02  0.40895868447E+02  0.00000000000E+00 0.  1.
         25    2    1    2    0    0  0.86876817095E+02  0.90053959683E+02  0.40956650614E+03  0.44614951379E+03  0.12508944281E+03 0.  0.
          5    1    3    3  502    0  0.16715884158E+02  0.23840439803E+02  0.29436489780E+03  0.29583095309E+03  0.41800000000E+01 0.  1.
         -5    1    3    3    0  502  0.70160932937E+02  0.66213519880E+02  0.11520160834E+03  0.15031856070E+03  0.41800000000E+01 0.  1.
        -11    1    1    2    0    0 -0.69103529105E+02 -0.13400713713E+02  0.76621570965E+02  0.10404682600E+03  0.00000000000E+00 0.  1.
         11    1    1    2    0    0 -0.17773287990E+02 -0.76653245969E+02  0.16519151036E+03  0.18297498457E+03  0.00000000000E+00 0. -1.
</event>
<event>
 7    1  0.2686828E-009  0.1416252E+03  0.7561462E-02  0.1211159E+00
         -1   -1    0    0    0  501 -0.00000000000E+00  0.00000000000E+00  0.50510617011E+03  0.50510617011E+03  0.00000000000E+00 0.  1.
          1   -1    0    0  501    0  0.00000000000E+00 -0.00000000000E+00 -0.58738258003E+02  0.58738258003E+02  0.00000000000E+00 0. -1.
         25    2    1    2    0    0 -0.81353122542E+02  0.70000450186E+02  0.10802881243E+03  0.19706928453E+03  0.12509070716E+03 0.  0.
          5    1    3    3  502    0 -0.58728818348E+01  0.78657005016E+02  0.88281000999E+02  0.11845852741E+03  0.41800000000E+01 0. -1.
         -5    1    3    3    0  502 -0.75480240707E+02 -0.86565548302E+01  0.19747811428E+02  0.78610757120E+02  0.41800000000E+01 0. -1.
        -11    1    1    2    0    0  0.15657958259E+01 -0.44331415580E+02  0.51643632091E+02  0.68079298317E+02  0.00000000000E+00 0. -1.
         11    1    1    2    0    0  0.79787326716E+02 -0.25669034606E+02  0.28669546759E+03  0.29869584526E+03  0.00000000000E+00 0.  1.
</event>
<event>
 7    1  0.2686828E-009  0.8999490E+02  0.7561462E-02  0.1302864E+00
         -4   -1    0    0    0  501 -0.00000000000E+00  0.00000000000E+00  0.94583093198E+02  0.94583093198E+02  0.00000000000E+00 0.  1.
          4   -1    0    0  501    0  0.00000000000E+00 -0.00000000000E+00 -0.15371491068E+03  0.15371491068E+03  0.00000000000E+00 0. -1.
         25    2    1    2    0    0 -0.35195261782E+01 -0.42285378360E+02 -0.64210601322E+02  0.14686995010E+03  0.12508933061E+03 0.  0.
          5    1    3    3  502    0 -0.13116887889E+02  0.20219507845E+02  0.26596180719E+02  0.36134616010E+02  0.41800000000E+01 0.  1.
         -5    1    3    3    0  502  0.95973617107E+01 -0.62504886205E+02 -0.90806782041E+02  0.11073533409E+03  0.41800000000E+01 0.  1.
        -11    1    1    2    0    0 -0.31768918060E+02  0.46813523710E+02  0.23620900100E+02  0.61308376902E+02  0.00000000000E+00 0.  1.
         11    1    1    2    0    0  0.35288444239E+02 -0.45281453501E+01 -0.18542116256E+02  0.40119676872E+02  0.00000000000E+00 0. -1.
</event>
<event>
 7    1  0.2686828E-009  0.1489558E+03  0.7561462E-02  0.1201762E+00
         -1   -1    0    0    0  501 -0.00000000000E+00  0.00000000000E+00  0.88649920606E+02  0.88649920606E+02  0.00000000000E+00 0.  1.
          1   -1    0    0  501    0  0.00000000000E+00 -0.00000000000E+00 -0.32912768472E+03  0.32912768472E+03  0.00000000000E+00 0. -1.
         25    2    1    2    0    0 -0.20689396204E+01  0.11284963886E+03 -0.46084840704E+02  0.17467280169E+03  0.12508978218E+03 0.  0.
          5    1    3    3  502    0  0.51230666376E+02  0.54298969441E+02  0.12870425031E+02  0.75868830887E+02  0.41800000000E+01 0. -1.
         -5    1    3    3    0  502 -0.53299605996E+02  0.58550669420E+02 -0.58955265735E+02  0.98803970805E+02  0.41800000000E+01 0. -1.
        -11    1    1    2    0    0  0.18841238035E+01 -0.12834485805E+03 -0.15812562744E+03  0.20366557530E+03  0.00000000000E+00 0. -1.
         11    1    1    2    0    0  0.18481581684E+00  0.15495219184E+02 -0.36267295972E+02  0.39439228334E+02  0.00000000000E+00 0.  1.
</event>
<event>
 7    1  0.2686828E-009  0.5756023E+02  0.7561462E-02  0.1408365E+00
          2   -1    0    0  501    0  0.00000000000E+00  0.00000000000E+00  0.27651549505E+03  0.27651549505E+03  0.00000000000E+00 0.  1.
         -2   -1    0    0    0  501 -0.00000000000E+00 -0.00000000000E+00 -0.53850525374E+02  0.53850525374E+02  0.00000000000E+00 0. -1.
         25    2    1    2    0    0 -0.39882065816E+02 -0.43382302502E+00  0.15982271793E+03  0.20683724796E+03  0.12509028179E+03 0.  0.
          5    1    3    3  502    0 -0.24694621518E+02 -0.29253308247E+02 -0.49462873388E+01  0.38826775990E+02  0.41800000000E+01 0.  1.
         -5    1    3    3    0  502 -0.15187444298E+02  0.28819485222E+02  0.16476900527E+03  0.16801047197E+03  0.41800000000E+01 0.  1.
        -11    1    1    2    0    0  0.31181221094E+02 -0.74127058455E+01  0.89146670841E+02  0.94733023169E+02  0.00000000000E+00 0.  1.
         11    1    1    2    0    0  0.87008447220E+01  0.78465288705E+01 -0.26304419091E+02  0.28795749303E+02  0.00000000000E+00 0. -1.
</event>
<event>
 7    1  0.2686828E-009  0.1077152E+03  0.7561462E-02  0.1264860E+00
         -1   -1    0    0    0  501 -0.00000000000E+00  0.00000000000E+00  0.18198904777E+03  0.18198904777E+03  0.00000000000E+00 0.  1.
          1   -1    0    0  501    0  0.00000000000E+00 -0.00000000000E+00 -0.73001881886E+02  0.73001881886E+02  0.00000000000E+00 0. -1.
         25    2    1    2    0    0 -0.21068579420E+02 -0.32449611808E+02  0.76284973145E+02  0.15153126051E+03  0.12508182697E+03 0.  0.
          5    1    3    3  502    0  0.36551777857E+02 -0.45201860388E+02  0.71401313792E+02  0.92167568365E+02  0.41800000000E+01 0.  1.
         -5    1    3    3    0  502 -0.57620357277E+02  0.12752248580E+02  0.48836593533E+01  0.59363692146E+02  0.41800000000E+01 0.  1.
        -11    1    1    2    0    0  0.46037152663E+02  0.49617464596E+02  0.25371156893E+02  0.72284215568E+02  0.00000000000E+00 0.  1.
         11    1    1    2    0    0 -0.24968573243E+02 -0.17167852788E+02  0.73310358449E+01  0.31175453576E+02  0.00000000000E+00 0. -1.
</event>
<event>
 7    1  0.2686828E-009  0.4253094E+03  0.7561462E-02  0.1035352E+00
          2   -1    0    0  501    0  0.00000000000E+00  0.00000000000E+00  0.21897285137E+04  0.21897285137E+04  0.00000000000E+00 0. -1.
         -2   -1    0    0    0  501 -0.00000000000E+00 -0.00000000000E+00 -0.10160544672E+03  0.10160544672E+03  0.00000000000E+00 0.  1.
         25    2    1    2    0    0 -0.41845987156E+03  0.33421766689E+02  0.15075911150E+04  0.15699381206E+04  0.12509617840E+03 0.  0.
          5    1    3    3  502    0 -0.14589090259E+03  0.48117474656E+02  0.72468598664E+03  0.74080138934E+03  0.41800000000E+01 0.  1.
         -5    1    3    3    0  502 -0.27256896897E+03 -0.14695707967E+02  0.78290512833E+03  0.82913673121E+03  0.41800000000E+01 0.  1.
        -11    1    1    2    0    0  0.15032573568E+03 -0.40606438689E+02  0.26397458287E+03  0.30647885746E+03  0.00000000000E+00 0. -1.
         11    1    1    2    0    0  0.26813413588E+03  0.71846720003E+01  0.31655736920E+03  0.41491698245E+03  0.00000000000E+00 0.  1.
</event>
<event>
 7    1  0.2686828E-009  0.1057522E+03  0.7561462E-02  0.1268645E+00
          1   -1    0    0  501    0  0.00000000000E+00  0.00000000000E+00  0.68321515338E+03  0.68321515338E+03  0.00000000000E+00 0. -1.
         -1   -1    0    0    0  501 -0.00000000000E+00 -0.00000000000E+00 -0.28509264105E+02  0.28509264105E+02  0.00000000000E+00 0.  1.
         25    2    1    2    0    0 -0.82051131628E+02 -0.31213634722E+02  0.34485167864E+03  0.37719583279E+03  0.12508931536E+03 0.  0.
          5    1    3    3  502    0 -0.56110446486E+02 -0.23077379354E+02  0.43935156434E+02  0.75024782662E+02  0.41800000000E+01 0.  1.
         -5    1    3    3    0  502 -0.25940685142E+02 -0.81362553677E+01  0.30091652221E+03  0.30217105013E+03  0.41800000000E+01 0.  1.
        -11    1    1    2    0    0  0.82616236933E+02 -0.88744360808E+01  0.24012845671E+03  0.25409815809E+03  0.00000000000E+00 0. -1.
         11    1    1    2    0    0 -0.56510530488E+00  0.40088070802E+02  0.69725753925E+02  0.80430426612E+02  0.00000000000E+00 0.  1.
</event>
<event>
 7    1  0.2686828E-009  0.1202837E+03  0.7561462E-02  0.1242630E+00
          1   -1    0    0  501    0  0.00000000000E+00  0.00000000000E+00  0.92852369275E+02  0.92852369275E+02  0.00000000000E+00 0. -1.
         -1   -1    0    0    0  501 -0.00000000000E+00 -0.00000000000E+00 -0.16915354005E+03  0.16915354005E+03  0.00000000000E+00 0.  1.
         25    2    1    2    0    0 -0.51481916632E+02  0.58089007207E+01 -0.76573639555E+02  0.15554862707E+03  0.12509085515E+03 0.  0.
          5    1    3    3  502    0 -0.91132669279E+02 -0.91248080442E+01 -0.61426234988E+02  0.11035887040E+03  0.41800000000E+01 0.  1.
         -5    1    3    3    0  502  0.39650752647E+02  0.14933708765E+02 -0.15147404567E+02  0.45189756672E+02  0.41800000000E+01 0.  1.
        -11    1    1    2    0    0  0.80909351863E+01  0.41402536055E+02 -0.26440131077E+01  0.42268475597E+02  0.00000000000E+00 0.  1.
         11    1    1    2    0    0  0.43390981445E+02 -0.47211436776E+02  0.29164818856E+01  0.64188806655E+02  0.00000000000E+00 0. -1.
</event>
<event>
 7    1  0.2686828E-009  0.8728791E+02  0.7561462E-02  0.1309556E+00
          3   -1    0    0  501    0  0.00000000000E+00  0.00000000000E+00  0.18875304486E+02  0.18875304486E+02  0.00000000000E+00 0. -1.
         -3   -1    0    0    0  501 -0.00000000000E+00 -0.00000000000E+00 -0.67409044288E+03  0.67409044288E+03  0.00000000000E+00 0.  1.
         25    2    1    2    0    0  0.14337033288E+02  0.98666526691E+01 -0.43623130787E+03  0.45414521635E+03  0.12508885724E+03 0.  0.
          5    1    3    3  502    0 -0.34823045077E+02  0.90793321568E+01 -0.36886855694E+03  0.37064344516E+03  0.41800000000E+01 0.  1.
         -5    1    3    3    0  502  0.49160078366E+02  0.78732051229E+00 -0.67362750932E+02  0.83501771189E+02  0.41800000000E+01 0.  1.
        -11    1    1    2    0    0  0.36484601484E+02  0.29081372355E+01 -0.50451757545E+02  0.62329473341E+02  0.00000000000E+00 0. -1.
         11    1    1    2    0    0 -0.50821634772E+02 -0.12774789905E+02 -0.16853207298E+03  0.17649105768E+03  0.00000000000E+00 0.  1.
</event>
<event>
 7    1  0.2686828E-009  0.8646419E+02  0.7561462E-02  0.1311647E+00
          1   -1    0    0  501    0  0.00000000000E+00  0.00000000000E+00  0.98813068687E+02  0.98813068687E+02  0.00000000000E+00 0. -1.
         -1   -1    0    0    0  501 -0.00000000000E+00 -0.00000000000E+00 -0.13912480726E+03  0.13912480726E+03  0.00000000000E+00 0.  1.
         25    2    1    2    0    0 -0.34907369725E+02  0.33525906998E+01 -0.42417397424E+02  0.13666601662E+03  0.12509436505E+03 0.  0.
          5    1    3    3  502    0  0.19618128537E+02 -0.15696687144E+02 -0.68553959175E+02  0.73132582842E+02  0.41800000000E+01 0. -1.
         -5    1    3    3    0  502 -0.54525498262E+02  0.19049277844E+02  0.26136561751E+02  0.63533433775E+02  0.41800000000E+01 0. -1.
        -11    1    1    2    0    0  0.61595384498E+02  0.44179218165E+01 -0.20895464102E+02  0.65193019908E+02  0.00000000000E+00 0.  1.
         11    1    1    2    0    0 -0.26688014774E+02 -0.77705125163E+01  0.23001122949E+02  0.36078839425E+02  0.00000000000E+00 0. -1.
</event>
<event>
 7    1  0.2686828E-009  0.1298087E+03  0.7561462E-02  0.1227740E+00
          2   -1    0    0  501    0  0.00000000000E+00  0.00000000000E+00  0.58908226941E+02  0.58908226941E+02  0.00000000000E+00 0. -1.
         -2   -1    0    0    0  501 -0.00000000000E+00 -0.00000000000E+00 -0.30749617428E+03  0.30749617428E+03  0.00000000000E+00 0.  1.
         25    2    1    2    0    0 -0.70167487201E+02  0.49598852724E+01 -0.12159250619E+03  0.18809664984E+03  0.12509010910E+03 0.  0.
          5    1    3    3  502    0 -0.52765583918E+02  0.62934803111E+02 -0.78406148698E+02  0.11362214944E+03  0.41800000000E+01 0.  1.
         -5    1    3    3    0  502 -0.17401903282E+02 -0.57974917839E+02 -0.43186357496E+02  0.74474500402E+02  0.41800000000E+01 0.  1.
        -11    1    1    2    0    0 -0.22086863304E+02  0.81190936740E+01 -0.37885511059E+01  0.23834897360E+02  0.00000000000E+00 0. -1.
         11    1    1    2    0    0  0.92254350504E+02 -0.13078978946E+02 -0.12320689004E+03  0.15447285403E+03  0.00000000000E+00 0.  1.
</event>
<event>
 7    1  0.2686828E-009  0.1053591E+03  0.7561462E-02  0.1269414E+00
          2   -1    0    0  501    0  0.00000000000E+00  0.00000000000E+00  0.11457095954E+03  0.11457095954E+03  0.00000000000E+00 0. -1.
         -2   -1    0    0    0  501 -0.00000000000E+00 -0.00000000000E+00 -0.22214135288E+03  0.22214135288E+03  0.00000000000E+00 0.  1.
         25    2    1    2    0    0 -0.84875201155E+02  0.83612392441E+01 -0.14154159992E+03  0.20725621518E+03  0.12508958442E+03 0.  0.
          5    1    3    3  502    0 -0.63633135819E+02  0.38707736012E+02 -0.15132759624E+03  0.16871567380E+03  0.41800000000E+01 0.  1.
         -5    1    3    3    0  502 -0.21242065336E+02 -0.30346496768E+02  0.97859963237E+01  0.38540541380E+02  0.41800000000E+01 0.  1.
        -11    1    1    2    0    0  0.78319955713E+02  0.10364100813E+02 -0.11509313105E+02  0.79836672881E+02  0.00000000000E+00 0.  1.
         11    1    1    2    0    0  0.65552454421E+01 -0.18725340057E+02  0.45480519681E+02  0.49619424357E+02  0.00000000000E+00 0. -1.
</event>
<event>
 7    1  0.2686828E-009  0.1018895E+03  0.7561462E-02  0.1276372E+00
          1   -1    0    0  501    0  0.00000000000E+00  0.00000000000E+00  0.15402769296E+03  0.15402769296E+03  0.00000000000E+00 0. -1.
         -1   -1    0    0    0  501 -0.00000000000E+00 -0.00000000000E+00 -0.11469709418E+03  0.11469709418E+03  0.00000000000E+00 0.  1.
         25    2    1    2    0    0  0.62060062514E+01  0.34234490363E+02 -0.47314933196E+02  0.13817626164E+03  0.12507382434E+03 0.  0.
          5    1    3    3  502    0  0.67160747687E+00  0.78791959656E+02 -0.97889183667E+01  0.79510497960E+02  0.41800000000E+01 0. -1.
         -5    1    3    3    0  502  0.55343987745E+01 -0.44557469293E+02 -0.37526014829E+02  0.58665763683E+02  0.41800000000E+01 0. -1.
        -11    1    1    2    0    0  0.32751941887E+02 -0.11733702933E+02  0.21919240704E+01  0.34859346135E+02  0.00000000000E+00 0.  1.
         11    1    1    2    0    0 -0.38957948138E+02 -0.22500787430E+02  0.84453607903E+02  0.95689179357E+02  0.00000000000E+00 0. -1.
</event>
<event>
 7    1  0.2686828E-009  0.1334251E+03  0.7561462E-02  0.1222460E+00
          1   -1    0    0  501    0  0.00000000000E+00  0.00000000000E+00  0.14418724179E+04  0.14418724179E+04  0.00000000000E+00 0. -1.
         -1   -1    0    0    0  501 -0.00000000000E+00 -0.00000000000E+00 -0.19057575852E+02  0.19057575852E+02  0.00000000000E+00 0.  1.
         25    2    1    2    0    0 -0.24685907385E+02 -0.95541581469E+02  0.11387213983E+04  0.11498149405E+04  0.12510150595E+03 0.  0.
          5    1    3    3  502    0  0.15056607445E+00 -0.11139398746E+03  0.59967652760E+03  0.60994922187E+03  0.41800000000E+01 0.  1.
         -5    1    3    3    0  502 -0.24836473460E+02  0.15852405991E+02  0.53904487067E+03  0.53986571866E+03  0.41800000000E+01 0.  1.
        -11    1    1    2    0    0  0.52176851784E+02  0.49079940659E+02  0.14046382315E+03  0.15767482377E+03  0.00000000000E+00 0.  1.
         11    1    1    2    0    0 -0.27490944399E+02  0.46461640810E+02  0.14362962063E+03  0.15344022945E+03  0.00000000000E+00 0. -1.
</event>
<event>
 7    1  0.2686828E-009  0.1731358E+03  0.7561462E-02  0.1174617E+00
          2   -1    0    0  501    0  0.00000000000E+00  0.00000000000E+00  0.46485592788E+02  0.46485592788E+02  0.00000000000E+00 0. -1.
         -2   -1    0    0    0  501 -0.00000000000E+00 -0.00000000000E+00 -0.84616574259E+03  0.84616574259E+03  0.00000000000E+00 0.  1.
         25    2    1    2    0    0 -0.12272534424E+03 -0.69686313415E+02 -0.22399582630E+03  0.29280634643E+03  0.12507491322E+03 0.  0.
          5    1    3    3  502    0 -0.44233758070E+02  0.35262093644E+02 -0.56128194894E+02  0.79799042997E+02  0.41800000000E+01 0.  1.
         -5    1    3    3    0  502 -0.78491586169E+02 -0.10494840706E+03 -0.16786763140E+03  0.21300730343E+03  0.41800000000E+01 0.  1.
        -11    1    1    2    0    0  0.89682049318E+02  0.83572378787E+02 -0.51479899312E+03  0.52919298539E+03  0.00000000000E+00 0.  1.
         11    1    1    2    0    0  0.33043294921E+02 -0.13886065371E+02 -0.60885330387E+02  0.70652003560E+02  0.00000000000E+00 0. -1.
</event>
<event>
 7    1  0.2686828E-009  0.1015656E+03  0.7561462E-02  0.1277038E+00
         -1   -1    0    0    0  501 -0.00000000000E+00  0.00000000000E+00  0.10613385883E+03  0.10613385883E+03  0.00000000000E+00 0.  1.
          1   -1    0    0  501    0  0.00000000000E+00 -0.00000000000E+00 -0.12005735755E+03  0.12005735755E+03  0.00000000000E+00 0. -1.
         25    2    1    2    0    0  0.27003255004E+02 -0.22701668592E+01 -0.25859790180E+02  0.13057533332E+03  0.12508740738E+03 0.  0.
          5    1    3    3  502    0  0.47181269628E+02  0.40102796604E+02  0.19618540016E+02  0.65089676690E+02  0.41800000000E+01 0.  1.
         -5    1    3    3    0  502 -0.20178014624E+02 -0.42372963463E+02 -0.45478330196E+02  0.65485656630E+02  0.41800000000E+01 0.  1.
        -11    1    1    2    0    0 -0.35265019974E+02 -0.38582568959E+02  0.37025545098E-01  0.52270810517E+02  0.00000000000E+00 0. -1.
         11    1    1    2    0    0  0.82617649701E+01  0.40852735818E+02  0.11899265918E+02  0.43345072541E+02  0.00000000000E+00 0.  1.
</event>
<event>
 7    1  0.2686828E-009  0.1057053E+03  0.7561462E-02  0.1268736E+00
          1   -1    0    0  501    0  0.00000000000E+00  0.00000000000E+00  0.17845298005E+03  0.17845298005E+03  0.00000000000E+00 0. -1.
         -1   -1    0    0    0  501 -0.00000000000E+00 -0.00000000000E+00 -0.10901758765E+03  0.10901758765E+03  0.00000000000E+00 0.  1.
         25    2    1    2    0    0  0.80005394150E+02 -0.13546487560E+02  0.69281467929E+02  0.16441358236E+03  0.12509010292E+03 0.  0.
          5    1    3    3  502    0  0.54243404251E+02 -0.57446605752E+02  0.79684884117E+02  0.11229253125E+03  0.41800000000E+01 0.  1.
         -5    1    3    3    0  502  0.25761989899E+02  0.43900118192E+02 -0.10403416188E+02  0.52121051114E+02  0.41800000000E+01 0.  1.
        -11    1    1    2    0    0 -0.51586496420E+02  0.70436680827E+01 -0.45329115816E+02  0.69032663382E+02  0.00000000000E+00 0.  1.
         11    1    1    2    0    0 -0.28418897730E+02  0.65028194774E+01  0.45483040284E+02  0.54024321956E+02  0.00000000000E+00 0. -1.
</event>
<event>
 7    1  0.2686828E-009  0.1037252E+03  0.7561462E-02  0.1272652E+00
          1   -1    0    0  501    0  0.00000000000E+00  0.00000000000E+00  0.13836937944E+03  0.13836937944E+03  0.00000000000E+00 0. -1.
         -1   -1    0    0    0  501 -0.00000000000E+00 -0.00000000000E+00 -0.94368037735E+02  0.94368037735E+02  0.00000000000E+00 0.  1.
         25    2    1    2    0    0 -0.20897571415E+02  0.19417838088E+01  0.53649424237E+02  0.13771971708E+03  0.12509188917E+03 0.  0.
          5    1    3    3  502    0  0.26329099334E+02  0.48063339464E+02  0.44958167304E+02  0.71007149496E+02  0.41800000000E+01 0. -1.
         -5    1    3    3    0  502 -0.47226670750E+02 -0.46121555655E+02  0.86912569328E+01  0.66712567580E+02  0.41800000000E+01 0. -1.
        -11    1    1    2    0    0 -0.16986488218E+02  0.31515509445E+02 -0.23234710186E+02  0.42680439020E+02  0.00000000000E+00 0.  1.
         11    1    1    2    0    0  0.37884059633E+02 -0.33457293254E+02  0.13586627652E+02  0.52337261078E+02  0.00000000000E+00 0. -1.
</event>
<event>
 7    1  0.2709913E-009  0.5035426E+02  0.7561462E-02  0.1443440E+00
          1   -1    0    0  501    0  0.00000000000E+00  0.00000000000E+00  0.22397672032E+03  0.22397672032E+03  0.00000000000E+00 0. -1.
         -1   -1    0    0    0  501 -0.00000000000E+00 -0.00000000000E+00 -0.61645522702E+02  0.61645522702E+02  0.00000000000E+00 0.  1.
         25    2    1    2    0    0  0.23607094632E+02  0.16316688445E+02  0.48173282285E+02  0.13708353713E+03  0.12509077419E+03 0.  0.
          5    1    3    3  502    0  0.96291850708E+01  0.83115791906E+01  0.90561354602E+02  0.91545807666E+02  0.41800000000E+01 0.  1.
         -5    1    3    3    0  502  0.13977909561E+02  0.80051092546E+01 -0.42388072318E+02  0.45537729464E+02  0.41800000000E+01 0.  1.
        -11    1    1    2    0    0  0.20895340145E+02  0.47690633342E+01 -0.28204186246E+01  0.21617445873E+02  0.00000000000E+00 0.  1.
         11    1    1    2    0    0 -0.44502434777E+02 -0.21085751779E+02  0.11697833395E+03  0.12692126001E+03  0.00000000000E+00 0. -1.
</event>
<event>
 7    1  0.2686828E-009  0.1184517E+03  0.7561462E-02  0.1245673E+00
         -1   -1    0    0    0  501 -0.00000000000E+00  0.00000000000E+00  0.68542674586E+02  0.68542674586E+02  0.00000000000E+00 0.  1.
          1   -1    0    0  501    0  0.00000000000E+00 -0.00000000000E+00 -0.36172602983E+03  0.36172602983E+03  0.00000000000E+00 0. -1.
         25    2    1    2    0    0 -0.31120725078E+02  0.96665537306E+02 -0.87972882778E+02  0.18357323790E+03  0.12508868828E+03 0.  0.
          5    1    3    3  502    0 -0.69130585011E+01  0.42133807846E+02  0.29284405109E+02  0.51943208642E+02  0.41800000000E+01 0.  1.
         -5    1    3    3    0  502 -0.24207666577E+02  0.54531729461E+02 -0.11725728789E+03  0.13163002925E+03  0.41800000000E+01 0.  1.
        -11    1    1    2    0    0  0.45975734993E+02 -0.10675555232E+03 -0.15772431964E+03  0.19592722415E+03  0.00000000000E+00 0.  1.
         11    1    1    2    0    0 -0.14855009915E+02  0.10090015013E+02 -0.47486152832E+02  0.50768242369E+02  0.00000000000E+00 0. -1.
</event>
<event>
 7    1  0.2686828E-009  0.1177297E+03  0.7561462E-02  0.1246890E+00
         -1   -1    0    0    0  501 -0.00000000000E+00  0.00000000000E+00  0.61079915614E+02  0.61079915614E+02  0.00000000000E+00 0.  1.
          1   -1    0    0  501    0  0.00000000000E+00 -0.00000000000E+00 -0.32820186132E+03  0.32820186132E+03  0.00000000000E+00 0. -1.
         25    2    1    2    0    0  0.63667936666E+02  0.40659172973E+02 -0.74601142955E+02  0.16407159503E+03  0.12508950100E+03 0.  0.
          5    1    3    3  502    0 -0.24326385964E+02 -0.25608578745E+02 -0.23002748684E+02  0.42357658179E+02  0.41800000000E+01 0.  1.
         -5    1    3    3    0  502  0.87994322631E+02  0.66267751717E+02 -0.51598394271E+02  0.12171393685E+03  0.41800000000E+01 0.  1.
        -11    1    1    2    0    0 -0.67911212345E+01 -0.31283252877E+02 -0.95983132722E+01  0.33419887131E+02  0.00000000000E+00 0.  1.
         11    1    1    2    0    0 -0.56876815432E+02 -0.93759200963E+01 -0.18292248948E+03  0.19179029477E+03  0.00000000000E+00 0. -1.
</event>
<event>
 7    1  0.2686828E-009  0.6405819E+02  0.7561462E-02  0.1381550E+00
          1   -1    0    0  501    0  0.00000000000E+00  0.00000000000E+00  0.37505963047E+03  0.37505963047E+03  0.00000000000E+00 0. -1.
         -1   -1    0    0    0  501 -0.00000000000E+00 -0.00000000000E+00 -0.44248713006E+02  0.44248713006E+02  0.00000000000E+00 0.  1.
         25    2    1    2    0    0  0.61974137764E+02 -0.63447145201E+01  0.11979884153E+03  0.18406638943E+03  0.12509046379E+03 0.  0.
          5    1    3    3  502    0  0.22865653430E+02 -0.92331805674E+01  0.13827282730E+03  0.14051667837E+03  0.41800000000E+01 0.  1.
         -5    1    3    3    0  502  0.39108484334E+02  0.28884660472E+01 -0.18473985773E+02  0.43549711059E+02  0.41800000000E+01 0.  1.
        -11    1    1    2    0    0 -0.52043384367E+02  0.30393411695E+00  0.21629914371E+03  0.22247230345E+03  0.00000000000E+00 0. -1.
         11    1    1    2    0    0 -0.99307533969E+01  0.60407804032E+01 -0.52870677695E+01  0.12769650602E+02  0.00000000000E+00 0.  1.
</event>
<event>
 7    1  0.2686828E-009  0.1662068E+03  0.7561462E-02  0.1181862E+00
         -2   -1    0    0    0  501 -0.00000000000E+00  0.00000000000E+00  0.21822134181E+04  0.21822134181E+04  0.00000000000E+00 0.  1.
          2   -1    0    0  501    0  0.00000000000E+00 -0.00000000000E+00 -0.25096700309E+02  0.25096700309E+02  0.00000000000E+00 0. -1.
         25    2    1    2    0    0 -0.10557755233E+03  0.80338574917E+02  0.18567992177E+04  0.18657309860E+04  0.12509145024E+03 0.  0.
          5    1    3    3  502    0  0.63010808731E+01  0.57280704209E+02  0.95006073963E+03  0.95181598226E+03  0.41800000000E+01 0.  1.
         -5    1    3    3    0  502 -0.11187863320E+03  0.23057870707E+02  0.90673847807E+03  0.91391500370E+03  0.41800000000E+01 0.  1.
        -11    1    1    2    0    0  0.27672547692E+02 -0.77588838359E+02  0.18348001855E+03  0.20112363099E+03  0.00000000000E+00 0. -1.
         11    1    1    2    0    0  0.77905004639E+02 -0.27497365577E+01  0.11683748152E+03  0.14045550145E+03  0.00000000000E+00 0.  1.
</event>
<event>
 7    1  0.3144817E-009  0.1155737E+03  0.7561462E-02  0.1250583E+00
         -1   -1    0    0    0  501 -0.00000000000E+00  0.00000000000E+00  0.19893812031E+03  0.19893812031E+03  0.00000000000E+00 0.  1.
          1   -1    0    0  501    0  0.00000000000E+00 -0.00000000000E+00 -0.73467319877E+02  0.73467319877E+02  0.00000000000E+00 0. -1.
         25    2    1    2    0    0 -0.29760248341E+02  0.42737237900E+02  0.58340384971E+02  0.14752610674E+03  0.12509279662E+03 0.  0.
          5    1    3    3  502    0 -0.77956696454E+02  0.34448594660E+02  0.27927298314E+02  0.89785068844E+02  0.41800000000E+01 0.  1.
         -5    1    3    3    0  502  0.48196448113E+02  0.82886432400E+01  0.30413086657E+02  0.57741037898E+02  0.41800000000E+01 0.  1.
        -11    1    1    2    0    0 -0.27419497684E+02 -0.24348553706E+02  0.50768399983E+02  0.62626762312E+02  0.00000000000E+00 0.  1.
         11    1    1    2    0    0  0.57179746026E+02 -0.18388684194E+02  0.16362015476E+02  0.62252571131E+02  0.00000000000E+00 0. -1.
</event>
<event>
 7    1  0.2686828E-009  0.1539363E+03  0.7561462E-02  0.1195718E+00
         -1   -1    0    0    0  501 -0.00000000000E+00  0.00000000000E+00  0.75186995292E+03  0.75186995292E+03  0.00000000000E+00 0.  1.
          1   -1    0    0  501    0  0.00000000000E+00 -0.00000000000E+00 -0.43291867756E+02  0.43291867756E+02  0.00000000000E+00 0. -1.
         25    2    1    2    0    0 -0.13220654410E+03  0.96798100266E+01  0.25211773404E+03  0.31109999713E+03  0.12509031685E+03 0.  0.
          5    1    3    3  502    0 -0.59202624830E+02 -0.52470493342E+02  0.72180896502E+02  0.10717116066E+03  0.41800000000E+01 0. -1.
         -5    1    3    3    0  502 -0.73003919267E+02  0.62150303369E+02  0.17993683754E+03  0.20392883646E+03  0.41800000000E+01 0. -1.
        -11    1    1    2    0    0  0.89316531880E+02 -0.38174360929E+01  0.41357506320E+03  0.42312687055E+03  0.00000000000E+00 0.  1.
         11    1    1    2    0    0  0.42890012217E+02 -0.58623739336E+01  0.42885287921E+02  0.60934952992E+02  0.00000000000E+00 0. -1.
</event>
