<event>
 8    1  0.7136454E-009  0.1594537E+03  0.7561462E-02  0.1189315E+00
         -1   -1    0    0    0  501 -0.00000000000E+00  0.00000000000E+00  0.53654899742E+03  0.53654899742E+03  0.00000000000E+00 0.  1.
          1   -1    0    0  501    0  0.00000000000E+00 -0.00000000000E+00 -0.77199272529E+02  0.77199272529E+02  0.00000000000E+00 0. -1.
         25    2    1    2    0    0 -0.13948759782E+03  0.28723004547E+02  0.94444987706E+02  0.21177517397E+03  0.12508823954E+03 0.  0.
         23    2    1    2    0    0  0.13948759782E+03 -0.28723004547E+02  0.36490473719E+03  0.40197309598E+03  0.90250217367E+02 0.  0.
          5    1    3    3  502    0 -0.34350904977E+02 -0.16663114298E+02  0.89139222414E+02  0.97061410578E+02  0.41800000000E+01 0. -1.
         -5    1    3    3    0  502 -0.10513669284E+03  0.45386118845E+02  0.53057652921E+01  0.11471376339E+03  0.41800000000E+01 0. -1.
        -11    1    4    4    0    0 -0.10058031342E+02 -0.11651679763E+02  0.17163606370E+02  0.23054609504E+02  0.00000000000E+00 0. -1.
         11    1    4    4    0    0  0.14954562916E+03 -0.17071324784E+02  0.34774113082E+03  0.37891848648E+03  0.00000000000E+00 0.  1.
</event>
<event>
 8    1  0.7136454E-009  0.1530932E+03  0.7561462E-02  0.1196723E+00
         -1   -1    0    0    0  501 -0.00000000000E+00  0.00000000000E+00  0.13192709130E+03  0.13192709130E+03  0.00000000000E+00 0.  1.
          1   -1    0    0  501    0  0.00000000000E+00 -0.00000000000E+00 -0.29357394676E+03  0.29357394676E+03  0.00000000000E+00 0. -1.
         25    2    1    2    0    0  0.12030700082E+03  0.66556373844E+02  0.79740649710E+01  0.18604921944E+03  0.12508877247E+03 0.  0.
         23    2    1    2    0    0 -0.12030700082E+03 -0.66556373844E+02 -0.16962092043E+03  0.23945181862E+03  0.98297464089E+02 0.  0.
          5    1    3    3  502    0  0.18932729828E+02  0.14813638875E+02 -0.51920320885E+02  0.57367972566E+02  0.41800000000E+01 0. -1.
         -5    1    3    3    0  502  0.10137427099E+03  0.51742734969E+02  0.59894385856E+02  0.12868124688E+03  0.41800000000E+01 0. -1.
        -11    1    4    4    0    0 -0.11809572406E+03 -0.18203581396E+02 -0.13273323983E+03  0.17859474621E+03  0.00000000000E+00 0. -1.
         11    1    4    4    0    0 -0.22112767591E+01 -0.48352792448E+02 -0.36887680601E+02  0.60857072412E+02  0.00000000000E+00 0.  1.
</event>
<event>
 8    1  0.7136454E-009  0.1290845E+03  0.7561462E-02  0.1228820E+00
         -2   -1    0    0    0  501 -0.00000000000E+00  0.00000000000E+00  0.25718513121E+02  0.25718513121E+02  0.00000000000E+00 0.  1.
          2   -1    0    0  501    0  0.00000000000E+00 -0.00000000000E+00 -0.11808458630E+04  0.11808458630E+04  0.00000000000E+00 0. -1.
         25    2    1    2    0    0  0.40128131154E+02  0.68905921923E+02 -0.99385614670E+03  0.10048657664E+04  0.12508746989E+03 0.  0.
         23    2    1    2    0    0 -0.40128131154E+02 -0.68905921923E+02 -0.16127120313E+03  0.20169860969E+03  0.91190104763E+02 0.  0.
          5    1    3    3  502    0 -0.32244802281E+02 -0.75993343157E+01 -0.42635224769E+03  0.42765779388E+03  0.41800000000E+01 0. -1.
         -5    1    3    3    0  502  0.72372933435E+02  0.76505256238E+02 -0.56750389901E+03  0.57720797250E+03  0.41800000000E+01 0. -1.
        -11    1    4    4    0    0 -0.64588757742E+02 -0.69546793859E+02 -0.11293721435E+03  0.14752382366E+03  0.00000000000E+00 0.  1.
         11    1    4    4    0    0  0.24460626588E+02  0.64087193668E+00 -0.48333988783E+02  0.54174786032E+02  0.00000000000E+00 0. -1.
</event>
<event>
 8    1  0.7136454E-009  0.1164824E+03  0.7561462E-02  0.1249015E+00
          1   -1    0    0  501    0  0.00000000000E+00  0.00000000000E+00  0.24180197813E+03  0.24180197813E+03  0.00000000000E+00 0. -1.
         -1   -1    0    0    0  501 -0.00000000000E+00 -0.00000000000E+00 -0.10279543810E+03  0.10279543810E+03  0.00000000000E+00 0.  1.
         25    2    1    2    0    0 -0.15081446514E+02 -0.10459635565E+03  0.26670787005E+02  0.16591087433E+03  0.12508892716E+03 0.  0.
         23    2    1    2    0    0  0.15081446514E+02  0.10459635565E+03  0.11233575302E+03  0.17868654190E+03  0.90231431355E+02 0.  0.
          5    1    3    3  502    0  0.41657605720E+01 -0.29605572902E+02  0.70609544747E+02  0.76792081085E+02  0.41800000000E+01 0. -1.
         -5    1    3    3    0  502 -0.19247207086E+02 -0.74990782747E+02 -0.43938757741E+02  0.89118793245E+02  0.41800000000E+01 0. -1.
        -11    1    4    4    0    0  0.34472631297E+02  0.99340549872E+02  0.11776194380E+03  0.15787584542E+03  0.00000000000E+00 0. -1.
         11    1    4    4    0    0 -0.19391184783E+02  0.52558057777E+01 -0.54261907822E+01  0.20810696482E+02  0.00000000000E+00 0.  1.
</event>
<event>
 8    1  0.7136454E-009  0.2219666E+03  0.7561462E-02  0.1132425E+00
          2   -1    0    0  501    0  0.00000000000E+00  0.00000000000E+00  0.10387572568E+03  0.10387572568E+03  0.00000000000E+00 0. -1.
         -2   -1    0    0    0  501 -0.00000000000E+00 -0.00000000000E+00 -0.72810195596E+03  0.72810195596E+03  0.00000000000E+00 0.  1.
         25    2    1    2    0    0 -0.11854231930E+03 -0.15691675307E+03 -0.55564918577E+03  0.60255114579E+03  0.12508683702E+03 0.  0.
         23    2    1    2    0    0  0.11854231930E+03  0.15691675307E+03 -0.68577044510E+02  0.22942653585E+03  0.96221491673E+02 0.  0.
          5    1    3    3  502    0 -0.82309958381E+02 -0.16848058196E+03 -0.39299730551E+03  0.43545951624E+03  0.41800000000E+01 0.  1.
         -5    1    3    3    0  502 -0.36232360914E+02  0.11563828885E+02 -0.16265188026E+03  0.16709162956E+03  0.41800000000E+01 0.  1.
        -11    1    4    4    0    0 -0.41050496435E+01 -0.10099017041E+02  0.74447308120E+00  0.10926839339E+02  0.00000000000E+00 0. -1.
         11    1    4    4    0    0  0.12264736894E+03  0.16701577011E+03 -0.69321517591E+02  0.21849969651E+03  0.00000000000E+00 0.  1.
</event>
<event>
 8    1  0.7136454E-009  0.7915256E+02  0.7561462E-02  0.1331474E+00
         -1   -1    0    0    0  501 -0.00000000000E+00  0.00000000000E+00  0.93681177522E+02  0.93681177522E+02  0.00000000000E+00 0.  1.
          1   -1    0    0  501    0  0.00000000000E+00 -0.00000000000E+00 -0.14336072781E+03  0.14336072781E+03  0.00000000000E+00 0. -1.
         25    2    1    2    0    0  0.19508061019E+02 -0.32480910901E+02 -0.45956463221E+02  0.13854601146E+03  0.12508967488E+03 0.  0.
         23    2    1    2    0    0 -0.19508061019E+02  0.32480910901E+02 -0.37230870711E+01  0.98495893875E+02  0.90840551051E+02 0.  0.
          5    1    3    3  502    0  0.40543047985E+02 -0.66849814461E+02 -0.13743467013E+01  0.78307072875E+02  0.41800000000E+01 0. -1.
         -5    1    3    3    0  502 -0.21034986966E+02  0.34368903559E+02 -0.44582116519E+02  0.60238938585E+02  0.41800000000E+01 0. -1.
        -11    1    4    4    0    0 -0.40904447672E+01  0.17607446059E+02 -0.46918418397E+02  0.50280134049E+02  0.00000000000E+00 0. -1.
         11    1    4    4    0    0 -0.15417616252E+02  0.14873464843E+02  0.43195331326E+02  0.48215759826E+02  0.00000000000E+00 0.  1.
</event>
<event>
 8    1  0.7136454E-009  0.1104794E+03  0.7561462E-02  0.1259685E+00
          4   -1    0    0  501    0  0.00000000000E+00  0.00000000000E+00  0.72554940965E+02  0.72554940965E+02  0.00000000000E+00 0. -1.
         -4   -1    0    0    0  501 -0.00000000000E+00 -0.00000000000E+00 -0.36951503864E+03  0.36951503864E+03  0.00000000000E+00 0.  1.
         25    2    1    2    0    0  0.92118609055E+02 -0.45256861588E+02 -0.65905840034E+02  0.17470551001E+03  0.12507763118E+03 0.  0.
         23    2    1    2    0    0 -0.92118609055E+02  0.45256861588E+02 -0.23105425764E+03  0.26736446960E+03  0.86969350780E+02 0.  0.
          5    1    3    3  502    0 -0.52343669131E+01 -0.12448765903E+02 -0.70384854267E+02  0.71790462317E+02  0.41800000000E+01 0. -1.
         -5    1    3    3    0  502  0.97352975968E+02 -0.32808095685E+02  0.44790142333E+01  0.10291504769E+03  0.41800000000E+01 0. -1.
        -11    1    4    4    0    0 -0.40400613463E+02  0.10665232231E+02 -0.18576664178E+03  0.19040798813E+03  0.00000000000E+00 0.  1.
         11    1    4    4    0    0 -0.51717995592E+02  0.34591629356E+02 -0.45287615868E+02  0.76956481472E+02  0.00000000000E+00 0. -1.
</event>
<event>
 8    1  0.7136454E-009  0.1020935E+03  0.7561462E-02  0.1275954E+00
         -1   -1    0    0    0  501 -0.00000000000E+00  0.00000000000E+00  0.19956147316E+02  0.19956147316E+02  0.00000000000E+00 0.  1.
          1   -1    0    0  501    0  0.00000000000E+00 -0.00000000000E+00 -0.67950899185E+03  0.67950899185E+03  0.00000000000E+00 0. -1.
         25    2    1    2    0    0  0.15673188483E+02  0.31875327561E+02 -0.46738363024E+03  0.48513565644E+03  0.12508981569E+03 0.  0.
         23    2    1    2    0    0 -0.15673188483E+02 -0.31875327561E+02 -0.19216921429E+03  0.21432948272E+03  0.88013833566E+02 0.  0.
          5    1    3    3  502    0 -0.38784612620E+02  0.56693787991E+02 -0.28254275389E+03  0.29080287473E+03  0.41800000000E+01 0. -1.
         -5    1    3    3    0  502  0.54457801103E+02 -0.24818460430E+02 -0.18484087634E+03  0.19433278171E+03  0.41800000000E+01 0. -1.
        -11    1    4    4    0    0  0.88392495691E+01 -0.46164834798E+02 -0.47208448192E+02  0.66618029734E+02  0.00000000000E+00 0.  1.
         11    1    4    4    0    0 -0.24512438052E+02  0.14289507237E+02 -0.14496076610E+03  0.14771145299E+03  0.00000000000E+00 0. -1.
</event>
<event>
 8    1  0.7136454E-009  0.1378415E+03  0.7561462E-02  0.1216263E+00
          1   -1    0    0  501    0  0.00000000000E+00  0.00000000000E+00  0.12151506808E+04  0.12151506808E+04  0.00000000000E+00 0. -1.
         -1   -1    0    0    0  501 -0.00000000000E+00 -0.00000000000E+00 -0.31089488343E+02  0.31089488343E+02  0.00000000000E+00 0.  1.
         25    2    1    2    0    0  0.78829749549E+02 -0.50809044615E+02  0.10400391601E+04  0.10517249841E+04  0.12509316200E+03 0.  0.
         23    2    1    2    0    0 -0.78829749549E+02  0.50809044615E+02  0.14402203230E+03  0.19451518500E+03  0.91094033721E+02 0.  0.
          5    1    3    3  502    0  0.47559058880E+02  0.36378095262E+02  0.52354307651E+03  0.52697253748E+03  0.41800000000E+01 0.  1.
         -5    1    3    3    0  502  0.31270690669E+02 -0.87187139877E+02  0.51649608359E+03  0.52475244661E+03  0.41800000000E+01 0.  1.
        -11    1    4    4    0    0  0.13408323530E+02 -0.59166007514E+01  0.46618692716E+02  0.48868106315E+02  0.00000000000E+00 0. -1.
         11    1    4    4    0    0 -0.92238073079E+02  0.56725645367E+02  0.97403339589E+02  0.14564707869E+03  0.00000000000E+00 0.  1.
</event>
<event>
 8    1  0.7136454E-009  0.8846379E+02  0.7561462E-02  0.1306615E+00
          3   -1    0    0  501    0  0.00000000000E+00  0.00000000000E+00  0.11497481302E+03  0.11497481302E+03  0.00000000000E+00 0. -1.
         -3   -1    0    0    0  501 -0.00000000000E+00 -0.00000000000E+00 -0.10891410248E+03  0.10891410248E+03  0.00000000000E+00 0.  1.
         25    2    1    2    0    0 -0.13441175222E+02 -0.18696805679E+02 -0.25915352683E+01  0.12722077873E+03  0.12509266466E+03 0.  0.
         23    2    1    2    0    0  0.13441175222E+02  0.18696805679E+02  0.86522458083E+01  0.96668136762E+02  0.93485996671E+02 0.  0.
          5    1    3    3  502    0 -0.44843231063E+02  0.83807036545E+01  0.44825237777E+02  0.64093103433E+02  0.41800000000E+01 0. -1.
         -5    1    3    3    0  502  0.31402055841E+02 -0.27077509334E+02 -0.47416773045E+02  0.63127675300E+02  0.41800000000E+01 0. -1.
        -11    1    4    4    0    0  0.50421009341E+01 -0.34864210224E+02 -0.14004817283E+02  0.37908717250E+02  0.00000000000E+00 0.  1.
         11    1    4    4    0    0  0.83990742879E+01  0.53561015904E+02  0.22657063091E+02  0.58759419512E+02  0.00000000000E+00 0. -1.
</event>
<event>
 8    1  0.7136454E-009  0.1177605E+03  0.7561462E-02  0.1246838E+00
         -2   -1    0    0    0  501 -0.00000000000E+00  0.00000000000E+00  0.54884923691E+02  0.54884923691E+02  0.00000000000E+00 0.  1.
          2   -1    0    0  501    0  0.00000000000E+00 -0.00000000000E+00 -0.28545332582E+03  0.28545332582E+03  0.00000000000E+00 0. -1.
         25    2    1    2    0    0  0.87416132211E+01 -0.61593580780E+02 -0.13116565804E+03  0.19162995019E+03  0.12508965970E+03 0.  0.
         23    2    1    2    0    0 -0.87416132211E+01  0.61593580780E+02 -0.99402744085E+02  0.14870829932E+03  0.91449810057E+02 0.  0.
          5    1    3    3  502    0  0.20716870730E+02 -0.92728594019E+02 -0.12561153963E+03  0.15755479101E+03  0.41800000000E+01 0.  1.
         -5    1    3    3    0  502 -0.11975257509E+02  0.31135013238E+02 -0.55541184089E+01  0.34075159179E+02  0.41800000000E+01 0.  1.
        -11    1    4    4    0    0 -0.12677475043E+02 -0.20772262594E+02 -0.80235792391E+01  0.25623877352E+02  0.00000000000E+00 0.  1.
         11    1    4    4    0    0  0.39358618218E+01  0.82365843374E+02 -0.91379164846E+02  0.12308442197E+03  0.00000000000E+00 0. -1.
</event>
<event>
 8    1  0.7136454E-009  0.9286464E+02  0.7561462E-02  0.1296059E+00
          2   -1    0    0  501    0  0.00000000000E+00  0.00000000000E+00  0.19629982417E+04  0.19629982417E+04  0.00000000000E+00 0. -1.
         -2   -1    0    0    0  501 -0.00000000000E+00 -0.00000000000E+00 -0.13495445823E+02  0.13495445823E+02  0.00000000000E+00 0.  1.
         25    2    1    2    0    0 -0.34857880921E+02  0.95427127787E+00  0.17360383823E+04  0.17408884708E+04  0.12508965030E+03 0.  0.
         23    2    1    2    0    0  0.34857880921E+02 -0.95427127787E+00  0.21346441358E+03  0.23560521668E+03  0.93417234842E+02 0.  0.
          5    1    3    3  502    0  0.36117887287E+02  0.73779202302E+01  0.21512836222E+03  0.21830396267E+03  0.41800000000E+01 0. -1.
         -5    1    3    3    0  502 -0.70975768208E+02 -0.64236489524E+01  0.15209100200E+04  0.15225845081E+04  0.41800000000E+01 0. -1.
        -11    1    4    4    0    0  0.43300564118E+02 -0.26207412893E+02  0.54308604905E+02  0.74237402367E+02  0.00000000000E+00 0.  1.
         11    1    4    4    0    0 -0.84426831971E+01  0.25253141615E+02  0.15915580867E+03  0.16136781431E+03  0.00000000000E+00 0. -1.
</event>
<event>
 8    1  0.7136454E-009  0.1573757E+03  0.7561462E-02  0.1191692E+00
         -1   -1    0    0    0  501 -0.00000000000E+00  0.00000000000E+00  0.20679937122E+03  0.20679937122E+03  0.00000000000E+00 0.  1.
          1   -1    0    0  501    0  0.00000000000E+00 -0.00000000000E+00 -0.14062278466E+03  0.14062278466E+03  0.00000000000E+00 0. -1.
         25    2    1    2    0    0 -0.12580132311E+03  0.13974034097E+02  0.12894034353E+02  0.17841343766E+03  0.12507538563E+03 0.  0.
         23    2    1    2    0    0  0.12580132311E+03 -0.13974034097E+02  0.53282552203E+02  0.16900871822E+03  0.98507207549E+02 0.  0.
          5    1    3    3  502    0  0.33784014165E+01 -0.32566200334E+02 -0.18021867779E+02  0.37606264353E+02  0.41800000000E+01 0. -1.
         -5    1    3    3    0  502 -0.12917972453E+03  0.46540234431E+02  0.30915902132E+02  0.14080717331E+03  0.41800000000E+01 0. -1.
        -11    1    4    4    0    0  0.12354145186E+03  0.65599862969E+01  0.70255685100E+02  0.14227222159E+03  0.00000000000E+00 0.  1.
         11    1    4    4    0    0  0.22598712547E+01 -0.20534020394E+02 -0.16973132898E+02  0.26736496629E+02  0.00000000000E+00 0. -1.
</event>
<event>
 8    1  0.7136454E-009  0.1026795E+03  0.7561462E-02  0.1274760E+00
         -1   -1    0    0    0  501 -0.00000000000E+00  0.00000000000E+00  0.43846821630E+02  0.43846821630E+02  0.00000000000E+00 0.  1.
          1   -1    0    0  501    0  0.00000000000E+00 -0.00000000000E+00 -0.33352037244E+03  0.33352037244E+03  0.00000000000E+00 0. -1.
         25    2    1    2    0    0  0.78269268026E+01 -0.27567093648E+02 -0.92742100154E+02  0.15833165184E+03  0.12508640772E+03 0.  0.
         23    2    1    2    0    0 -0.78269268026E+01  0.27567093648E+02 -0.19693145065E+03  0.21903554223E+03  0.91506103995E+02 0.  0.
          5    1    3    3  502    0 -0.47978474723E+02 -0.46128209395E+02 -0.33039905703E+02  0.74423474170E+02  0.41800000000E+01 0.  1.
         -5    1    3    3    0  502  0.55805401526E+02  0.18561115747E+02 -0.59702194452E+02  0.83908177668E+02  0.41800000000E+01 0.  1.
        -11    1    4    4    0    0  0.67775468703E+00  0.52943731135E+02 -0.17937691864E+03  0.18702827850E+03  0.00000000000E+00 0. -1.
         11    1    4    4    0    0 -0.85046814896E+01 -0.25376637486E+02 -0.17554532016E+02  0.32007263732E+02  0.00000000000E+00 0.  1.
</event>
<event>
 8    1  0.7136454E-009  0.1089685E+03  0.7561462E-02  0.1262492E+00
          1   -1    0    0  501    0  0.00000000000E+00  0.00000000000E+00  0.77504988639E+03  0.77504988639E+03  0.00000000000E+00 0. -1.
         -1   -1    0    0    0  501 -0.00000000000E+00 -0.00000000000E+00 -0.16388201925E+02  0.16388201925E+02  0.00000000000E+00 0.  1.
         25    2    1    2    0    0 -0.15145699454E+02  0.14320670280E+02  0.35877352011E+03  0.38052624716E+03  0.12508921712E+03 0.  0.
         23    2    1    2    0    0  0.15145699454E+02 -0.14320670280E+02  0.39988816436E+03  0.41091184115E+03  0.92214550904E+02 0.  0.
          5    1    3    3  502    0  0.48058629704E+02  0.32063699042E+02  0.12675119413E+03  0.13935942845E+03  0.41800000000E+01 0.  1.
         -5    1    3    3    0  502 -0.63204329158E+02 -0.17743028763E+02  0.23202232598E+03  0.24116681871E+03  0.41800000000E+01 0.  1.
        -11    1    4    4    0    0 -0.33236493764E+02 -0.28535169512E+02  0.16944401234E+03  0.17501483861E+03  0.00000000000E+00 0. -1.
         11    1    4    4    0    0  0.48382193218E+02  0.14214499232E+02  0.23044415202E+03  0.23589700254E+03  0.00000000000E+00 0.  1.
</event>
<event>
 8    1  0.7136454E-009  0.9627143E+02  0.7561462E-02  0.1288338E+00
          4   -1    0    0  501    0  0.00000000000E+00  0.00000000000E+00  0.14288160024E+03  0.14288160024E+03  0.00000000000E+00 0. -1.
         -4   -1    0    0    0  501 -0.00000000000E+00 -0.00000000000E+00 -0.13932863854E+03  0.13932863854E+03  0.00000000000E+00 0.  1.
         25    2    1    2    0    0 -0.48693210400E+02 -0.50864150629E+02  0.57177158056E+02  0.15451683284E+03  0.12509210075E+03 0.  0.
         23    2    1    2    0    0  0.48693210400E+02  0.50864150629E+02 -0.53624196360E+02  0.12769340594E+03  0.92042712509E+02 0.  0.
          5    1    3    3  502    0  0.30350240062E+02 -0.10281898707E+02 -0.18928358779E+02  0.37451430933E+02  0.41800000000E+01 0. -1.
         -5    1    3    3    0  502 -0.79043450462E+02 -0.40582251922E+02  0.76105516835E+02  0.11706540191E+03  0.41800000000E+01 0. -1.
        -11    1    4    4    0    0  0.13075094314E+02  0.21270873097E+02  0.25706421072E+02  0.35836130064E+02  0.00000000000E+00 0. -1.
         11    1    4    4    0    0  0.35618116085E+02  0.29593277532E+02 -0.79330617432E+02  0.91857275872E+02  0.00000000000E+00 0.  1.
</event>
<event>
 8    1  0.7136454E-009  0.1095760E+03  0.7561462E-02  0.1261357E+00
          1   -1    0    0  501    0  0.00000000000E+00  0.00000000000E+00  0.10546260901E+03  0.10546260901E+03  0.00000000000E+00 0. -1.
         -1   -1    0    0    0  501 -0.00000000000E+00 -0.00000000000E+00 -0.18056827658E+03  0.18056827658E+03  0.00000000000E+00 0.  1.
         25    2    1    2    0    0  0.61978126125E+02 -0.55306005003E+02 -0.60497343555E+02  0.16188442098E+03  0.12508634966E+03 0.  0.
         23    2    1    2    0    0 -0.61978126125E+02  0.55306005003E+02 -0.14608324016E+02  0.12414646461E+03  0.91098294372E+02 0.  0.
          5    1    3    3  502    0  0.22098396071E+02 -0.50764111895E+02  0.29774919767E+02  0.63002796863E+02  0.41800000000E+01 0.  1.
         -5    1    3    3    0  502  0.39879730054E+02 -0.45418931080E+01 -0.90272263323E+02  0.98881624115E+02  0.41800000000E+01 0.  1.
        -11    1    4    4    0    0  0.22614912684E+02  0.24255656755E+02 -0.46158813008E+01  0.33482495733E+02  0.00000000000E+00 0.  1.
         11    1    4    4    0    0 -0.84593038809E+02  0.31050348248E+02 -0.99924427151E+01  0.90663968878E+02  0.00000000000E+00 0. -1.
</event>
<event>
 8    1  0.7136454E-009  0.1413066E+03  0.7561462E-02  0.1211582E+00
         -2   -1    0    0    0  501 -0.00000000000E+00  0.00000000000E+00  0.47436654718E+02  0.47436654718E+02  0.00000000000E+00 0.  1.
          2   -1    0    0  501    0  0.00000000000E+00 -0.00000000000E+00 -0.72800741357E+03  0.72800741357E+03  0.00000000000E+00 0. -1.
         25    2    1    2    0    0 -0.74659175164E+02 -0.60163819565E+02 -0.60337372676E+03  0.62361142096E+03  0.12505068007E+03 0.  0.
         23    2    1    2    0    0  0.74659175164E+02  0.60163819565E+02 -0.77197032091E+02  0.15183264733E+03  0.88882469642E+02 0.  0.
          5    1    3    3  502    0 -0.13065045972E+02  0.35476329877E+02 -0.88913041464E+02  0.96707118405E+02  0.41800000000E+01 0. -1.
         -5    1    3    3    0  502 -0.61594129192E+02 -0.95640149442E+02 -0.51446068530E+03  0.52690430256E+03  0.41800000000E+01 0. -1.
        -11    1    4    4    0    0  0.94651220308E+01 -0.23116408069E+02 -0.14541702246E+02  0.28903597722E+02  0.00000000000E+00 0. -1.
         11    1    4    4    0    0  0.65194053133E+02  0.83280227634E+02 -0.62655329845E+02  0.12292904960E+03  0.00000000000E+00 0.  1.
</event>
<event>
 8    1  0.7136454E-009  0.1053431E+03  0.7561462E-02  0.1269445E+00
          1   -1    0    0  501    0  0.00000000000E+00  0.00000000000E+00  0.39761354767E+03  0.39761354767E+03  0.00000000000E+00 0. -1.
         -1   -1    0    0    0  501 -0.00000000000E+00 -0.00000000000E+00 -0.35094535101E+02  0.35094535101E+02  0.00000000000E+00 0.  1.
         25    2    1    2    0    0  0.38825371441E+02  0.25932053232E+02  0.21148363301E+03  0.25010801539E+03  0.12509520965E+03 0.  0.
         23    2    1    2    0    0 -0.38825371441E+02 -0.25932053232E+02  0.15103537956E+03  0.18260006739E+03  0.91384998098E+02 0.  0.
          5    1    3    3  502    0 -0.28493474809E+02  0.47763261040E+02  0.55077370844E+02  0.78384924513E+02  0.41800000000E+01 0. -1.
         -5    1    3    3    0  502  0.67318846250E+02 -0.21831207808E+02  0.15640626216E+03  0.17172309087E+03  0.41800000000E+01 0. -1.
        -11    1    4    4    0    0 -0.43117187960E+02  0.12857085113E+02  0.13144669887E+03  0.13893390940E+03  0.00000000000E+00 0. -1.
         11    1    4    4    0    0  0.42918165187E+01 -0.38789138345E+02  0.19588680691E+02  0.43666157992E+02  0.00000000000E+00 0.  1.
</event>
<event>
 8    1  0.7136454E-009  0.1681517E+03  0.7561462E-02  0.1179789E+00
          2   -1    0    0  501    0  0.00000000000E+00  0.00000000000E+00  0.52961373441E+03  0.52961373441E+03  0.00000000000E+00 0. -1.
         -2   -1    0    0    0  501 -0.00000000000E+00 -0.00000000000E+00 -0.61991123201E+02  0.61991123201E+02  0.00000000000E+00 0.  1.
         25    2    1    2    0    0  0.10810758060E+03 -0.81562372841E+02  0.16596665113E+03  0.24805563648E+03  0.12508796846E+03 0.  0.
         23    2    1    2    0    0 -0.10810758060E+03  0.81562372841E+02  0.30165596008E+03  0.34354922113E+03  0.93220595604E+02 0.  0.
          5    1    3    3  502    0  0.13192353085E+03 -0.43070102992E+02  0.12770170531E+03  0.18863734970E+03  0.41800000000E+01 0.  1.
         -5    1    3    3    0  502 -0.23815950249E+02 -0.38492269849E+02  0.38264945828E+02  0.59418286777E+02  0.41800000000E+01 0.  1.
        -11    1    4    4    0    0 -0.11112719177E+03  0.52704647439E+02  0.28423949928E+03  0.30970812964E+03  0.00000000000E+00 0. -1.
         11    1    4    4    0    0  0.30196111716E+01  0.28857725402E+02  0.17416460799E+02  0.33841091498E+02  0.00000000000E+00 0.  1.
</event>
<event>
 8    1  0.7136454E-009  0.1287200E+03  0.7561462E-02  0.1229368E+00
         -1   -1    0    0    0  501 -0.00000000000E+00  0.00000000000E+00  0.21275447968E+03  0.21275447968E+03  0.00000000000E+00 0.  1.
          1   -1    0    0  501    0  0.00000000000E+00 -0.00000000000E+00 -0.10978204338E+03  0.10978204338E+03  0.00000000000E+00 0. -1.
         25    2    1    2    0    0 -0.14287478632E+02  0.75012939316E+02  0.13629867336E+03  0.20013894422E+03  0.12508875059E+03 0.  0.
         23    2    1    2    0    0  0.14287478632E+02 -0.75012939316E+02 -0.33326237065E+02  0.12239757884E+03  0.89663014216E+02 0.  0.
          5    1    3    3  502    0 -0.65910256469E+02  0.55994363026E+02  0.57477211042E+02  0.10392609291E+03  0.41800000000E+01 0. -1.
         -5    1    3    3    0  502  0.51622777837E+02  0.19018576290E+02  0.78821462316E+02  0.96212851310E+02  0.41800000000E+01 0. -1.
        -11    1    4    4    0    0  0.62421072017E+01  0.19680553930E+02  0.25772931335E+01  0.20806983087E+02  0.00000000000E+00 0.  1.
         11    1    4    4    0    0  0.80453714304E+01 -0.94693493245E+02 -0.35903530199E+02  0.10159059575E+03  0.00000000000E+00 0. -1.
</event>
<event>
 8    1  0.7136454E-009  0.1095164E+03  0.7561462E-02  0.1261468E+00
         -3   -1    0    0    0  501 -0.00000000000E+00  0.00000000000E+00  0.37819957805E+02  0.37819957805E+02  0.00000000000E+00 0.  1.
          3   -1    0    0  501    0  0.00000000000E+00 -0.00000000000E+00 -0.43733257710E+03  0.43733257710E+03  0.00000000000E+00 0. -1.
         25    2    1    2    0    0  0.27541653912E+02 -0.60203775071E+02 -0.24150217269E+03  0.27992183679E+03  0.12509955263E+03 0.  0.
         23    2    1    2    0    0 -0.27541653912E+02  0.60203775071E+02 -0.15801044660E+03  0.19523069811E+03  0.93619907149E+02 0.  0.
          5    1    3    3  502    0  0.30873890488E+02 -0.79412946494E+02 -0.24522428848E+03  0.25963828155E+03  0.41800000000E+01 0.  1.
         -5    1    3    3    0  502 -0.33322365759E+01  0.19209171423E+02  0.37221157932E+01  0.20283555244E+02  0.41800000000E+01 0.  1.
        -11    1    4    4    0    0 -0.61140913421E+02  0.27999048225E+02 -0.10500592853E+03  0.12469323567E+03  0.00000000000E+00 0. -1.
         11    1    4    4    0    0  0.33599259509E+02  0.32204726846E+02 -0.53004518069E+02  0.70537462434E+02  0.00000000000E+00 0.  1.
</event>
<event>
 8    1  0.7136454E-009  0.4423458E+03  0.7561462E-02  0.1030029E+00
         -1   -1    0    0    0  501 -0.00000000000E+00  0.00000000000E+00  0.80694157676E+03  0.80694157676E+03  0.00000000000E+00 0.  1.
          1   -1    0    0  501    0  0.00000000000E+00 -0.00000000000E+00 -0.27669686657E+03  0.27669686657E+03  0.00000000000E+00 0. -1.
         25    2    1    2    0    0  0.84677123064E+02 -0.42506217325E+03  0.92124828685E+02  0.46041602216E+03  0.12509141898E+03 0.  0.
         23    2    1    2    0    0 -0.84677123064E+02  0.42506217325E+03  0.43811988150E+03  0.62322242117E+03  0.92785178673E+02 0.  0.
          5    1    3    3  502    0  0.96990666113E+02 -0.17156870354E+03  0.34428738161E+02  0.20011451661E+03  0.41800000000E+01 0. -1.
         -5    1    3    3    0  502 -0.12313543050E+02 -0.25349346971E+03  0.57696090524E+02  0.26030150555E+03  0.41800000000E+01 0. -1.
        -11    1    4    4    0    0 -0.55693908020E+02  0.31687226146E+03  0.37702423542E+03  0.49563808931E+03  0.00000000000E+00 0.  1.
         11    1    4    4    0    0 -0.28983215043E+02  0.10818991179E+03  0.61095646077E+02  0.12758433186E+03  0.00000000000E+00 0. -1.
</event>
<event>
 8    1  0.7136454E-009  0.2816952E+03  0.7561462E-02  0.1094767E+00
          1   -1    0    0  501    0  0.00000000000E+00  0.00000000000E+00  0.20570843293E+04  0.20570843293E+04  0.00000000000E+00 0. -1.
         -1   -1    0    0    0  501 -0.00000000000E+00 -0.00000000000E+00 -0.43905852226E+02  0.43905852226E+02  0.00000000000E+00 0.  1.
         25    2    1    2    0    0  0.49313558143E+02 -0.27115513272E+03  0.12007446601E+04  0.12383022060E+04  0.12509069341E+03 0.  0.
         23    2    1    2    0    0 -0.49313558143E+02  0.27115513272E+03  0.81243381695E+03  0.86268797552E+03  0.90691251819E+02 0.  0.
          5    1    3    3  502    0  0.61199764679E+01 -0.17802566967E+02  0.32609906513E+03  0.32666872850E+03  0.41800000000E+01 0. -1.
         -5    1    3    3    0  502  0.43193581675E+02 -0.25335256575E+03  0.87464559500E+03  0.91163347752E+03  0.41800000000E+01 0. -1.
        -11    1    4    4    0    0 -0.99104822081E+01  0.22954297812E+03  0.69547877702E+03  0.73244721703E+03  0.00000000000E+00 0.  1.
         11    1    4    4    0    0 -0.39403075935E+02  0.41612154598E+02  0.11695503994E+03  0.13024075848E+03  0.00000000000E+00 0. -1.
</event>
<event>
 8    1  0.7136454E-009  0.1057407E+03  0.7561462E-02  0.1268667E+00
         -4   -1    0    0    0  501 -0.00000000000E+00  0.00000000000E+00  0.23808794732E+03  0.23808794732E+03  0.00000000000E+00 0.  1.
          4   -1    0    0  501    0  0.00000000000E+00 -0.00000000000E+00 -0.52655901108E+02  0.52655901108E+02  0.00000000000E+00 0. -1.
         25    2    1    2    0    0  0.24571818293E+02 -0.13765512129E+01  0.13100711127E+03  0.18280224538E+03  0.12509248006E+03 0.  0.
         23    2    1    2    0    0 -0.24571818293E+02  0.13765512129E+01  0.54424934942E+02  0.10794160304E+03  0.89909103970E+02 0.  0.
          5    1    3    3  502    0  0.11134827858E+02  0.61037018818E+02  0.77733126633E+02  0.99546036756E+02  0.41800000000E+01 0.  1.
         -5    1    3    3    0  502  0.13436990435E+02 -0.62413570031E+02  0.53273984635E+02  0.83256208627E+02  0.41800000000E+01 0.  1.
        -11    1    4    4    0    0  0.10787886996E+02  0.34937540354E+02  0.45514602196E+02  0.58383124658E+02  0.00000000000E+00 0.  1.
         11    1    4    4    0    0 -0.35359705289E+02 -0.33560989141E+02  0.89103327467E+01  0.49558478386E+02  0.00000000000E+00 0. -1.
</event>
<event>
 8    1  0.7136454E-009  0.1669021E+03  0.7561462E-02  0.1181118E+00
          3   -1    0    0  501    0  0.00000000000E+00  0.00000000000E+00  0.84936604759E+02  0.84936604759E+02  0.00000000000E+00 0. -1.
         -3   -1    0    0    0  501 -0.00000000000E+00 -0.00000000000E+00 -0.42022222997E+03  0.42022222997E+03  0.00000000000E+00 0.  1.
         25    2    1    2    0    0  0.12695214313E+03 -0.71942276629E+02 -0.24774300267E+03  0.31355578352E+03  0.12509235066E+03 0.  0.
         23    2    1    2    0    0 -0.12695214313E+03  0.71942276629E+02 -0.87542622541E+02  0.19160305121E+03  0.88065206868E+02 0.  0.
          5    1    3    3  502    0  0.13014288062E+03 -0.82383707243E+02 -0.25631177709E+03  0.29906093705E+03  0.41800000000E+01 0.  1.
         -5    1    3    3    0  502 -0.31907374942E+01  0.10441430614E+02  0.85687744181E+01  0.14494846465E+02  0.41800000000E+01 0.  1.
        -11    1    4    4    0    0  0.11613866951E+02  0.13046000038E+02 -0.54426601608E-01  0.17466624883E+02  0.00000000000E+00 0. -1.
         11    1    4    4    0    0 -0.13856601008E+03  0.58896276591E+02 -0.87488195939E+02  0.17413642633E+03  0.00000000000E+00 0.  1.
</event>
<event>
 8    1  0.7136454E-009  0.1026848E+03  0.7561462E-02  0.1274749E+00
          1   -1    0    0  501    0  0.00000000000E+00  0.00000000000E+00  0.43364847770E+02  0.43364847770E+02  0.00000000000E+00 0. -1.
         -1   -1    0    0    0  501 -0.00000000000E+00 -0.00000000000E+00 -0.28180173314E+03  0.28180173314E+03  0.00000000000E+00 0.  1.
         25    2    1    2    0    0  0.16513785468E+02  0.10633927674E+02 -0.15398668795E+03  0.19936151155E+03  0.12508927489E+03 0.  0.
         23    2    1    2    0    0 -0.16513785468E+02 -0.10633927674E+02 -0.84450197425E+02  0.12580506937E+03  0.91155329546E+02 0.  0.
          5    1    3    3  502    0 -0.45731705948E+02 -0.21716539547E+02 -0.94507756935E+02  0.10729485328E+03  0.41800000000E+01 0. -1.
         -5    1    3    3    0  502  0.62245491415E+02  0.32350467220E+02 -0.59478931013E+02  0.92066658272E+02  0.41800000000E+01 0. -1.
        -11    1    4    4    0    0 -0.23932828781E+02 -0.44015051947E+02 -0.22238655958E+02  0.54814805575E+02  0.00000000000E+00 0.  1.
         11    1    4    4    0    0  0.74190433130E+01  0.33381124273E+02 -0.62211541467E+02  0.70990263791E+02  0.00000000000E+00 0. -1.
</event>
<event>
 8    1  0.7136454E-009  0.1318089E+03  0.7561462E-02  0.1224796E+00
         -1   -1    0    0    0  501 -0.00000000000E+00  0.00000000000E+00  0.53977143627E+03  0.53977143627E+03  0.00000000000E+00 0.  1.
          1   -1    0    0  501    0  0.00000000000E+00 -0.00000000000E+00 -0.41939926311E+02  0.41939926311E+02  0.00000000000E+00 0. -1.
         25    2    1    2    0    0  0.76847888047E+02 -0.23674679911E+02  0.39952591623E+03  0.42630625441E+03  0.12509986588E+03 0.  0.
         23    2    1    2    0    0 -0.76847888047E+02  0.23674679911E+02  0.98305593729E+02  0.15540510817E+03  0.89558190700E+02 0.  0.
          5    1    3    3  502    0  0.92235395430E+02 -0.56408961532E+02  0.33708904123E+03  0.35402801192E+03  0.41800000000E+01 0. -1.
         -5    1    3    3    0  502 -0.15387507383E+02  0.32734281621E+02  0.62436875003E+02  0.72278242486E+02  0.41800000000E+01 0. -1.
        -11    1    4    4    0    0  0.19829751817E+02  0.60968528924E+01  0.26738280213E+02  0.33842669828E+02  0.00000000000E+00 0.  1.
         11    1    4    4    0    0 -0.96677639864E+02  0.17577827018E+02  0.71567313516E+02  0.12156243834E+03  0.00000000000E+00 0. -1.
</event>
<event>
 8    1  0.7136454E-009  0.1081910E+03  0.7561462E-02  0.1263957E+00
         -1   -1    0    0    0  501 -0.00000000000E+00  0.00000000000E+00  0.73511657420E+02  0.73511657420E+02  0.00000000000E+00 0.  1.
          1   -1    0    0  501    0  0.00000000000E+00 -0.00000000000E+00 -0.20628908816E+03  0.20628908816E+03  0.00000000000E+00 0. -1.
         25    2    1    2    0    0  0.42227784340E+02  0.25829317084E+02 -0.10808994934E+03  0.17256039788E+03  0.12507323606E+03 0.  0.
         23    2    1    2    0    0 -0.42227784340E+02 -0.25829317084E+02 -0.24687481399E+02  0.10724034770E+03  0.91873179140E+02 0.  0.
          5    1    3    3  502    0  0.52370694072E+02  0.58110952682E+02 -0.24176743445E+02  0.81985119033E+02  0.41800000000E+01 0.  1.
         -5    1    3    3    0  502 -0.10142909732E+02 -0.32281635598E+02 -0.83913205899E+02  0.90575278852E+02  0.41800000000E+01 0.  1.
        -11    1    4    4    0    0 -0.25576608328E+02 -0.60391200311E+02 -0.20146880285E+02  0.68608722141E+02  0.00000000000E+00 0.  1.
         11    1    4    4    0    0 -0.16651176012E+02  0.34561883227E+02 -0.45406011137E+01  0.38631625558E+02  0.00000000000E+00 0. -1.
</event>
<event>
 8    1  0.7136454E-009  0.1704726E+03  0.7561462E-02  0.1177356E+00
          1   -1    0    0  501    0  0.00000000000E+00  0.00000000000E+00  0.35248089621E+02  0.35248089621E+02  0.00000000000E+00 0. -1.
         -1   -1    0    0    0  501 -0.00000000000E+00 -0.00000000000E+00 -0.10965762149E+04  0.10965762149E+04  0.00000000000E+00 0.  1.
         25    2    1    2    0    0  0.12866561685E+03  0.97608248463E+02 -0.62874660113E+03  0.66109879809E+03  0.12508845381E+03 0.  0.
         23    2    1    2    0    0 -0.12866561685E+03 -0.97608248463E+02 -0.43258152413E+03  0.47072550642E+03  0.91506919092E+02 0.  0.
          5    1    3    3  502    0  0.33393563908E+02  0.11526224682E+02 -0.24131867045E+02  0.42986083481E+02  0.41800000000E+01 0.  1.
         -5    1    3    3    0  502  0.95272052939E+02  0.86082023781E+02 -0.60461473408E+03  0.61811271461E+03  0.41800000000E+01 0.  1.
        -11    1    4    4    0    0 -0.10491630634E+03 -0.36074880282E+02 -0.33541392369E+03  0.35328646808E+03  0.00000000000E+00 0.  1.
         11    1    4    4    0    0 -0.23749310509E+02 -0.61533368181E+02 -0.97167600446E+02  0.11743903834E+03  0.00000000000E+00 0. -1.
</event>
<event>
 8    1  0.7136454E-009  0.8824930E+02  0.7561462E-02  0.1307148E+00
         -1   -1    0    0    0  501 -0.00000000000E+00  0.00000000000E+00  0.50629086040E+02  0.50629086040E+02  0.00000000000E+00 0.  1.
          1   -1    0    0  501    0  0.00000000000E+00 -0.00000000000E+00 -0.33149176982E+03  0.33149176982E+03  0.00000000000E+00 0. -1.
         25    2    1    2    0    0  0.14076050000E+02 -0.66868496730E+02 -0.13485748714E+03  0.19622238579E+03  0.12508857585E+03 0.  0.
         23    2    1    2    0    0 -0.14076050000E+02  0.66868496730E+02 -0.14600519664E+03  0.18589847007E+03  0.92580736061E+02 0.  0.
          5    1    3    3  502    0  0.86205856630E+01 -0.23648861360E+02 -0.14827078003E+03  0.15045025673E+03  0.41800000000E+01 0.  1.
         -5    1    3    3    0  502  0.54554643372E+01 -0.43219635370E+02  0.13413292887E+02  0.45772129060E+02  0.41800000000E+01 0.  1.
        -11    1    4    4    0    0  0.24351019893E+02 -0.57863878737E+01 -0.99292210535E+01  0.26926638951E+02  0.00000000000E+00 0.  1.
         11    1    4    4    0    0 -0.38427069893E+02  0.72654884603E+02 -0.13607597558E+03  0.15897183111E+03  0.00000000000E+00 0. -1.
</event>
<event>
 8    1  0.7136454E-009  0.1079300E+03  0.7561462E-02  0.1264452E+00
         -1   -1    0    0    0  501 -0.00000000000E+00  0.00000000000E+00  0.17905589001E+03  0.17905589001E+03  0.00000000000E+00 0.  1.
          1   -1    0    0  501    0  0.00000000000E+00 -0.00000000000E+00 -0.73066801992E+02  0.73066801992E+02  0.00000000000E+00 0. -1.
         25    2    1    2    0    0  0.30228332320E+02 -0.98569249101E+01  0.44447138878E+02  0.13650552363E+03  0.12508916334E+03 0.  0.
         23    2    1    2    0    0 -0.30228332320E+02  0.98569249101E+01  0.61541949140E+02  0.11561716837E+03  0.92568931473E+02 0.  0.
          5    1    3    3  502    0  0.59277818105E+01  0.51883936335E+02 -0.64405314118E+01  0.52782897719E+02  0.41800000000E+01 0.  1.
         -5    1    3    3    0  502  0.24300550510E+02 -0.61740861245E+02  0.50887670289E+02  0.83722625913E+02  0.41800000000E+01 0.  1.
        -11    1    4    4    0    0  0.28125423471E+02 -0.16879469673E+02  0.13633927970E+02  0.35522386375E+02  0.00000000000E+00 0.  1.
         11    1    4    4    0    0 -0.58353755791E+02  0.26736394583E+02  0.47908021170E+02  0.80094781994E+02  0.00000000000E+00 0. -1.
</event>
<event>
 8    1  0.7136454E-009  0.8126151E+02  0.7561462E-02  0.1325509E+00
         -2   -1    0    0    0  501 -0.00000000000E+00  0.00000000000E+00  0.20752190106E+03  0.20752190106E+03  0.00000000000E+00 0.  1.
          2   -1    0    0  501    0  0.00000000000E+00 -0.00000000000E+00 -0.72823305698E+02  0.72823305698E+02  0.00000000000E+00 0. -1.
         25    2    1    2    0    0  0.50613563242E+02 -0.26955571345E+02  0.10401308974E+03  0.17249762530E+03  0.12509345422E+03 0.  0.
         23    2    1    2    0    0 -0.50613563242E+02  0.26955571345E+02  0.30685505622E+02  0.10784758145E+03  0.86030023593E+02 0.  0.
          5    1    3    3  502    0  0.25768839978E+02 -0.26529346424E+02  0.13063982629E+03  0.13583841853E+03  0.41800000000E+01 0. -1.
         -5    1    3    3    0  502  0.24844723264E+02 -0.42622492076E+00 -0.26626736553E+02  0.36659206773E+02  0.41800000000E+01 0. -1.
        -11    1    4    4    0    0 -0.54595539135E+02  0.51612089138E+02  0.10758231821E+02  0.75896114463E+02  0.00000000000E+00 0.  1.
         11    1    4    4    0    0  0.39819758936E+01 -0.24656517793E+02  0.19927273800E+02  0.31951466990E+02  0.00000000000E+00 0. -1.
</event>
<event>
 8    1  0.7136454E-009  0.9930027E+02  0.7561462E-02  0.1281774E+00
          2   -1    0    0  501    0  0.00000000000E+00  0.00000000000E+00  0.71887915576E+02  0.71887915576E+02  0.00000000000E+00 0.  1.
         -2   -1    0    0    0  501 -0.00000000000E+00 -0.00000000000E+00 -0.17140952502E+03  0.17140952502E+03  0.00000000000E+00 0. -1.
         25    2    1    2    0    0 -0.37607577128E+01  0.58341863265E+01 -0.29901175559E+02  0.12880213012E+03  0.12509087654E+03 0.  0.
         23    2    1    2    0    0  0.37607577128E+01 -0.58341863265E+01 -0.69620433884E+02  0.11449531047E+03  0.90631066847E+02 0.  0.
          5    1    3    3  502    0 -0.43684562609E+02 -0.36157812371E+02  0.10790385261E+02  0.57876015930E+02  0.41800000000E+01 0.  1.
         -5    1    3    3    0  502  0.39923804897E+02  0.41991998698E+02 -0.40691560820E+02  0.70926114189E+02  0.41800000000E+01 0.  1.
        -11    1    4    4    0    0  0.39131008292E+02 -0.21851853684E+02 -0.14566808059E+02  0.47126756905E+02  0.00000000000E+00 0.  1.
         11    1    4    4    0    0 -0.35370250579E+02  0.16017667358E+02 -0.55053625824E+02  0.67368553569E+02  0.00000000000E+00 0. -1.
</event>
<event>
 8    1  0.7136454E-009  0.2295719E+03  0.7561462E-02  0.1126941E+00
         -1   -1    0    0    0  501 -0.00000000000E+00  0.00000000000E+00  0.32940040783E+02  0.32940040783E+02  0.00000000000E+00 0.  1.
          1   -1    0    0  501    0  0.00000000000E+00 -0.00000000000E+00 -0.19440826840E+04  0.19440826840E+04  0.00000000000E+00 0. -1.
         25    2    1    2    0    0  0.16574460682E+03 -0.12338513502E+03 -0.13826022060E+04  0.14035423715E+04  0.12508861795E+03 0.  0.
         23    2    1    2    0    0 -0.16574460682E+03  0.12338513502E+03 -0.52854043724E+03  0.57348035330E+03  0.82641125283E+02 0.  0.
          5    1    3    3  502    0  0.11776228137E+03 -0.15845293013E+02 -0.55491141668E+03  0.56750610656E+03  0.41800000000E+01 0. -1.
         -5    1    3    3    0  502  0.47982325450E+02 -0.10753984201E+03 -0.82769078930E+03  0.83603626492E+03  0.41800000000E+01 0. -1.
        -11    1    4    4    0    0 -0.78726032680E+02  0.98097440348E+01 -0.17931328782E+03  0.19607976563E+03  0.00000000000E+00 0.  1.
         11    1    4    4    0    0 -0.87018574139E+02  0.11357539099E+03 -0.34922714941E+03  0.37740058767E+03  0.00000000000E+00 0. -1.
</event>
<event>
 8    1  0.7136454E-009  0.9403342E+02  0.7561462E-02  0.1293368E+00
          1   -1    0    0  501    0  0.00000000000E+00  0.00000000000E+00  0.11543274019E+03  0.11543274019E+03  0.00000000000E+00 0. -1.
         -1   -1    0    0    0  501 -0.00000000000E+00 -0.00000000000E+00 -0.13500008316E+03  0.13500008316E+03  0.00000000000E+00 0.  1.
         25    2    1    2    0    0 -0.38345304681E+02  0.27739383801E+02  0.36444579198E+02  0.13861597800E+03  0.12508535565E+03 0.  0.
         23    2    1    2    0    0  0.38345304681E+02 -0.27739383801E+02 -0.56011922167E+02  0.11181684536E+03  0.84414665053E+02 0.  0.
          5    1    3    3  502    0  0.23885754526E+02  0.14380565508E+02  0.63386778425E+02  0.69373525301E+02  0.41800000000E+01 0.  1.
         -5    1    3    3    0  502 -0.62231059207E+02  0.13358818293E+02 -0.26942199227E+02  0.69242452697E+02  0.41800000000E+01 0.  1.
        -11    1    4    4    0    0  0.44974978795E+02 -0.53266840917E+02 -0.46407520489E+02  0.83748212022E+02  0.00000000000E+00 0. -1.
         11    1    4    4    0    0 -0.66296741143E+01  0.25527457116E+02 -0.96044016783E+01  0.28068633335E+02  0.00000000000E+00 0.  1.
</event>
<event>
 8    1  0.7136454E-009  0.1111486E+03  0.7561462E-02  0.1258457E+00
         -2   -1    0    0    0  501 -0.00000000000E+00  0.00000000000E+00  0.34301950755E+02  0.34301950755E+02  0.00000000000E+00 0.  1.
          2   -1    0    0  501    0  0.00000000000E+00 -0.00000000000E+00 -0.42866724364E+03  0.42866724364E+03  0.00000000000E+00 0. -1.
         25    2    1    2    0    0 -0.10091547617E+02 -0.45846650966E+02 -0.23487141513E+03  0.27021683419E+03  0.12509516816E+03 0.  0.
         23    2    1    2    0    0  0.10091547617E+02  0.45846650966E+02 -0.15949387776E+03  0.19275236021E+03  0.97526512215E+02 0.  0.
          5    1    3    3  502    0 -0.41396305451E+02 -0.65695942117E+02 -0.21351206374E+03  0.22723222632E+03  0.41800000000E+01 0. -1.
         -5    1    3    3    0  502  0.31304757833E+02  0.19849291151E+02 -0.21359351395E+02  0.42984607875E+02  0.41800000000E+01 0. -1.
        -11    1    4    4    0    0 -0.43231050126E+02  0.25284516237E+02 -0.61515471682E+02  0.79324546722E+02  0.00000000000E+00 0. -1.
         11    1    4    4    0    0  0.53322597744E+02  0.20562134729E+02 -0.97978406074E+02  0.11342781348E+03  0.00000000000E+00 0.  1.
</event>
<event>
 8    1  0.7136454E-009  0.7384820E+02  0.7561462E-02  0.1347475E+00
         -1   -1    0    0    0  501 -0.00000000000E+00  0.00000000000E+00  0.32351893233E+02  0.32351893233E+02  0.00000000000E+00 0.  1.
          1   -1    0    0  501    0  0.00000000000E+00 -0.00000000000E+00 -0.48957707833E+03  0.48957707833E+03  0.00000000000E+00 0. -1.
         25    2    1    2    0    0  0.18866987623E+02  0.13286890458E+02 -0.13604176221E+03  0.18624530702E+03  0.12508976235E+03 0.  0.
         23    2    1    2    0    0 -0.18866987623E+02 -0.13286890458E+02 -0.32118342289E+03  0.33568366454E+03  0.94827352691E+02 0.  0.
          5    1    3    3  502    0  0.21811943701E+02  0.29780084316E+02 -0.15570555958E+03  0.16007594446E+03  0.41800000000E+01 0. -1.
         -5    1    3    3    0  502 -0.29449560786E+01 -0.16493193857E+02  0.19663797375E+02  0.26169362566E+02  0.41800000000E+01 0. -1.
        -11    1    4    4    0    0 -0.46248144791E+02 -0.35272422997E+02 -0.14887861353E+03  0.15983703040E+03  0.00000000000E+00 0. -1.
         11    1    4    4    0    0  0.27381157169E+02  0.21985532538E+02 -0.17230480936E+03  0.17584663414E+03  0.00000000000E+00 0.  1.
</event>
<event>
 8    1  0.7136454E-009  0.7471901E+02  0.7561462E-02  0.1344743E+00
          1   -1    0    0  501    0  0.00000000000E+00  0.00000000000E+00  0.48734482898E+02  0.48734482898E+02  0.00000000000E+00 0. -1.
         -1   -1    0    0    0  501 -0.00000000000E+00 -0.00000000000E+00 -0.30074865920E+03  0.30074865920E+03  0.00000000000E+00 0.  1.
         25    2    1    2    0    0 -0.44493537951E+02  0.24696502068E+02 -0.16200885120E+03  0.21091142019E+03  0.12508863723E+03 0.  0.
         23    2    1    2    0    0  0.44493537951E+02 -0.24696502068E+02 -0.90005325105E+02  0.13857172191E+03  0.92258178134E+02 0.  0.
          5    1    3    3  502    0 -0.84703917283E+01 -0.82015157214E+01 -0.16146104498E+03  0.16194490990E+03  0.41800000000E+01 0.  1.
         -5    1    3    3    0  502 -0.36023146222E+02  0.32898017790E+02 -0.54780621902E+00  0.48966510289E+02  0.41800000000E+01 0.  1.
        -11    1    4    4    0    0  0.21652824275E+02 -0.49632139817E+02 -0.89673534039E+02  0.10475465054E+03  0.00000000000E+00 0.  1.
         11    1    4    4    0    0  0.22840713676E+02  0.24935637748E+02 -0.33179106575E+00  0.33817071376E+02  0.00000000000E+00 0. -1.
</event>
<event>
 8    1  0.7136454E-009  0.1185080E+03  0.7561462E-02  0.1245579E+00
          4   -1    0    0  501    0  0.00000000000E+00  0.00000000000E+00  0.21322538441E+02  0.21322538441E+02  0.00000000000E+00 0. -1.
         -4   -1    0    0    0  501 -0.00000000000E+00 -0.00000000000E+00 -0.95816359455E+03  0.95816359455E+03  0.00000000000E+00 0.  1.
         25    2    1    2    0    0  0.88753007178E+01 -0.77656954426E+02 -0.67588983004E+03  0.69179714811E+03  0.12508740242E+03 0.  0.
         23    2    1    2    0    0 -0.88753007178E+01  0.77656954426E+02 -0.26095122607E+03  0.28768898488E+03  0.92520463158E+02 0.  0.
          5    1    3    3  502    0 -0.42927446648E+01  0.27099846982E+02 -0.30172393477E+03  0.30299774681E+03  0.41800000000E+01 0. -1.
         -5    1    3    3    0  502  0.13168045383E+02 -0.10475680141E+03 -0.37416589528E+03  0.38879940130E+03  0.41800000000E+01 0. -1.
        -11    1    4    4    0    0 -0.38513104688E+02  0.38150517147E+02 -0.20937838554E+03  0.21628229128E+03  0.00000000000E+00 0. -1.
         11    1    4    4    0    0  0.29637803970E+02  0.39506437280E+02 -0.51572840526E+02  0.71406693598E+02  0.00000000000E+00 0.  1.
</event>
<event>
 8    1  0.7136454E-009  0.1804780E+03  0.7561462E-02  0.1167341E+00
         -2   -1    0    0    0  501 -0.00000000000E+00  0.00000000000E+00  0.90990405834E+02  0.90990405834E+02  0.00000000000E+00 0.  1.
          2   -1    0    0  501    0  0.00000000000E+00 -0.00000000000E+00 -0.54414285869E+03  0.54414285869E+03  0.00000000000E+00 0. -1.
         25    2    1    2    0    0 -0.46232840188E+02 -0.14535405282E+03 -0.40556452647E+03  0.45099315844E+03  0.12508783969E+03 0.  0.
         23    2    1    2    0    0  0.46232840188E+02  0.14535405282E+03 -0.47587926384E+02  0.18414010609E+03  0.91529731503E+02 0.  0.
          5    1    3    3  502    0 -0.78343630243E+02 -0.42105954478E+02 -0.18031392420E+03  0.20110002353E+03  0.41800000000E+01 0.  1.
         -5    1    3    3    0  502  0.32110790055E+02 -0.10324809835E+03 -0.22525060227E+03  0.24989313491E+03  0.41800000000E+01 0.  1.
        -11    1    4    4    0    0 -0.61766941972E+01  0.78586033232E+02  0.12947105799E+02  0.79884564961E+02  0.00000000000E+00 0.  1.
         11    1    4    4    0    0  0.52409534386E+02  0.66768019591E+02 -0.60535032183E+02  0.10425554113E+03  0.00000000000E+00 0. -1.
</event>
<event>
 8    1  0.7136454E-009  0.2202847E+03  0.7561462E-02  0.1133671E+00
         -3   -1    0    0    0  501 -0.00000000000E+00  0.00000000000E+00  0.14463681419E+04  0.14463681419E+04  0.00000000000E+00 0.  1.
          3   -1    0    0  501    0  0.00000000000E+00 -0.00000000000E+00 -0.40107461003E+02  0.40107461003E+02  0.00000000000E+00 0. -1.
         25    2    1    2    0    0 -0.20375999394E+03  0.32406654082E+02  0.91011995423E+03  0.94156020213E+03  0.12509579039E+03 0.  0.
         23    2    1    2    0    0  0.20375999394E+03 -0.32406654082E+02  0.49614072670E+03  0.54491540081E+03  0.90602687570E+02 0.  0.
          5    1    3    3  502    0 -0.16745277300E+03  0.50005498266E+02  0.50471119710E+03  0.53412718141E+03  0.41800000000E+01 0.  1.
         -5    1    3    3    0  502 -0.36307220938E+02 -0.17598844184E+02  0.40540875713E+03  0.40743302072E+03  0.41800000000E+01 0.  1.
        -11    1    4    4    0    0  0.48730385951E+02  0.30940904447E+02  0.13576760213E+03  0.14752908822E+03  0.00000000000E+00 0. -1.
         11    1    4    4    0    0  0.15502960799E+03 -0.63347558529E+02  0.36037312457E+03  0.39738631259E+03  0.00000000000E+00 0.  1.
</event>
<event>
 8    1  0.7136454E-009  0.1118739E+03  0.7561462E-02  0.1257139E+00
          3   -1    0    0  501    0  0.00000000000E+00  0.00000000000E+00  0.32538655260E+03  0.32538655260E+03  0.00000000000E+00 0. -1.
         -3   -1    0    0    0  501 -0.00000000000E+00 -0.00000000000E+00 -0.44018163829E+02  0.44018163829E+02  0.00000000000E+00 0.  1.
         25    2    1    2    0    0  0.22674792372E+02  0.45740558289E+02  0.17008180892E+03  0.21720389813E+03  0.12507344543E+03 0.  0.
         23    2    1    2    0    0 -0.22674792372E+02 -0.45740558289E+02  0.11128657984E+03  0.15220081830E+03  0.90410405131E+02 0.  0.
          5    1    3    3  502    0  0.61051203175E+02  0.14662223938E+01  0.13636793321E+03  0.14947603428E+03  0.41800000000E+01 0. -1.
         -5    1    3    3    0  502 -0.38376410803E+02  0.44274335896E+02  0.33713875717E+02  0.67727863845E+02  0.41800000000E+01 0. -1.
        -11    1    4    4    0    0 -0.20132339610E+01 -0.71075340318E+02  0.74439097812E+02  0.10294142216E+03  0.00000000000E+00 0.  1.
         11    1    4    4    0    0 -0.20661558411E+02  0.25334782029E+02  0.36847482031E+02  0.49259396144E+02  0.00000000000E+00 0. -1.
</event>
<event>
 8    1  0.7136454E-009  0.1050685E+03  0.7561462E-02  0.1269985E+00
         -2   -1    0    0    0  501 -0.00000000000E+00  0.00000000000E+00  0.19484123617E+02  0.19484123617E+02  0.00000000000E+00 0.  1.
          2   -1    0    0  501    0  0.00000000000E+00 -0.00000000000E+00 -0.72110375935E+03  0.72110375935E+03  0.00000000000E+00 0. -1.
         25    2    1    2    0    0  0.47761983689E+02  0.66307465999E+01 -0.41897332868E+03  0.43989938636E+03  0.12509055156E+03 0.  0.
         23    2    1    2    0    0 -0.47761983689E+02 -0.66307465999E+01 -0.28264630705E+03  0.30068849661E+03  0.90550887432E+02 0.  0.
          5    1    3    3  502    0  0.52931125028E+02 -0.36342600936E+02 -0.10659422352E+03  0.12450819061E+03  0.41800000000E+01 0.  1.
         -5    1    3    3    0  502 -0.51691413389E+01  0.42973347536E+02 -0.31237910516E+03  0.31539119576E+03  0.41800000000E+01 0.  1.
        -11    1    4    4    0    0 -0.98212920013E+01  0.40575130343E+02 -0.10456732347E+03  0.11259273563E+03  0.00000000000E+00 0. -1.
         11    1    4    4    0    0 -0.37940691688E+02 -0.47205876943E+02 -0.17807898358E+03  0.18809576098E+03  0.00000000000E+00 0.  1.
</event>
<event>
 8    1  0.7136454E-009  0.1344973E+03  0.7561462E-02  0.1220931E+00
         -2   -1    0    0    0  501 -0.00000000000E+00  0.00000000000E+00  0.27938794191E+02  0.27938794191E+02  0.00000000000E+00 0.  1.
          2   -1    0    0  501    0  0.00000000000E+00 -0.00000000000E+00 -0.11885429907E+04  0.11885429907E+04  0.00000000000E+00 0. -1.
         25    2    1    2    0    0 -0.10108417098E+03  0.37378775400E+02 -0.93985729921E+03  0.95425061818E+03  0.12508923591E+03 0.  0.
         23    2    1    2    0    0  0.10108417098E+03 -0.37378775400E+02 -0.22074689732E+03  0.26223116673E+03  0.91764969662E+02 0.  0.
          5    1    3    3  502    0 -0.95802257989E+02  0.73158438364E+02 -0.57093704169E+03  0.58353818017E+03  0.41800000000E+01 0. -1.
         -5    1    3    3    0  502 -0.52819129892E+01 -0.35779662964E+02 -0.36892025752E+03  0.37071243801E+03  0.41800000000E+01 0. -1.
        -11    1    4    4    0    0  0.54504530734E+02 -0.39668047242E+01 -0.18891850683E+03  0.19666387983E+03  0.00000000000E+00 0. -1.
         11    1    4    4    0    0  0.46579640245E+02 -0.33411970676E+02 -0.31828390493E+02  0.65567286898E+02  0.00000000000E+00 0.  1.
</event>
<event>
 8    1  0.7136454E-009  0.1094277E+03  0.7561462E-02  0.1261633E+00
          1   -1    0    0  501    0  0.00000000000E+00  0.00000000000E+00  0.68296350519E+03  0.68296350519E+03  0.00000000000E+00 0. -1.
         -1   -1    0    0    0  501 -0.00000000000E+00 -0.00000000000E+00 -0.24104939762E+02  0.24104939762E+02  0.00000000000E+00 0.  1.
         25    2    1    2    0    0  0.25531334905E+02  0.23522797950E+02  0.52981681402E+03  0.54548885280E+03  0.12508821301E+03 0.  0.
         23    2    1    2    0    0 -0.25531334905E+02 -0.23522797950E+02  0.12904175142E+03  0.16157959215E+03  0.90835124849E+02 0.  0.
          5    1    3    3  502    0  0.27541676395E+01  0.69767213678E+02  0.39394984822E+03  0.40011124061E+03  0.41800000000E+01 0. -1.
         -5    1    3    3    0  502  0.22777167265E+02 -0.46244415727E+02  0.13586696579E+03  0.14537761220E+03  0.41800000000E+01 0. -1.
        -11    1    4    4    0    0  0.23276502840E+02 -0.39487847644E+02  0.63520408398E+02  0.78332164397E+02  0.00000000000E+00 0.  1.
         11    1    4    4    0    0 -0.48807837745E+02  0.15965049694E+02  0.65521343017E+02  0.83247427755E+02  0.00000000000E+00 0. -1.
</event>
<event>
 8    1  0.7136454E-009  0.1175396E+03  0.7561462E-02  0.1247212E+00
          1   -1    0    0  501    0  0.00000000000E+00  0.00000000000E+00  0.82542043780E+03  0.82542043780E+03  0.00000000000E+00 0. -1.
         -1   -1    0    0    0  501 -0.00000000000E+00 -0.00000000000E+00 -0.22142670492E+02  0.22142670492E+02  0.00000000000E+00 0.  1.
         25    2    1    2    0    0  0.20232611434E+02  0.51096914378E+02  0.61731458400E+03  0.63225413099E+03  0.12509091614E+03 0.  0.
         23    2    1    2    0    0 -0.20232611434E+02 -0.51096914378E+02  0.18596318330E+03  0.21530897730E+03  0.93570278073E+02 0.  0.
          5    1    3    3  502    0 -0.21024588124E+02 -0.34118932487E+02  0.23078221212E+03  0.23427342293E+03  0.41800000000E+01 0.  1.
         -5    1    3    3    0  502  0.41257199558E+02  0.85215846865E+02  0.38653237189E+03  0.39798070806E+03  0.41800000000E+01 0.  1.
        -11    1    4    4    0    0 -0.52605590346E+02 -0.24103247872E+02  0.64063371017E+02  0.86327459130E+02  0.00000000000E+00 0.  1.
         11    1    4    4    0    0  0.32372978912E+02 -0.26993666506E+02  0.12189981228E+03  0.12898151817E+03  0.00000000000E+00 0. -1.
</event>
<event>
 8    1  0.7136454E-009  0.9730534E+02  0.7561462E-02  0.1286067E+00
         -2   -1    0    0    0  501 -0.00000000000E+00  0.00000000000E+00  0.49049316692E+02  0.49049316692E+02  0.00000000000E+00 0.  1.
          2   -1    0    0  501    0  0.00000000000E+00 -0.00000000000E+00 -0.31842503336E+03  0.31842503336E+03  0.00000000000E+00 0. -1.
         25    2    1    2    0    0 -0.32854951412E+02  0.46395056154E+02 -0.18783500737E+03  0.23272559710E+03  0.12508902623E+03 0.  0.
         23    2    1    2    0    0  0.32854951412E+02 -0.46395056154E+02 -0.81540709293E+02  0.13474875295E+03  0.90974667248E+02 0.  0.
          5    1    3    3  502    0  0.30681807548E+02  0.51897574010E+02 -0.14125884824E+03  0.15364330805E+03  0.41800000000E+01 0.  1.
         -5    1    3    3    0  502 -0.63536758961E+02 -0.55025178561E+01 -0.46576159128E+02  0.79082289048E+02  0.41800000000E+01 0.  1.
        -11    1    4    4    0    0  0.46781095957E+01 -0.41383085082E+02 -0.94546851307E+02  0.10331288173E+03  0.00000000000E+00 0. -1.
         11    1    4    4    0    0  0.28176841816E+02 -0.50119710716E+01  0.13006142014E+02  0.31435871212E+02  0.00000000000E+00 0.  1.
</event>
<event>
 8    1  0.7136454E-009  0.1456093E+03  0.7561462E-02  0.1205974E+00
         -1   -1    0    0    0  501 -0.00000000000E+00  0.00000000000E+00  0.78155560318E+02  0.78155560318E+02  0.00000000000E+00 0.  1.
          1   -1    0    0  501    0  0.00000000000E+00 -0.00000000000E+00 -0.61934614063E+03  0.61934614063E+03  0.00000000000E+00 0. -1.
         25    2    1    2    0    0 -0.13207199097E+03  0.55186843862E+02 -0.47772289315E+03  0.51415687702E+03  0.12509809355E+03 0.  0.
         23    2    1    2    0    0  0.13207199097E+03 -0.55186843862E+02 -0.63467687164E+02  0.18334482393E+03  0.95386469770E+02 0.  0.
          5    1    3    3  502    0 -0.10178557512E+03  0.25450042890E+02 -0.45267938122E+03  0.46469786160E+03  0.41800000000E+01 0. -1.
         -5    1    3    3    0  502 -0.30286415845E+02  0.29736800973E+02 -0.25043511929E+02  0.49459015422E+02  0.41800000000E+01 0. -1.
        -11    1    4    4    0    0  0.58550445705E+02 -0.30449169120E+02  0.20426562468E+02  0.69083652528E+02  0.00000000000E+00 0.  1.
         11    1    4    4    0    0  0.73521545264E+02 -0.24737674742E+02 -0.83894249632E+02  0.11426117141E+03  0.00000000000E+00 0. -1.
</event>
<event>
 8    1  0.7136454E-009  0.8950151E+02  0.7561462E-02  0.1304063E+00
          1   -1    0    0  501    0  0.00000000000E+00  0.00000000000E+00  0.21945860156E+03  0.21945860156E+03  0.00000000000E+00 0. -1.
         -1   -1    0    0    0  501 -0.00000000000E+00 -0.00000000000E+00 -0.62111457539E+02  0.62111457539E+02  0.00000000000E+00 0.  1.
         25    2    1    2    0    0 -0.11396523722E+02  0.57854332945E+01  0.40383010542E+02  0.13206641759E+03  0.12508956441E+03 0.  0.
         23    2    1    2    0    0  0.11396523722E+02 -0.57854332945E+01  0.11696413348E+03  0.14950364150E+03  0.92235450405E+02 0.  0.
          5    1    3    3  502    0 -0.29209921228E+02 -0.44183237418E+02  0.55415426948E+02  0.76770566695E+02  0.41800000000E+01 0. -1.
         -5    1    3    3    0  502  0.17813397505E+02  0.49968670712E+02 -0.15032416406E+02  0.55295850897E+02  0.41800000000E+01 0. -1.
        -11    1    4    4    0    0 -0.28163488505E+02 -0.15187113639E+02  0.76886930738E+01  0.32908152586E+02  0.00000000000E+00 0.  1.
         11    1    4    4    0    0  0.39560012227E+02  0.94016803447E+01  0.10927544040E+03  0.11659548892E+03  0.00000000000E+00 0. -1.
</event>
<event>
 8    1  0.7136454E-009  0.1039236E+03  0.7561462E-02  0.1272255E+00
          1   -1    0    0  501    0  0.00000000000E+00  0.00000000000E+00  0.45318574860E+02  0.45318574860E+02  0.00000000000E+00 0. -1.
         -1   -1    0    0    0  501 -0.00000000000E+00 -0.00000000000E+00 -0.35876486265E+03  0.35876486265E+03  0.00000000000E+00 0.  1.
         25    2    1    2    0    0  0.40124866607E+02 -0.54850372880E+02 -0.16098968824E+03  0.21490377082E+03  0.12508949862E+03 0.  0.
         23    2    1    2    0    0 -0.40124866607E+02  0.54850372880E+02 -0.15245659955E+03  0.18917966670E+03  0.89035741251E+02 0.  0.
          5    1    3    3  502    0  0.32300742837E+02  0.22612916974E+02 -0.42949142064E+01  0.39882335563E+02  0.41800000000E+01 0. -1.
         -5    1    3    3    0  502  0.78241237703E+01 -0.77463289854E+02 -0.15669477404E+03  0.17502143525E+03  0.41800000000E+01 0. -1.
        -11    1    4    4    0    0 -0.32532223485E+02  0.67808449212E+02 -0.15649377517E+03  0.17362785784E+03  0.00000000000E+00 0.  1.
         11    1    4    4    0    0 -0.75926431221E+01 -0.12958076332E+02  0.40371756229E+01  0.15551808860E+02  0.00000000000E+00 0. -1.
</event>
<event>
 8    1  0.7136454E-009  0.1172706E+03  0.7561462E-02  0.1247669E+00
         -2   -1    0    0    0  501 -0.00000000000E+00  0.00000000000E+00  0.11648461966E+03  0.11648461966E+03  0.00000000000E+00 0.  1.
          2   -1    0    0  501    0  0.00000000000E+00 -0.00000000000E+00 -0.17177578110E+03  0.17177578110E+03  0.00000000000E+00 0. -1.
         25    2    1    2    0    0 -0.43492287852E+02  0.71109197862E+02  0.17680745528E+01  0.15032956731E+03  0.12509098927E+03 0.  0.
         23    2    1    2    0    0  0.43492287852E+02 -0.71109197862E+02 -0.57059235997E+02  0.13793083345E+03  0.93920505112E+02 0.  0.
          5    1    3    3  502    0 -0.19289773934E+01  0.78967676636E+02 -0.41795482910E+02  0.89464795863E+02  0.41800000000E+01 0.  1.
         -5    1    3    3    0  502 -0.41563310459E+02 -0.78584787738E+01  0.43563557463E+02  0.60864771451E+02  0.41800000000E+01 0.  1.
        -11    1    4    4    0    0  0.47738553055E+02 -0.64929761240E+01  0.47500739194E+01  0.48411686491E+02  0.00000000000E+00 0.  1.
         11    1    4    4    0    0 -0.42462652023E+01 -0.64616221738E+02 -0.61809309917E+02  0.89519146959E+02  0.00000000000E+00 0. -1.
</event>
<event>
 8    1  0.7136454E-009  0.1110551E+03  0.7561462E-02  0.1258628E+00
         -4   -1    0    0    0  501 -0.00000000000E+00  0.00000000000E+00  0.63204211095E+03  0.63204211095E+03  0.00000000000E+00 0.  1.
          4   -1    0    0  501    0  0.00000000000E+00 -0.00000000000E+00 -0.23384842415E+02  0.23384842415E+02  0.00000000000E+00 0. -1.
         25    2    1    2    0    0  0.33050342479E+02  0.40521771530E+02  0.31918352511E+03  0.34678433222E+03  0.12508761435E+03 0.  0.
         23    2    1    2    0    0 -0.33050342479E+02 -0.40521771530E+02  0.28947374342E+03  0.30864262114E+03  0.93439179953E+02 0.  0.
          5    1    3    3  502    0  0.19848928412E+02 -0.34673518908E+02  0.37662984465E+02  0.55065467140E+02  0.41800000000E+01 0.  1.
         -5    1    3    3    0  502  0.13201414067E+02  0.75195290438E+02  0.28152054064E+03  0.29171886508E+03  0.41800000000E+01 0.  1.
        -11    1    4    4    0    0 -0.57039500262E+02 -0.53501270211E+02  0.23590419648E+03  0.24852903336E+03  0.00000000000E+00 0.  1.
         11    1    4    4    0    0  0.23989157783E+02  0.12979498681E+02  0.53569546939E+02  0.60113587785E+02  0.00000000000E+00 0. -1.
</event>
<event>
 8    1  0.7136454E-009  0.1051018E+03  0.7561462E-02  0.1269919E+00
          2   -1    0    0  501    0  0.00000000000E+00  0.00000000000E+00  0.33952825495E+03  0.33952825495E+03  0.00000000000E+00 0. -1.
         -2   -1    0    0    0  501 -0.00000000000E+00 -0.00000000000E+00 -0.33643638736E+02  0.33643638736E+02  0.00000000000E+00 0.  1.
         25    2    1    2    0    0 -0.28094104655E+01  0.10285127543E+02  0.16885476215E+03  0.21041370391E+03  0.12509324306E+03 0.  0.
         23    2    1    2    0    0  0.28094104655E+01 -0.10285127543E+02  0.13702985406E+03  0.16275818977E+03  0.87174370068E+02 0.  0.
          5    1    3    3  502    0  0.52285968611E+02 -0.24365159470E+02  0.10037945033E+03  0.11584899636E+03  0.41800000000E+01 0. -1.
         -5    1    3    3    0  502 -0.55095379077E+02  0.34650287013E+02  0.68475311820E+02  0.94564707553E+02  0.41800000000E+01 0. -1.
        -11    1    4    4    0    0 -0.13153404339E+02 -0.46098536090E+02  0.65246151656E+02  0.80963864664E+02  0.00000000000E+00 0.  1.
         11    1    4    4    0    0  0.15962814804E+02  0.35813408547E+02  0.71783702409E+02  0.81794325107E+02  0.00000000000E+00 0. -1.
</event>
<event>
 8    1  0.7136454E-009  0.1028132E+03  0.7561462E-02  0.1274489E+00
         -1   -1    0    0    0  501 -0.00000000000E+00  0.00000000000E+00  0.14059139444E+03  0.14059139444E+03  0.00000000000E+00 0.  1.
          1   -1    0    0  501    0  0.00000000000E+00 -0.00000000000E+00 -0.15532683648E+03  0.15532683648E+03  0.00000000000E+00 0. -1.
         25    2    1    2    0    0 -0.42729350862E+02 -0.31752369697E+02  0.68874834922E+02  0.15240048496E+03  0.12509258380E+03 0.  0.
         23    2    1    2    0    0  0.42729350862E+02  0.31752369697E+02 -0.83610276958E+02  0.14351774597E+03  0.10379139939E+03 0.  0.
          5    1    3    3  502    0 -0.39798934639E+02  0.15294885084E+02  0.90683344812E+02  0.10029371932E+03  0.41800000000E+01 0.  1.
         -5    1    3    3    0  502 -0.29304162227E+01 -0.47047254781E+02 -0.21808509890E+02  0.52106765639E+02  0.41800000000E+01 0.  1.
        -11    1    4    4    0    0  0.11197045537E+02  0.67138040915E+02 -0.59181428958E+02  0.90196074750E+02  0.00000000000E+00 0. -1.
         11    1    4    4    0    0  0.31532305325E+02 -0.35385671218E+02 -0.24428847999E+02  0.53321671216E+02  0.00000000000E+00 0.  1.
</event>
<event>
 8    1  0.7136454E-009  0.1769316E+03  0.7561462E-02  0.1170806E+00
          2   -1    0    0  501    0  0.00000000000E+00  0.00000000000E+00  0.32211425142E+03  0.32211425142E+03  0.00000000000E+00 0. -1.
         -2   -1    0    0    0  501 -0.00000000000E+00 -0.00000000000E+00 -0.11855517788E+03  0.11855517788E+03  0.00000000000E+00 0.  1.
         25    2    1    2    0    0  0.25521224784E+02 -0.14486500285E+03  0.18262509182E+03  0.26577281713E+03  0.12508422841E+03 0.  0.
         23    2    1    2    0    0 -0.25521224784E+02  0.14486500285E+03  0.20933981721E+02  0.17489661217E+03  0.92268041021E+02 0.  0.
          5    1    3    3  502    0  0.76003780269E+02 -0.97907391757E+02  0.11764880896E+03  0.17094193934E+03  0.41800000000E+01 0. -1.
         -5    1    3    3    0  502 -0.50482555485E+02 -0.46957611090E+02  0.64976282865E+02  0.94830877790E+02  0.41800000000E+01 0. -1.
        -11    1    4    4    0    0 -0.47556822808E+02  0.94128958589E+02 -0.18358783637E+02  0.10704651875E+03  0.00000000000E+00 0.  1.
         11    1    4    4    0    0  0.22035598024E+02  0.50736044258E+02  0.39292765359E+02  0.67850093418E+02  0.00000000000E+00 0. -1.
</event>
<event>
 8    1  0.7136454E-009  0.8807605E+02  0.7561462E-02  0.1307579E+00
         -2   -1    0    0    0  501 -0.00000000000E+00  0.00000000000E+00  0.35425296256E+02  0.35425296256E+02  0.00000000000E+00 0.  1.
          2   -1    0    0  501    0  0.00000000000E+00 -0.00000000000E+00 -0.28085081795E+03  0.28085081795E+03  0.00000000000E+00 0. -1.
         25    2    1    2    0    0  0.12528311593E+02  0.19282447635E+02 -0.16458639203E+03  0.20800843338E+03  0.12510018600E+03 0.  0.
         23    2    1    2    0    0 -0.12528311593E+02 -0.19282447635E+02 -0.80839129664E+02  0.10826768083E+03  0.68250673611E+02 0.  0.
          5    1    3    3  502    0  0.24061403883E+02 -0.39151929135E+02 -0.17651134082E+02  0.49405056889E+02  0.41800000000E+01 0.  1.
         -5    1    3    3    0  502 -0.11533092290E+02  0.58434376770E+02 -0.14693525795E+03  0.15860337649E+03  0.41800000000E+01 0.  1.
        -11    1    4    4    0    0 -0.30348996979E+02 -0.35149611910E+02 -0.41618675348E+02  0.62359209206E+02  0.00000000000E+00 0.  1.
         11    1    4    4    0    0  0.17820685385E+02  0.15867164275E+02 -0.39220454316E+02  0.45908471620E+02  0.00000000000E+00 0. -1.
</event>
<event>
 8    1  0.7136454E-009  0.5162057E+02  0.7561462E-02  0.1436792E+00
          1   -1    0    0  501    0  0.00000000000E+00  0.00000000000E+00  0.63161757778E+02  0.63161757778E+02  0.00000000000E+00 0. -1.
         -1   -1    0    0    0  501 -0.00000000000E+00 -0.00000000000E+00 -0.22456084801E+03  0.22456084801E+03  0.00000000000E+00 0.  1.
         25    2    1    2    0    0 -0.20760130434E+01  0.91364449291E+01 -0.32707497896E+02  0.12963311426E+03  0.12508868629E+03 0.  0.
         23    2    1    2    0    0  0.20760130434E+01 -0.91364449291E+01 -0.12869159234E+03  0.15808949153E+03  0.91339897847E+02 0.  0.
          5    1    3    3  502    0  0.27471448720E-01 -0.11539817328E+02  0.46264710871E+02  0.47865060437E+02  0.41800000000E+01 0. -1.
         -5    1    3    3    0  502 -0.21034844921E+01  0.20676262257E+02 -0.78972208767E+02  0.81768053820E+02  0.41800000000E+01 0. -1.
        -11    1    4    4    0    0 -0.95688893081E+01  0.28661853502E+02 -0.11049632675E+03  0.11455349717E+03  0.00000000000E+00 0.  1.
         11    1    4    4    0    0  0.11644902351E+02 -0.37798298431E+02 -0.18195265582E+02  0.43535994357E+02  0.00000000000E+00 0. -1.
</event>
<event>
 8    1  0.7136454E-009  0.7834566E+02  0.7561462E-02  0.1333813E+00
          3   -1    0    0  501    0  0.00000000000E+00  0.00000000000E+00  0.10868154173E+03  0.10868154173E+03  0.00000000000E+00 0.  1.
         -3   -1    0    0    0  501 -0.00000000000E+00 -0.00000000000E+00 -0.11319214464E+03  0.11319214464E+03  0.00000000000E+00 0. -1.
         25    2    1    2    0    0  0.70204094790E+01 -0.23469761237E+02 -0.83043789282E+01  0.12773526066E+03  0.12508884149E+03 0.  0.
         23    2    1    2    0    0 -0.70204094790E+01  0.23469761237E+02  0.37937760253E+01  0.94138425711E+02  0.90815938122E+02 0.  0.
          5    1    3    3  502    0  0.31190099617E+02 -0.59823253192E+02 -0.35280059428E+02  0.76248271651E+02  0.41800000000E+01 0. -1.
         -5    1    3    3    0  502 -0.24169690138E+02  0.36353491954E+02  0.26975680500E+02  0.51486989008E+02  0.41800000000E+01 0. -1.
        -11    1    4    4    0    0 -0.10759407476E+01  0.33534842113E+02  0.42245955769E+02  0.53948716971E+02  0.00000000000E+00 0.  1.
         11    1    4    4    0    0 -0.59444687314E+01 -0.10065080876E+02 -0.38452179744E+02  0.40189708740E+02  0.00000000000E+00 0. -1.
</event>
<event>
 8    1  0.7136454E-009  0.7080170E+02  0.7561462E-02  0.1357388E+00
          2   -1    0    0  501    0  0.00000000000E+00  0.00000000000E+00  0.12701908302E+04  0.12701908302E+04  0.00000000000E+00 0. -1.
         -2   -1    0    0    0  501 -0.00000000000E+00 -0.00000000000E+00 -0.94946675744E+01  0.94946675744E+01  0.00000000000E+00 0.  1.
         25    2    1    2    0    0  0.56394188000E+01  0.26682282732E+02  0.10084818266E+04  0.10165749321E+04  0.12508097650E+03 0.  0.
         23    2    1    2    0    0 -0.56394188000E+01 -0.26682282732E+02  0.25221433605E+03  0.26311056572E+03  0.69795065949E+02 0.  0.
          5    1    3    3  502    0 -0.90532096810E+01  0.47983968858E+02  0.15228453637E+03  0.15997648043E+03  0.41800000000E+01 0. -1.
         -5    1    3    3    0  502  0.14692628481E+02 -0.21301686126E+02  0.85619729023E+03  0.85659845164E+03  0.41800000000E+01 0. -1.
        -11    1    4    4    0    0  0.13452673826E+02  0.15233019229E+02  0.30418269192E+02  0.36582651743E+02  0.00000000000E+00 0.  1.
         11    1    4    4    0    0 -0.19092092626E+02 -0.41915301961E+02  0.22179606686E+03  0.22652791398E+03  0.00000000000E+00 0. -1.
</event>
<event>
 8    1  0.7136454E-009  0.1587309E+03  0.7561462E-02  0.1190137E+00
         -1   -1    0    0    0  501 -0.00000000000E+00  0.00000000000E+00  0.56661444129E+02  0.56661444129E+02  0.00000000000E+00 0.  1.
          1   -1    0    0  501    0  0.00000000000E+00 -0.00000000000E+00 -0.48133049348E+03  0.48133049348E+03  0.00000000000E+00 0. -1.
         25    2    1    2    0    0  0.27501684651E+02  0.12039381860E+03 -0.25060612560E+03  0.30611245025E+03  0.12510150995E+03 0.  0.
         23    2    1    2    0    0 -0.27501684651E+02 -0.12039381860E+03 -0.17406292374E+03  0.23187948735E+03  0.90659698981E+02 0.  0.
          5    1    3    3  502    0 -0.41876973541E+02  0.68796572055E+01 -0.63691435764E+02  0.76649083399E+02  0.41800000000E+01 0.  1.
         -5    1    3    3    0  502  0.69378658192E+02  0.11351416139E+03 -0.18691468984E+03  0.22946336685E+03  0.41800000000E+01 0.  1.
        -11    1    4    4    0    0  0.15540521081E+02 -0.19122273354E+01 -0.59552034959E+02  0.61576044665E+02  0.00000000000E+00 0. -1.
         11    1    4    4    0    0 -0.43042205733E+02 -0.11848159126E+03 -0.11451088878E+03  0.17030344269E+03  0.00000000000E+00 0.  1.
</event>
<event>
 8    1  0.7136454E-009  0.1108832E+03  0.7561462E-02  0.1258943E+00
         -1   -1    0    0    0  501 -0.00000000000E+00  0.00000000000E+00  0.60126445491E+02  0.60126445491E+02  0.00000000000E+00 0.  1.
          1   -1    0    0  501    0  0.00000000000E+00 -0.00000000000E+00 -0.33453680019E+03  0.33453680019E+03  0.00000000000E+00 0. -1.
         25    2    1    2    0    0 -0.71831595567E+02 -0.53456175377E+02 -0.17356646645E+03  0.23193632482E+03  0.12510715284E+03 0.  0.
         23    2    1    2    0    0  0.71831595567E+02  0.53456175377E+02 -0.10084388825E+03  0.16272692085E+03  0.91067119014E+02 0.  0.
          5    1    3    3  502    0 -0.84880044867E+02 -0.34811068606E+02 -0.46796205472E+02  0.10307176995E+03  0.41800000000E+01 0. -1.
         -5    1    3    3    0  502  0.13048449301E+02 -0.18645106771E+02 -0.12677026097E+03  0.12886455487E+03  0.41800000000E+01 0. -1.
        -11    1    4    4    0    0  0.10950256979E+01  0.33192076033E+02  0.52410119787E+01  0.33621142146E+02  0.00000000000E+00 0.  1.
         11    1    4    4    0    0  0.70736569869E+02  0.20264099344E+02 -0.10608490023E+03  0.12910577871E+03  0.00000000000E+00 0. -1.
</event>
<event>
 8    1  0.7136454E-009  0.1213130E+03  0.7561462E-02  0.1240947E+00
         -1   -1    0    0    0  501 -0.00000000000E+00  0.00000000000E+00  0.75340881404E+02  0.75340881404E+02  0.00000000000E+00 0.  1.
          1   -1    0    0  501    0  0.00000000000E+00 -0.00000000000E+00 -0.21179250206E+03  0.21179250206E+03  0.00000000000E+00 0. -1.
         25    2    1    2    0    0  0.67236000280E+02 -0.28003851532E+02 -0.10823519042E+03  0.18074108015E+03  0.12509031208E+03 0.  0.
         23    2    1    2    0    0 -0.67236000280E+02  0.28003851532E+02 -0.28216430235E+02  0.10639230331E+03  0.72237523726E+02 0.  0.
          5    1    3    3  502    0 -0.25900329747E+01 -0.62052917968E+02 -0.25772508912E+02  0.67371859963E+02  0.41800000000E+01 0. -1.
         -5    1    3    3    0  502  0.69826033254E+02  0.34049066436E+02 -0.82462681508E+02  0.11336922019E+03  0.41800000000E+01 0. -1.
        -11    1    4    4    0    0  0.15008264676E+02  0.10972801033E+02 -0.48841735292E+01  0.19222526425E+02  0.00000000000E+00 0.  1.
         11    1    4    4    0    0 -0.82244264955E+02  0.17031050499E+02 -0.23332256706E+02  0.87169776885E+02  0.00000000000E+00 0. -1.
</event>
<event>
 8    1  0.7136454E-009  0.1001289E+03  0.7561462E-02  0.1280025E+00
         -1   -1    0    0    0  501 -0.00000000000E+00  0.00000000000E+00  0.26563887424E+02  0.26563887424E+02  0.00000000000E+00 0.  1.
          1   -1    0    0  501    0  0.00000000000E+00 -0.00000000000E+00 -0.55457439586E+03  0.55457439586E+03  0.00000000000E+00 0. -1.
         25    2    1    2    0    0 -0.49453315204E+02 -0.15696995063E+02 -0.32821356771E+03  0.35505472100E+03  0.12509069843E+03 0.  0.
         23    2    1    2    0    0  0.49453315204E+02  0.15696995063E+02 -0.19979694073E+03  0.22608356229E+03  0.92211352742E+02 0.  0.
          5    1    3    3  502    0 -0.29803047436E+02  0.31778941214E+02 -0.31570716538E+02  0.53965778822E+02  0.41800000000E+01 0.  1.
         -5    1    3    3    0  502 -0.19650267768E+02 -0.47475936277E+02 -0.29664285117E+03  0.30108894217E+03  0.41800000000E+01 0.  1.
        -11    1    4    4    0    0  0.34533749773E+02  0.53850247625E+02 -0.10734099571E+03  0.12495806657E+03  0.00000000000E+00 0. -1.
         11    1    4    4    0    0  0.14919565431E+02 -0.38153252563E+02 -0.92455945024E+02  0.10112549572E+03  0.00000000000E+00 0.  1.
</event>
<event>
 8    1  0.7136454E-009  0.1984256E+03  0.7561462E-02  0.1151074E+00
         -1   -1    0    0    0  501 -0.00000000000E+00  0.00000000000E+00  0.90714450581E+02  0.90714450581E+02  0.00000000000E+00 0.  1.
          1   -1    0    0  501    0  0.00000000000E+00 -0.00000000000E+00 -0.47111760244E+03  0.47111760244E+03  0.00000000000E+00 0. -1.
         25    2    1    2    0    0  0.10362944902E+03 -0.13881655302E+03 -0.15842017452E+03  0.26599420588E+03  0.12508744051E+03 0.  0.
         23    2    1    2    0    0 -0.10362944902E+03  0.13881655302E+03 -0.22198297734E+03  0.29583784713E+03  0.90744098822E+02 0.  0.
          5    1    3    3  502    0  0.11123134784E+03 -0.68903563107E+02 -0.57655390466E+02  0.14304450426E+03  0.41800000000E+01 0. -1.
         -5    1    3    3    0  502 -0.76018988180E+01 -0.69912989914E+02 -0.10076478405E+03  0.12294970162E+03  0.41800000000E+01 0. -1.
        -11    1    4    4    0    0 -0.22794069070E+02 -0.10961028017E+02 -0.26154821450E+02  0.36383903104E+02  0.00000000000E+00 0. -1.
         11    1    4    4    0    0 -0.80835379947E+02  0.14977758104E+03 -0.19582815589E+03  0.25945394403E+03  0.00000000000E+00 0.  1.
</event>
<event>
 8    1  0.7136454E-009  0.1857101E+03  0.7561462E-02  0.1162388E+00
         -1   -1    0    0    0  501 -0.00000000000E+00  0.00000000000E+00  0.52974762967E+02  0.52974762967E+02  0.00000000000E+00 0.  1.
          1   -1    0    0  501    0  0.00000000000E+00 -0.00000000000E+00 -0.94602181453E+03  0.94602181453E+03  0.00000000000E+00 0. -1.
         25    2    1    2    0    0 -0.15256373344E+03  0.14233993073E+02 -0.73462239223E+03  0.76078734397E+03  0.12509606013E+03 0.  0.
         23    2    1    2    0    0  0.15256373344E+03 -0.14233993073E+02 -0.15842465933E+03  0.23820923352E+03  0.90371272720E+02 0.  0.
          5    1    3    3  502    0 -0.50575536738E+02  0.65279386733E+02 -0.27158460816E+03  0.28389250614E+03  0.41800000000E+01 0.  1.
         -5    1    3    3    0  502 -0.10198819670E+03 -0.51045393660E+02 -0.46303778407E+03  0.47689483784E+03  0.41800000000E+01 0.  1.
        -11    1    4    4    0    0  0.15037830847E+03  0.95918919064E+01 -0.11863830737E+03  0.19178291901E+03  0.00000000000E+00 0.  1.
         11    1    4    4    0    0  0.21854249699E+01 -0.23825884979E+02 -0.39786351953E+02  0.46426314511E+02  0.00000000000E+00 0. -1.
</event>
<event>
 8    1  0.7136454E-009  0.1694583E+03  0.7561462E-02  0.1178414E+00
          1   -1    0    0  501    0  0.00000000000E+00  0.00000000000E+00  0.30758865431E+03  0.30758865431E+03  0.00000000000E+00 0. -1.
         -1   -1    0    0    0  501 -0.00000000000E+00 -0.00000000000E+00 -0.14468508330E+03  0.14468508330E+03  0.00000000000E+00 0.  1.
         25    2    1    2    0    0 -0.10156431900E+03 -0.10698919780E+03 -0.26119059398E+02  0.19517325275E+03  0.12509354094E+03 0.  0.
         23    2    1    2    0    0  0.10156431900E+03  0.10698919780E+03  0.18902263040E+03  0.25710048487E+03  0.92785263778E+02 0.  0.
          5    1    3    3  502    0  0.60454564508E+01  0.21240246841E+02 -0.15663090032E+02  0.27395262709E+02  0.41800000000E+01 0. -1.
         -5    1    3    3    0  502 -0.10760977545E+03 -0.12822944464E+03 -0.10455969366E+02  0.16777799004E+03  0.41800000000E+01 0. -1.
        -11    1    4    4    0    0  0.74293608876E+02  0.63893107831E+02  0.18051506577E+03  0.20539610152E+03  0.00000000000E+00 0. -1.
         11    1    4    4    0    0  0.27270710120E+02  0.43096089972E+02  0.85075646289E+01  0.51704383347E+02  0.00000000000E+00 0.  1.
</event>
<event>
 8    1  0.7136454E-009  0.7770066E+02  0.7561462E-02  0.1335706E+00
         -1   -1    0    0    0  501 -0.00000000000E+00  0.00000000000E+00  0.24009371822E+02  0.24009371822E+02  0.00000000000E+00 0.  1.
          1   -1    0    0  501    0  0.00000000000E+00 -0.00000000000E+00 -0.64261171673E+03  0.64261171673E+03  0.00000000000E+00 0. -1.
         25    2    1    2    0    0 -0.89707527071E+01 -0.26462463585E+02 -0.49447444949E+03  0.51081643879E+03  0.12509083320E+03 0.  0.
         23    2    1    2    0    0  0.89707527071E+01  0.26462463585E+02 -0.12412789542E+03  0.15580464977E+03  0.89925625299E+02 0.  0.
          5    1    3    3  502    0  0.28234081697E+02  0.13159209918E+02 -0.40377330861E+03  0.40499467320E+03  0.41800000000E+01 0.  1.
         -5    1    3    3    0  502 -0.37204834404E+02 -0.39621673502E+02 -0.90701140882E+02  0.10582176558E+03  0.41800000000E+01 0.  1.
        -11    1    4    4    0    0  0.27488971513E+02 -0.94387457877E+01 -0.10877285103E+03  0.11258892751E+03  0.00000000000E+00 0. -1.
         11    1    4    4    0    0 -0.18518218806E+02  0.35901209372E+02 -0.15355044390E+02  0.43215722259E+02  0.00000000000E+00 0.  1.
</event>
<event>
 8    1  0.7136454E-009  0.1510361E+03  0.7561462E-02  0.1199206E+00
          1   -1    0    0  501    0  0.00000000000E+00  0.00000000000E+00  0.21037595899E+03  0.21037595899E+03  0.00000000000E+00 0. -1.
         -1   -1    0    0    0  501 -0.00000000000E+00 -0.00000000000E+00 -0.17390408949E+03  0.17390408949E+03  0.00000000000E+00 0.  1.
         25    2    1    2    0    0  0.38949918070E+02  0.13535348061E+03 -0.50200164339E+02  0.19494898597E+03  0.12508952715E+03 0.  0.
         23    2    1    2    0    0 -0.38949918070E+02 -0.13535348061E+03  0.86672033833E+02  0.18933106251E+03  0.92176726745E+02 0.  0.
          5    1    3    3  502    0  0.12330188156E+02  0.13264460602E+03 -0.79386834453E+02  0.15513338432E+03  0.41800000000E+01 0. -1.
         -5    1    3    3    0  502  0.26619729913E+02  0.27088745825E+01  0.29186670115E+02  0.39815601647E+02  0.41800000000E+01 0. -1.
        -11    1    4    4    0    0 -0.26862053136E+02 -0.11446443183E+03  0.21091912669E+02  0.11945101436E+03  0.00000000000E+00 0.  1.
         11    1    4    4    0    0 -0.12087864934E+02 -0.20889048779E+02  0.65580121164E+02  0.69880048150E+02  0.00000000000E+00 0. -1.
</event>
<event>
 8    1  0.7136454E-009  0.9947630E+02  0.7561462E-02  0.1281401E+00
         -4   -1    0    0    0  501 -0.00000000000E+00  0.00000000000E+00  0.90836414555E+03  0.90836414555E+03  0.00000000000E+00 0. -1.
          4   -1    0    0  501    0  0.00000000000E+00 -0.00000000000E+00 -0.14266437307E+02  0.14266437307E+02  0.00000000000E+00 0.  1.
         25    2    1    2    0    0 -0.23374169408E+02  0.25763443047E+02  0.55581102206E+03  0.57077315098E+03  0.12508393517E+03 0.  0.
         23    2    1    2    0    0  0.23374169408E+02 -0.25763443047E+02  0.33828668618E+03  0.35185743188E+03  0.90308712360E+02 0.  0.
          5    1    3    3  502    0 -0.23600475308E+02  0.71960449684E+02  0.43096233740E+03  0.43758576006E+03  0.41800000000E+01 0.  1.
         -5    1    3    3    0  502  0.22630590082E+00 -0.46197006637E+02  0.12484868467E+03  0.13318739092E+03  0.41800000000E+01 0.  1.
        -11    1    4    4    0    0  0.15983009048E+02 -0.49417258736E+02  0.30969843547E+03  0.31402331597E+03  0.00000000000E+00 0.  1.
         11    1    4    4    0    0  0.73911603596E+01  0.23653815688E+02  0.28588250712E+02  0.37834115912E+02  0.00000000000E+00 0. -1.
</event>
<event>
 8    1  0.7136454E-009  0.1963122E+03  0.7561462E-02  0.1152888E+00
          1   -1    0    0  501    0  0.00000000000E+00  0.00000000000E+00  0.72369520335E+03  0.72369520335E+03  0.00000000000E+00 0. -1.
         -1   -1    0    0    0  501 -0.00000000000E+00 -0.00000000000E+00 -0.62542579280E+02  0.62542579280E+02  0.00000000000E+00 0.  1.
         25    2    1    2    0    0 -0.16976907902E+03 -0.26640768911E+02  0.22998271043E+03  0.31316336952E+03  0.12509187884E+03 0.  0.
         23    2    1    2    0    0  0.16976907902E+03  0.26640768911E+02  0.43116991365E+03  0.47307441312E+03  0.91436508858E+02 0.  0.
          5    1    3    3  502    0  0.18949480029E+02 -0.48026957194E+01  0.38584138516E+02  0.43455227816E+02  0.41800000000E+01 0.  1.
         -5    1    3    3    0  502 -0.18871855905E+03 -0.21838073192E+02  0.19139857191E+03  0.26970814170E+03  0.41800000000E+01 0.  1.
        -11    1    4    4    0    0  0.11760752894E+03 -0.11241715194E+02  0.19260418463E+03  0.22595193949E+03  0.00000000000E+00 0.  1.
         11    1    4    4    0    0  0.52161550081E+02  0.37882484105E+02  0.23856572901E+03  0.24712247362E+03  0.00000000000E+00 0. -1.
</event>
<event>
 8    1  0.7136454E-009  0.1476740E+03  0.7561462E-02  0.1203361E+00
         -1   -1    0    0    0  501 -0.00000000000E+00  0.00000000000E+00  0.30944459865E+03  0.30944459865E+03  0.00000000000E+00 0.  1.
          1   -1    0    0  501    0  0.00000000000E+00 -0.00000000000E+00 -0.90086618579E+02  0.90086618579E+02  0.00000000000E+00 0. -1.
         25    2    1    2    0    0  0.47699546861E+02  0.95905634700E+02  0.20805069466E+03  0.26534241059E+03  0.12509342816E+03 0.  0.
         23    2    1    2    0    0 -0.47699546861E+02 -0.95905634700E+02  0.11307285412E+02  0.13418880664E+03  0.80035264647E+02 0.  0.
          5    1    3    3  502    0 -0.42289838446E+02  0.21566983877E+02  0.66809454228E+02  0.82064248023E+02  0.41800000000E+01 0. -1.
         -5    1    3    3    0  502  0.89989385307E+02  0.74338650823E+02  0.14124124043E+03  0.18327816256E+03  0.41800000000E+01 0. -1.
        -11    1    4    4    0    0 -0.95521317345E+01  0.12638473263E+02  0.10731904895E+02  0.19134994376E+02  0.00000000000E+00 0.  1.
         11    1    4    4    0    0 -0.38147415127E+02 -0.10854410796E+03  0.57538051676E+00  0.11505381227E+03  0.00000000000E+00 0. -1.
</event>
<event>
 8    1  0.7136454E-009  0.9497702E+02  0.7561462E-02  0.1291228E+00
          1   -1    0    0  501    0  0.00000000000E+00  0.00000000000E+00  0.68293547759E+02  0.68293547759E+02  0.00000000000E+00 0. -1.
         -1   -1    0    0    0  501 -0.00000000000E+00 -0.00000000000E+00 -0.25012779103E+03  0.25012779103E+03  0.00000000000E+00 0.  1.
         25    2    1    2    0    0  0.38674601362E+01  0.51988716233E+01 -0.11818195337E+02  0.12585220666E+03  0.12512842469E+03 0.  0.
         23    2    1    2    0    0 -0.38674601362E+01 -0.51988716233E+01 -0.17001604794E+03  0.19256913213E+03  0.90196610687E+02 0.  0.
          5    1    3    3  502    0 -0.46277893434E+02  0.16197035642E+02 -0.43248662476E+02  0.65512644507E+02  0.41800000000E+01 0. -1.
         -5    1    3    3    0  502  0.50145353571E+02 -0.10998164019E+02  0.31430467138E+02  0.60339562155E+02  0.41800000000E+01 0. -1.
        -11    1    4    4    0    0  0.19554496423E+02 -0.41592195393E+02 -0.71929457330E+02  0.85358865268E+02  0.00000000000E+00 0.  1.
         11    1    4    4    0    0 -0.23421956559E+02  0.36393323769E+02 -0.98086590607E+02  0.10721026686E+03  0.00000000000E+00 0. -1.
</event>
<event>
 8    1  0.7136454E-009  0.7618079E+02  0.7561462E-02  0.1340253E+00
         -1   -1    0    0    0  501 -0.00000000000E+00  0.00000000000E+00  0.40300799451E+02  0.40300799451E+02  0.00000000000E+00 0.  1.
          1   -1    0    0  501    0  0.00000000000E+00 -0.00000000000E+00 -0.41965991470E+03  0.41965991470E+03  0.00000000000E+00 0. -1.
         25    2    1    2    0    0  0.14709679380E+02  0.59854008266E+02 -0.13576964162E+03  0.19462519996E+03  0.12508675349E+03 0.  0.
         23    2    1    2    0    0 -0.14709679380E+02 -0.59854008266E+02 -0.24358947362E+03  0.26533551419E+03  0.85253894098E+02 0.  0.
          5    1    3    3  502    0 -0.44722983980E+01 -0.61814497101E+01  0.21356084389E+02  0.23060063181E+02  0.41800000000E+01 0.  1.
         -5    1    3    3    0  502  0.19181977778E+02  0.66035457976E+02 -0.15712572601E+03  0.17156513677E+03  0.41800000000E+01 0.  1.
        -11    1    4    4    0    0  0.10285710193E+02 -0.42052166861E+00  0.27848385510E+01  0.10664333003E+02  0.00000000000E+00 0.  1.
         11    1    4    4    0    0 -0.24995389573E+02 -0.59433486597E+02 -0.24637431217E+03  0.25467118119E+03  0.00000000000E+00 0. -1.
</event>
<event>
 8    1  0.7136454E-009  0.1059316E+03  0.7561462E-02  0.1268295E+00
         -1   -1    0    0    0  501 -0.00000000000E+00  0.00000000000E+00  0.26393193344E+02  0.26393193344E+02  0.00000000000E+00 0.  1.
          1   -1    0    0  501    0  0.00000000000E+00 -0.00000000000E+00 -0.47732699958E+03  0.47732699958E+03  0.00000000000E+00 0. -1.
         25    2    1    2    0    0  0.53611047240E+01  0.17811618859E+02 -0.18480256522E+03  0.22392573182E+03  0.12507897525E+03 0.  0.
         23    2    1    2    0    0 -0.53611047240E+01 -0.17811618859E+02 -0.26613124102E+03  0.27979446111E+03  0.84339242414E+02 0.  0.
          5    1    3    3  502    0  0.56462319524E+02  0.40805496963E+02 -0.11192174419E+03  0.13189780640E+03  0.41800000000E+01 0. -1.
         -5    1    3    3    0  502 -0.51101214800E+02 -0.22993878105E+02 -0.72880821029E+02  0.92027925426E+02  0.41800000000E+01 0. -1.
        -11    1    4    4    0    0 -0.44650043178E+02 -0.11292736955E+02 -0.15736249481E+03  0.16396373695E+03  0.00000000000E+00 0.  1.
         11    1    4    4    0    0  0.39288938454E+02 -0.65188819038E+01 -0.10876874621E+03  0.11583072415E+03  0.00000000000E+00 0. -1.
</event>
<event>
 8    1  0.7136454E-009  0.1501566E+03  0.7561462E-02  0.1200281E+00
         -2   -1    0    0    0  501 -0.00000000000E+00  0.00000000000E+00  0.69515317652E+02  0.69515317652E+02  0.00000000000E+00 0.  1.
          2   -1    0    0  501    0  0.00000000000E+00 -0.00000000000E+00 -0.39159889746E+03  0.39159889746E+03  0.00000000000E+00 0. -1.
         25    2    1    2    0    0 -0.91291575786E+02  0.80825024422E+02 -0.14187441286E+03  0.22502976423E+03  0.12507281631E+03 0.  0.
         23    2    1    2    0    0  0.91291575786E+02 -0.80825024422E+02 -0.18020916694E+03  0.23608445088E+03  0.91617071099E+02 0.  0.
          5    1    3    3  502    0 -0.37461793658E+02  0.86243702246E+02 -0.26894166168E+02  0.97888358527E+02  0.41800000000E+01 0. -1.
         -5    1    3    3    0  502 -0.53829782128E+02 -0.54186778236E+01 -0.11498024669E+03  0.12714140570E+03  0.41800000000E+01 0. -1.
        -11    1    4    4    0    0  0.10991809416E+03 -0.71186611103E+02 -0.16199087496E+03  0.20830401963E+03  0.00000000000E+00 0. -1.
         11    1    4    4    0    0 -0.18626518371E+02 -0.96384133187E+01 -0.18218291980E+02  0.27780431253E+02  0.00000000000E+00 0.  1.
</event>
<event>
 8    1  0.7136454E-009  0.1607957E+03  0.7561462E-02  0.1187801E+00
          1   -1    0    0  501    0  0.00000000000E+00  0.00000000000E+00  0.54374199914E+02  0.54374199914E+02  0.00000000000E+00 0. -1.
         -1   -1    0    0    0  501 -0.00000000000E+00 -0.00000000000E+00 -0.52354107857E+03  0.52354107857E+03  0.00000000000E+00 0.  1.
         25    2    1    2    0    0 -0.62941266131E+02  0.10438869787E+03 -0.21261548510E+03  0.27515488192E+03  0.12508501635E+03 0.  0.
         23    2    1    2    0    0  0.62941266131E+02 -0.10438869787E+03 -0.25655139356E+03  0.30276039656E+03  0.10481715970E+03 0.  0.
          5    1    3    3  502    0  0.35720876946E+02  0.50963357688E+02 -0.76886992271E+02  0.99006701071E+02  0.41800000000E+01 0.  1.
         -5    1    3    3    0  502 -0.98662143078E+02  0.53425340180E+02 -0.13572849283E+03  0.17614818085E+03  0.41800000000E+01 0.  1.
        -11    1    4    4    0    0  0.27087644102E+02 -0.10758594734E+03 -0.12860121839E+03  0.16984330985E+03  0.00000000000E+00 0. -1.
         11    1    4    4    0    0  0.35853622030E+02  0.31972494724E+01 -0.12795017516E+03  0.13291708671E+03  0.00000000000E+00 0.  1.
</event>
<event>
 8    1  0.7136454E-009  0.1678791E+03  0.7561462E-02  0.1180078E+00
         -2   -1    0    0    0  501 -0.00000000000E+00  0.00000000000E+00  0.54325721906E+02  0.54325721906E+02  0.00000000000E+00 0.  1.
          2   -1    0    0  501    0  0.00000000000E+00 -0.00000000000E+00 -0.56757997734E+03  0.56757997734E+03  0.00000000000E+00 0. -1.
         25    2    1    2    0    0  0.10958530199E+03  0.73205182956E+02 -0.34054072230E+03  0.38598163610E+03  0.12508358262E+03 0.  0.
         23    2    1    2    0    0 -0.10958530199E+03 -0.73205182956E+02 -0.17271353314E+03  0.23592406315E+03  0.91990552879E+02 0.  0.
          5    1    3    3  502    0  0.79562794328E+02 -0.20978809239E+02 -0.14257634143E+03  0.16466886231E+03  0.41800000000E+01 0. -1.
         -5    1    3    3    0  502  0.30022507660E+02  0.94183992195E+02 -0.19796438086E+03  0.22131277379E+03  0.41800000000E+01 0. -1.
        -11    1    4    4    0    0 -0.11236094938E+03 -0.85899230498E+02 -0.13302703604E+03  0.19416450001E+03  0.00000000000E+00 0. -1.
         11    1    4    4    0    0  0.27756473944E+01  0.12694047541E+02 -0.39686497101E+02  0.41759563139E+02  0.00000000000E+00 0.  1.
</event>
<event>
 8    1  0.7136454E-009  0.1162078E+03  0.7561462E-02  0.1249487E+00
          1   -1    0    0  501    0  0.00000000000E+00  0.00000000000E+00  0.11321341487E+02  0.11321341487E+02  0.00000000000E+00 0. -1.
         -1   -1    0    0    0  501 -0.00000000000E+00 -0.00000000000E+00 -0.15282247162E+04  0.15282247162E+04  0.00000000000E+00 0.  1.
         25    2    1    2    0    0 -0.33451253951E+02  0.36434775380E+02 -0.11836125757E+04  0.11912317756E+04  0.12509170422E+03 0.  0.
         23    2    1    2    0    0  0.33451253951E+02 -0.36434775380E+02 -0.33329079905E+03  0.34831428218E+03  0.88281386437E+02 0.  0.
          5    1    3    3  502    0 -0.74524694469E+02 -0.63750806795E+01 -0.63389508018E+03  0.63830636595E+03  0.41800000000E+01 0. -1.
         -5    1    3    3    0  502  0.41073440519E+02  0.42809856060E+02 -0.54971749553E+03  0.55292540960E+03  0.41800000000E+01 0. -1.
        -11    1    4    4    0    0  0.13029335270E+02 -0.63105367472E+02 -0.17468901351E+03  0.18619425991E+03  0.00000000000E+00 0. -1.
         11    1    4    4    0    0  0.20421918680E+02  0.26670592092E+02 -0.15860178554E+03  0.16212002227E+03  0.00000000000E+00 0.  1.
</event>
<event>
 8    1  0.7136454E-009  0.1000440E+03  0.7561462E-02  0.1280203E+00
          2   -1    0    0  501    0  0.00000000000E+00  0.00000000000E+00  0.40318675656E+03  0.40318675656E+03  0.00000000000E+00 0.  1.
         -2   -1    0    0    0  501 -0.00000000000E+00 -0.00000000000E+00 -0.35443337350E+02  0.35443337350E+02  0.00000000000E+00 0. -1.
         25    2    1    2    0    0  0.14844464138E+02  0.15607747503E+02  0.15924061922E+03  0.20364015984E+03  0.12509108678E+03 0.  0.
         23    2    1    2    0    0 -0.14844464138E+02 -0.15607747503E+02  0.20850279998E+03  0.23498993407E+03  0.10622095657E+03 0.  0.
          5    1    3    3  502    0  0.52137029563E+02  0.30923485324E+02  0.29170235742E+02  0.67401089379E+02  0.41800000000E+01 0. -1.
         -5    1    3    3    0  502 -0.37292565425E+02 -0.15315737822E+02  0.13007038348E+03  0.13623907046E+03  0.41800000000E+01 0. -1.
        -11    1    4    4    0    0 -0.54470352295E+02 -0.21832948807E+02  0.16813608620E+03  0.17808267860E+03  0.00000000000E+00 0.  1.
         11    1    4    4    0    0  0.39625888157E+02  0.62252013044E+01  0.40366713782E+02  0.56907255470E+02  0.00000000000E+00 0. -1.
</event>
<event>
 8    1  0.7136454E-009  0.1524406E+03  0.7561462E-02  0.1197506E+00
          1   -1    0    0  501    0  0.00000000000E+00  0.00000000000E+00  0.24987500589E+02  0.24987500589E+02  0.00000000000E+00 0. -1.
         -1   -1    0    0    0  501 -0.00000000000E+00 -0.00000000000E+00 -0.11990262618E+04  0.11990262618E+04  0.00000000000E+00 0.  1.
         25    2    1    2    0    0 -0.66323603770E+02  0.11669712284E+03 -0.63645009848E+03  0.66236960591E+03  0.12509087927E+03 0.  0.
         23    2    1    2    0    0  0.66323603770E+02 -0.11669712284E+03 -0.53758866271E+03  0.56164415646E+03  0.91790791021E+02 0.  0.
          5    1    3    3  502    0 -0.15169075702E+02 -0.40884917869E+00 -0.32921695405E+03  0.32959299636E+03  0.41800000000E+01 0. -1.
         -5    1    3    3    0  502 -0.51154528067E+02  0.11710597202E+03 -0.30723314443E+03  0.33277660954E+03  0.41800000000E+01 0. -1.
        -11    1    4    4    0    0 -0.21395877677E+02 -0.11432886362E+02 -0.10974701287E+03  0.11239618012E+03  0.00000000000E+00 0.  1.
         11    1    4    4    0    0  0.87719481447E+02 -0.10526423648E+03 -0.42784164984E+03  0.44924797633E+03  0.00000000000E+00 0. -1.
</event>
<event>
 8    1  0.7136454E-009  0.1793698E+03  0.7561462E-02  0.1168414E+00
         -2   -1    0    0    0  501 -0.00000000000E+00  0.00000000000E+00  0.59154758836E+03  0.59154758836E+03  0.00000000000E+00 0.  1.
          2   -1    0    0  501    0  0.00000000000E+00 -0.00000000000E+00 -0.78163865957E+02  0.78163865957E+02  0.00000000000E+00 0. -1.
         25    2    1    2    0    0 -0.77950379969E+02 -0.13768713909E+03  0.41808863385E+03  0.46419709434E+03  0.12508727603E+03 0.  0.
         23    2    1    2    0    0  0.77950379969E+02  0.13768713909E+03  0.95295088550E+02  0.20551435998E+03  0.90116525947E+02 0.  0.
          5    1    3    3  502    0  0.23658182851E+02  0.57356829468E+01  0.36749189556E+02  0.44278471153E+02  0.41800000000E+01 0.  1.
         -5    1    3    3    0  502 -0.10160856282E+03 -0.14342282204E+03  0.38133944430E+03  0.41991862318E+03  0.41800000000E+01 0.  1.
        -11    1    4    4    0    0  0.25077561384E+02  0.43872568744E+02  0.82936848088E+02  0.97119550781E+02  0.00000000000E+00 0.  1.
         11    1    4    4    0    0  0.52872818585E+02  0.93814570345E+02  0.12358240462E+02  0.10839480920E+03  0.00000000000E+00 0. -1.
</event>
<event>
 7    1  0.7136454E-009  0.1127893E+03  0.7561462E-02  0.1255490E+00
         -3   -1    0    0    0  501 -0.00000000000E+00  0.00000000000E+00  0.31026430700E+03  0.31026430700E+03  0.00000000000E+00 0.  1.
          3   -1    0    0  501    0  0.00000000000E+00 -0.00000000000E+00 -0.55696300628E+02  0.55696300628E+02  0.00000000000E+00 0. -1.
         23    2    1    2    0    0  0.42978079513E+02  0.52710620495E+02  0.73787412530E+02  0.13588913487E+03  0.91628324743E+02 0.  0.
          5    1    1    2  502    0 -0.27215682307E+02 -0.82186398743E+02  0.61898989626E+02  0.10650941188E+03  0.41800000000E+01 0.  1.
         -5    1    1    2    0  502 -0.15762397206E+02  0.29475778248E+02  0.11888160422E+03  0.12356206088E+03  0.41800000000E+01 0.  1.
        -11    1    3    3    0    0  0.12319910709E+02 -0.21579589723E+02 -0.26333496694E+01  0.24987865514E+02  0.00000000000E+00 0. -1.
         11    1    3    3    0    0  0.30658168804E+02  0.74290210218E+02  0.76420762199E+02  0.11090126935E+03  0.00000000000E+00 0.  1.
</event>
<event>
 8    1  0.7136454E-009  0.9628608E+02  0.7561462E-02  0.1288305E+00
         -2   -1    0    0    0  501 -0.00000000000E+00  0.00000000000E+00  0.35050640495E+02  0.35050640495E+02  0.00000000000E+00 0. -1.
          2   -1    0    0  501    0  0.00000000000E+00 -0.00000000000E+00 -0.34978671714E+03  0.34978671714E+03  0.00000000000E+00 0.  1.
         25    2    1    2    0    0  0.16126610493E+02 -0.38828979883E+02 -0.22055260932E+03  0.25701857790E+03  0.12508932274E+03 0.  0.
         23    2    1    2    0    0 -0.16126610493E+02  0.38828979883E+02 -0.94183467321E+02  0.12781877973E+03  0.75494090432E+02 0.  0.
          5    1    3    3  502    0 -0.22998516279E+02  0.28130223385E+02 -0.14168793943E+03  0.14633244957E+03  0.41800000000E+01 0.  1.
         -5    1    3    3    0  502  0.39125126772E+02 -0.66959203268E+02 -0.78864669894E+02  0.11068612833E+03  0.41800000000E+01 0.  1.
        -11    1    4    4    0    0 -0.40101462767E+01  0.56645178879E+02 -0.39864041145E+02  0.69382269636E+02  0.00000000000E+00 0. -1.
         11    1    4    4    0    0 -0.12116464216E+02 -0.17816198996E+02 -0.54319426176E+02  0.58436510093E+02  0.00000000000E+00 0.  1.
</event>
<event>
 8    1  0.7136454E-009  0.7598412E+02  0.7561462E-02  0.1340850E+00
         -1   -1    0    0    0  501 -0.00000000000E+00  0.00000000000E+00  0.82013446997E+02  0.82013446997E+02  0.00000000000E+00 0.  1.
          1   -1    0    0  501    0  0.00000000000E+00 -0.00000000000E+00 -0.16042498928E+03  0.16042498928E+03  0.00000000000E+00 0. -1.
         25    2    1    2    0    0 -0.68846782674E+01  0.30953057347E+02 -0.69056610550E+02  0.14636857948E+03  0.12509778193E+03 0.  0.
         23    2    1    2    0    0  0.68846782674E+01 -0.30953057347E+02 -0.93549317362E+01  0.96069856798E+02  0.90202062523E+02 0.  0.
          5    1    3    3  502    0  0.39576264757E+02  0.53533954472E+02 -0.66935498408E+02  0.94498668566E+02  0.41800000000E+01 0. -1.
         -5    1    3    3    0  502 -0.46460943025E+02 -0.22580897125E+02 -0.21211121422E+01  0.51869910916E+02  0.41800000000E+01 0. -1.
        -11    1    4    4    0    0 -0.14715509889E+01 -0.17749979138E+02 -0.49705158859E+02  0.52799905671E+02  0.00000000000E+00 0. -1.
         11    1    4    4    0    0  0.83562292563E+01 -0.13203078210E+02  0.40350227123E+02  0.43269951126E+02  0.00000000000E+00 0.  1.
</event>
<event>
 8    1  0.7136454E-009  0.1543255E+03  0.7561462E-02  0.1195256E+00
         -2   -1    0    0    0  501 -0.00000000000E+00  0.00000000000E+00  0.61620010816E+02  0.61620010816E+02  0.00000000000E+00 0.  1.
          2   -1    0    0  501    0  0.00000000000E+00 -0.00000000000E+00 -0.54244809806E+03  0.54244809806E+03  0.00000000000E+00 0. -1.
         25    2    1    2    0    0  0.94596596835E+02 -0.10667049394E+03 -0.31230751843E+03  0.36539063835E+03  0.12508885689E+03 0.  0.
         23    2    1    2    0    0 -0.94596596835E+02  0.10667049394E+03 -0.16852056882E+03  0.23867747053E+03  0.90777984196E+02 0.  0.
          5    1    3    3  502    0  0.78562377626E+02 -0.82225001322E+02 -0.10138874334E+03  0.15241439465E+03  0.41800000000E+01 0. -1.
         -5    1    3    3    0  502  0.16034219210E+02 -0.24445492613E+02 -0.21091877509E+03  0.21297624370E+03  0.41800000000E+01 0. -1.
        -11    1    4    4    0    0 -0.55834421658E+02  0.44684932610E+01 -0.81845080098E+02  0.99176948986E+02  0.00000000000E+00 0. -1.
         11    1    4    4    0    0 -0.38762175177E+02  0.10220200067E+03 -0.86675488723E+02  0.13950052155E+03  0.00000000000E+00 0.  1.
</event>
<event>
 8    1  0.7136454E-009  0.1312229E+03  0.7561462E-02  0.1225652E+00
          2   -1    0    0  501    0  0.00000000000E+00  0.00000000000E+00  0.11984136344E+04  0.11984136344E+04  0.00000000000E+00 0. -1.
         -2   -1    0    0    0  501 -0.00000000000E+00 -0.00000000000E+00 -0.17128212617E+02  0.17128212617E+02  0.00000000000E+00 0.  1.
         25    2    1    2    0    0 -0.57438684006E+02 -0.77581283807E+02  0.59893964819E+03  0.61943068034E+03  0.12509039754E+03 0.  0.
         23    2    1    2    0    0  0.57438684006E+02  0.77581283807E+02  0.58234577359E+03  0.59611116667E+03  0.83089499925E+02 0.  0.
          5    1    3    3  502    0 -0.55578465088E+02 -0.99237638700E+02  0.57752126341E+03  0.58863006788E+03  0.41800000000E+01 0. -1.
         -5    1    3    3    0  502 -0.18602189179E+01  0.21656354893E+02  0.21418384779E+02  0.30800612465E+02  0.41800000000E+01 0. -1.
        -11    1    4    4    0    0  0.59508452456E+02  0.11784534996E+02  0.24465766502E+03  0.25206646789E+03  0.00000000000E+00 0.  1.
         11    1    4    4    0    0 -0.20697684498E+01  0.65796748811E+02  0.33768810856E+03  0.34404469878E+03  0.00000000000E+00 0. -1.
</event>
<event>
 8    1  0.7136454E-009  0.1823858E+03  0.7561462E-02  0.1165514E+00
         -1   -1    0    0    0  501 -0.00000000000E+00  0.00000000000E+00  0.59955823059E+03  0.59955823059E+03  0.00000000000E+00 0.  1.
          1   -1    0    0  501    0  0.00000000000E+00 -0.00000000000E+00 -0.67540783285E+02  0.67540783285E+02  0.00000000000E+00 0. -1.
         25    2    1    2    0    0  0.42728530437E+02  0.16054430068E+03  0.22526929539E+03  0.30658410796E+03  0.12508940809E+03 0.  0.
         23    2    1    2    0    0 -0.42728530437E+02 -0.16054430068E+03  0.30674815192E+03  0.36051490592E+03  0.90974550777E+02 0.  0.
          5    1    3    3  502    0 -0.28273716707E+02  0.10019051404E+03  0.16625300140E+03  0.19620161833E+03  0.41800000000E+01 0.  1.
         -5    1    3    3    0  502  0.71002247144E+02  0.60353786635E+02  0.59016293987E+02  0.11038248963E+03  0.41800000000E+01 0.  1.
        -11    1    4    4    0    0 -0.18157734799E+02 -0.35573981566E+02  0.16581953983E+03  0.17056181075E+03  0.00000000000E+00 0. -1.
         11    1    4    4    0    0 -0.24570795638E+02 -0.12497031911E+03  0.14092861208E+03  0.18995309516E+03  0.00000000000E+00 0.  1.
</event>
<event>
 8    1  0.7136454E-009  0.1036979E+03  0.7561462E-02  0.1272707E+00
         -1   -1    0    0    0  501 -0.00000000000E+00  0.00000000000E+00  0.69826180492E+02  0.69826180492E+02  0.00000000000E+00 0.  1.
          1   -1    0    0  501    0  0.00000000000E+00 -0.00000000000E+00 -0.16083188557E+03  0.16083188557E+03  0.00000000000E+00 0. -1.
         25    2    1    2    0    0 -0.13988119068E+02 -0.56368397056E+01 -0.34845272359E+02  0.13071410413E+03  0.12507814587E+03 0.  0.
         23    2    1    2    0    0  0.13988119068E+02  0.56368397056E+01 -0.56160432723E+02  0.99943961939E+02  0.81285668401E+02 0.  0.
          5    1    3    3  502    0  0.55134892045E+02 -0.45948006637E+01 -0.24640882537E+02  0.60709257993E+02  0.41800000000E+01 0.  1.
         -5    1    3    3    0  502 -0.69123011113E+02 -0.10420390419E+01 -0.10204389823E+02  0.70004846135E+02  0.41800000000E+01 0.  1.
        -11    1    4    4    0    0  0.20967585641E+01 -0.37678608243E+02 -0.24606040671E+02  0.45050318013E+02  0.00000000000E+00 0. -1.
         11    1    4    4    0    0  0.11891360504E+02  0.43315447948E+02 -0.31554392052E+02  0.54893643925E+02  0.00000000000E+00 0.  1.
</event>
<event>
 8    1  0.7136454E-009  0.1028649E+03  0.7561462E-02  0.1274384E+00
          3   -1    0    0  501    0  0.00000000000E+00  0.00000000000E+00  0.24454733304E+03  0.24454733304E+03  0.00000000000E+00 0. -1.
         -3   -1    0    0    0  501 -0.00000000000E+00 -0.00000000000E+00 -0.49257636221E+02  0.49257636221E+02  0.00000000000E+00 0.  1.
         25    2    1    2    0    0 -0.44987273872E+01  0.15626031079E+02  0.12290717160E+03  0.17612026686E+03  0.12509102355E+03 0.  0.
         23    2    1    2    0    0  0.44987273872E+01 -0.15626031079E+02  0.72382525215E+02  0.11768470240E+03  0.91356706525E+02 0.  0.
          5    1    3    3  502    0 -0.26511325734E+02  0.65357395117E+02  0.58575379488E+02  0.91776832430E+02  0.41800000000E+01 0. -1.
         -5    1    3    3    0  502  0.22012598346E+02 -0.49731364037E+02  0.64331792116E+02  0.84343434432E+02  0.41800000000E+01 0. -1.
        -11    1    4    4    0    0 -0.74500070707E+01 -0.46672920991E+02  0.69828306907E+02  0.84319965634E+02  0.00000000000E+00 0. -1.
         11    1    4    4    0    0  0.11948734458E+02  0.31046889911E+02  0.25542183088E+01  0.33364736766E+02  0.00000000000E+00 0.  1.
</event>
<event>
 8    1  0.7136454E-009  0.1245412E+03  0.7561462E-02  0.1235788E+00
         -2   -1    0    0    0  501 -0.00000000000E+00  0.00000000000E+00  0.11100688541E+04  0.11100688541E+04  0.00000000000E+00 0. -1.
          2   -1    0    0  501    0  0.00000000000E+00 -0.00000000000E+00 -0.50224908673E+02  0.50224908673E+02  0.00000000000E+00 0.  1.
         25    2    1    2    0    0 -0.31038551197E+02 -0.10731105621E+03  0.98842229695E+03  0.10025490198E+04  0.12508735165E+03 0.  0.
         23    2    1    2    0    0  0.31038551197E+02  0.10731105621E+03  0.71421648449E+02  0.15774474295E+03  0.85459333114E+02 0.  0.
          5    1    3    3  502    0 -0.45617381940E+02 -0.98674995782E+02  0.97357776117E+03  0.97963709086E+03  0.41800000000E+01 0. -1.
         -5    1    3    3    0  502  0.14578830743E+02 -0.86360604236E+01  0.14844535779E+02  0.22911928944E+02  0.41800000000E+01 0. -1.
        -11    1    4    4    0    0  0.44987378959E+02  0.72313613115E+02  0.82400329689E+02  0.11850289971E+03  0.00000000000E+00 0. -1.
         11    1    4    4    0    0 -0.13948827762E+02  0.34997443091E+02 -0.10978681240E+02  0.39241843236E+02  0.00000000000E+00 0.  1.
</event>
<event>
 8    1  0.7136454E-009  0.7857000E+02  0.7561462E-02  0.1333159E+00
         -1   -1    0    0    0  501 -0.00000000000E+00  0.00000000000E+00  0.60090977618E+02  0.60090977618E+02  0.00000000000E+00 0.  1.
          1   -1    0    0  501    0  0.00000000000E+00 -0.00000000000E+00 -0.19884076098E+03  0.19884076098E+03  0.00000000000E+00 0. -1.
         25    2    1    2    0    0  0.10201855302E+02 -0.28654099003E+01 -0.72113203015E+02  0.14477604095E+03  0.12508996585E+03 0.  0.
         23    2    1    2    0    0 -0.10201855302E+02  0.28654099003E+01 -0.66636580347E+02  0.11415569765E+03  0.92080405302E+02 0.  0.
          5    1    3    3  502    0  0.18821335498E+02 -0.41945145510E+02 -0.89685763856E+02  0.10086945296E+03  0.41800000000E+01 0.  1.
         -5    1    3    3    0  502 -0.86194801953E+01  0.39079735610E+02  0.17572560840E+02  0.43906587987E+02  0.41800000000E+01 0.  1.
        -11    1    4    4    0    0 -0.28090228274E+02 -0.25014785033E+02  0.22888295993E+01  0.37683406635E+02  0.00000000000E+00 0.  1.
         11    1    4    4    0    0  0.17888372972E+02  0.27880194933E+02 -0.68925409947E+02  0.76472291017E+02  0.00000000000E+00 0. -1.
</event>
<event>
 8    1  0.7136454E-009  0.1495959E+03  0.7561462E-02  0.1200970E+00
         -1   -1    0    0    0  501 -0.00000000000E+00  0.00000000000E+00  0.30982157191E+02  0.30982157191E+02  0.00000000000E+00 0.  1.
          1   -1    0    0  501    0  0.00000000000E+00 -0.00000000000E+00 -0.88566669611E+03  0.88566669611E+03  0.00000000000E+00 0. -1.
         25    2    1    2    0    0  0.11864328813E+02  0.12433082401E+03 -0.44134057246E+03  0.47542406657E+03  0.12509047155E+03 0.  0.
         23    2    1    2    0    0 -0.11864328813E+02 -0.12433082401E+03 -0.41334396646E+03  0.44122478674E+03  0.90703702924E+02 0.  0.
          5    1    3    3  502    0 -0.36254491288E+02  0.10318003569E+03 -0.19604479589E+03  0.22452514847E+03  0.41800000000E+01 0. -1.
         -5    1    3    3    0  502  0.48118820102E+02  0.21150788322E+02 -0.24529577658E+03  0.25089891809E+03  0.41800000000E+01 0. -1.
        -11    1    4    4    0    0  0.15272764337E+02 -0.73811187702E+01 -0.85372030344E+01  0.18990052145E+02  0.00000000000E+00 0.  1.
         11    1    4    4    0    0 -0.27137093151E+02 -0.11694970524E+03 -0.40480676343E+03  0.42223473459E+03  0.00000000000E+00 0. -1.
</event>
<event>
 7    1  0.7136454E-009  0.9437494E+02  0.7561462E-02  0.1292590E+00
         -2   -1    0    0    0  501 -0.00000000000E+00  0.00000000000E+00  0.11419198488E+03  0.11419198488E+03  0.00000000000E+00 0.  1.
          2   -1    0    0  501    0  0.00000000000E+00 -0.00000000000E+00 -0.13408859031E+03  0.13408859031E+03  0.00000000000E+00 0. -1.
         25    2    1    2    0    0  0.17450507553E+02  0.64481073340E+02  0.38906576668E+02  0.14704843025E+03  0.12508872890E+03 0.  0.
          5    1    3    3  502    0  0.62004110531E+01 -0.27838397342E+02  0.45343203391E+02  0.53729879561E+02  0.41800000000E+01 0.  1.
         -5    1    3    3    0  502  0.11250096500E+02  0.92319470683E+02 -0.64366267230E+01  0.93318550685E+02  0.41800000000E+01 0.  1.
        -11    1    1    2    0    0 -0.31514187749E+01 -0.14720196803E+02  0.77340714662E+01  0.16924287153E+02  0.00000000000E+00 0.  1.
         11    1    1    2    0    0 -0.14299088778E+02 -0.49760876538E+02 -0.66537253566E+02  0.84307857794E+02  0.00000000000E+00 0. -1.
</event>
<event>
 8    1  0.7136454E-009  0.1386914E+03  0.7561462E-02  0.1215101E+00
          3   -1    0    0  501    0  0.00000000000E+00  0.00000000000E+00  0.98859446020E+03  0.98859446020E+03  0.00000000000E+00 0. -1.
         -3   -1    0    0    0  501 -0.00000000000E+00 -0.00000000000E+00 -0.32587643117E+02  0.32587643117E+02  0.00000000000E+00 0.  1.
         25    2    1    2    0    0  0.11703000738E+03 -0.71110980869E+02  0.40510108012E+03  0.44554220597E+03  0.12509267747E+03 0.  0.
         23    2    1    2    0    0 -0.11703000738E+03  0.71110980869E+02  0.55090573696E+03  0.57563989735E+03  0.95453476474E+02 0.  0.
          5    1    3    3  502    0  0.87663581587E+02 -0.59742908306E+02  0.39939826595E+03  0.41326815250E+03  0.41800000000E+01 0.  1.
         -5    1    3    3    0  502  0.29366425797E+02 -0.11368072563E+02  0.57028141743E+01  0.32274053470E+02  0.41800000000E+01 0.  1.
        -11    1    4    4    0    0 -0.83935881475E+02  0.36396988908E+02  0.48818260191E+03  0.49668121145E+03  0.00000000000E+00 0. -1.
         11    1    4    4    0    0 -0.33094125909E+02  0.34713991961E+02  0.62723135049E+02  0.78958685893E+02  0.00000000000E+00 0.  1.
</event>
<event>
 8    1  0.7136454E-009  0.9225909E+02  0.7561462E-02  0.1297471E+00
          2   -1    0    0  501    0  0.00000000000E+00  0.00000000000E+00  0.17488683206E+04  0.17488683206E+04  0.00000000000E+00 0. -1.
         -2   -1    0    0    0  501 -0.00000000000E+00 -0.00000000000E+00 -0.14753737120E+02  0.14753737120E+02  0.00000000000E+00 0.  1.
         25    2    1    2    0    0  0.23835948318E+02 -0.13993023254E+02  0.15546252828E+04  0.15598939537E+04  0.12508165265E+03 0.  0.
         23    2    1    2    0    0 -0.23835948318E+02  0.13993023254E+02  0.17948930065E+03  0.20372810396E+03  0.92329703581E+02 0.  0.
          5    1    3    3  502    0  0.38309451322E+02 -0.41733119507E+02  0.32939513617E+03  0.33425722947E+03  0.41800000000E+01 0. -1.
         -5    1    3    3    0  502 -0.14473503004E+02  0.27740096253E+02  0.12252301466E+04  0.12256367243E+04  0.41800000000E+01 0. -1.
        -11    1    4    4    0    0 -0.82895619819E+01  0.53266855981E+02  0.93585720801E+02  0.10800167555E+03  0.00000000000E+00 0. -1.
         11    1    4    4    0    0 -0.15546386336E+02 -0.39273832727E+02  0.85903579849E+02  0.95726428410E+02  0.00000000000E+00 0.  1.
</event>
<event>
 8    1  0.7136454E-009  0.1554531E+03  0.7561462E-02  0.1193928E+00
         -1   -1    0    0    0  501 -0.00000000000E+00  0.00000000000E+00  0.29326500030E+02  0.29326500030E+02  0.00000000000E+00 0.  1.
          1   -1    0    0  501    0  0.00000000000E+00 -0.00000000000E+00 -0.93003334630E+03  0.93003334630E+03  0.00000000000E+00 0. -1.
         25    2    1    2    0    0 -0.21486931971E+02 -0.12224508626E+03 -0.41726185938E+03  0.45294578654E+03  0.12508747694E+03 0.  0.
         23    2    1    2    0    0  0.21486931971E+02  0.12224508626E+03 -0.48344498689E+03  0.50641405979E+03  0.85618895394E+02 0.  0.
          5    1    3    3  502    0 -0.45363186183E+02  0.29662865858E+01 -0.15037411277E+03  0.15715108561E+03  0.41800000000E+01 0. -1.
         -5    1    3    3    0  502  0.23876254211E+02 -0.12521137285E+03 -0.26688774661E+03  0.29579470093E+03  0.41800000000E+01 0. -1.
        -11    1    4    4    0    0  0.42165859376E+02  0.72913663110E+02 -0.38766732852E+03  0.39671188483E+03  0.00000000000E+00 0. -1.
         11    1    4    4    0    0 -0.20678927404E+02  0.49331423152E+02 -0.95777658367E+02  0.10970217496E+03  0.00000000000E+00 0.  1.
</event>
<event>
 8    1  0.7136454E-009  0.1968371E+03  0.7561462E-02  0.1152435E+00
          2   -1    0    0  501    0  0.00000000000E+00  0.00000000000E+00  0.14973747056E+04  0.14973747056E+04  0.00000000000E+00 0. -1.
         -2   -1    0    0    0  501 -0.00000000000E+00 -0.00000000000E+00 -0.38071822865E+02  0.38071822865E+02  0.00000000000E+00 0.  1.
         25    2    1    2    0    0 -0.15746031895E+03 -0.50862399310E+02  0.11901874018E+04  0.12081281886E+04  0.12508770077E+03 0.  0.
         23    2    1    2    0    0  0.15746031895E+03  0.50862399310E+02  0.26911548085E+03  0.32731833982E+03  0.85635377290E+02 0.  0.
          5    1    3    3  502    0 -0.17744207987E+03 -0.56390940713E+02  0.10764153736E+04  0.10924070481E+04  0.41800000000E+01 0. -1.
         -5    1    3    3    0  502  0.19981760922E+02  0.55285414038E+01  0.11377202825E+03  0.11572114047E+03  0.41800000000E+01 0. -1.
        -11    1    4    4    0    0  0.73817112406E+02 -0.20205423478E+02  0.10783345351E+03  0.13223191338E+03  0.00000000000E+00 0.  1.
         11    1    4    4    0    0  0.83643206540E+02  0.71067822787E+02  0.16128202734E+03  0.19508642644E+03  0.00000000000E+00 0. -1.
</event>
<event>
 8    1  0.7136454E-009  0.1458311E+03  0.7561462E-02  0.1205691E+00
          1   -1    0    0  501    0  0.00000000000E+00  0.00000000000E+00  0.19814239646E+03  0.19814239646E+03  0.00000000000E+00 0. -1.
         -1   -1    0    0    0  501 -0.00000000000E+00 -0.00000000000E+00 -0.15153014083E+03  0.15153014083E+03  0.00000000000E+00 0.  1.
         25    2    1    2    0    0  0.78916259280E+02 -0.72278794012E+02  0.10559317389E+03  0.19557041924E+03  0.12508345401E+03 0.  0.
         23    2    1    2    0    0 -0.78916259280E+02  0.72278794012E+02 -0.58980918253E+02  0.15410211805E+03  0.93897359007E+02 0.  0.
          5    1    3    3  502    0  0.11248456375E+03 -0.64391826316E+02  0.79266109008E+02  0.15198576518E+03  0.41800000000E+01 0. -1.
         -5    1    3    3    0  502 -0.33568304472E+02 -0.78869676957E+01  0.26327064881E+02  0.43584654063E+02  0.41800000000E+01 0. -1.
        -11    1    4    4    0    0 -0.81447251761E+02  0.32984182444E+02 -0.59811727462E+01  0.88076021358E+02  0.00000000000E+00 0.  1.
         11    1    4    4    0    0  0.25309924807E+01  0.39294611568E+02 -0.52999745506E+02  0.66026096696E+02  0.00000000000E+00 0. -1.
</event>
<event>
 8    1  0.7136454E-009  0.9634072E+02  0.7561462E-02  0.1288185E+00
          4   -1    0    0  501    0  0.00000000000E+00  0.00000000000E+00  0.11530996362E+03  0.11530996362E+03  0.00000000000E+00 0. -1.
         -4   -1    0    0    0  501 -0.00000000000E+00 -0.00000000000E+00 -0.14410988172E+03  0.14410988172E+03  0.00000000000E+00 0.  1.
         25    2    1    2    0    0  0.37303991611E+02 -0.74742253103E+01 -0.75305381030E+02  0.15088285341E+03  0.12508910107E+03 0.  0.
         23    2    1    2    0    0 -0.37303991611E+02  0.74742253103E+01  0.46505462926E+02  0.10853699193E+03  0.90388432342E+02 0.  0.
          5    1    3    3  502    0  0.26425682522E+02 -0.50010824738E+02 -0.88262418675E+02  0.10491485232E+03  0.41800000000E+01 0.  1.
         -5    1    3    3    0  502  0.10878309090E+02  0.42536599427E+02  0.12957037646E+02  0.45968001088E+02  0.41800000000E+01 0.  1.
        -11    1    4    4    0    0 -0.18955725196E+02 -0.38196379624E+02  0.40752366134E+02  0.58983372908E+02  0.00000000000E+00 0. -1.
         11    1    4    4    0    0 -0.18348266415E+02  0.45670604935E+02  0.57530967923E+01  0.49553619023E+02  0.00000000000E+00 0.  1.
</event>
<event>
 8    1  0.7136454E-009  0.8146722E+02  0.7561462E-02  0.1324939E+00
          2   -1    0    0  501    0  0.00000000000E+00  0.00000000000E+00  0.35155679710E+03  0.35155679710E+03  0.00000000000E+00 0. -1.
         -2   -1    0    0    0  501 -0.00000000000E+00 -0.00000000000E+00 -0.52695974935E+02  0.52695974935E+02  0.00000000000E+00 0.  1.
         25    2    1    2    0    0  0.65992886202E+02  0.44827435496E+02  0.19259857594E+03  0.24312015692E+03  0.12509452123E+03 0.  0.
         23    2    1    2    0    0 -0.65992886202E+02 -0.44827435496E+02  0.10626224622E+03  0.16113261512E+03  0.91145458913E+02 0.  0.
          5    1    3    3  502    0  0.36290424300E+02  0.32406845208E+02  0.10546940905E+01  0.48844480669E+02  0.41800000000E+01 0. -1.
         -5    1    3    3    0  502  0.29702461902E+02  0.12420590288E+02  0.19154388185E+03  0.19427567625E+03  0.41800000000E+01 0. -1.
        -11    1    4    4    0    0 -0.61451754815E+02 -0.34782609161E+02  0.12256610723E+03  0.14145175401E+03  0.00000000000E+00 0. -1.
         11    1    4    4    0    0 -0.45411313866E+01 -0.10044826335E+02 -0.16303861008E+02  0.19680861112E+02  0.00000000000E+00 0.  1.
</event>
<event>
 8    1  0.7136454E-009  0.8762484E+02  0.7561462E-02  0.1308708E+00
         -3   -1    0    0    0  501 -0.00000000000E+00  0.00000000000E+00  0.54573639790E+03  0.54573639790E+03  0.00000000000E+00 0.  1.
          3   -1    0    0  501    0  0.00000000000E+00 -0.00000000000E+00 -0.24935583855E+02  0.24935583855E+02  0.00000000000E+00 0. -1.
         25    2    1    2    0    0  0.19975383979E+02 -0.30141228995E+02  0.36402249656E+03  0.38661341585E+03  0.12510014251E+03 0.  0.
         23    2    1    2    0    0 -0.19975383979E+02  0.30141228995E+02  0.15677831748E+03  0.18405856591E+03  0.89390185158E+02 0.  0.
          5    1    3    3  502    0 -0.29541949205E+02 -0.23908726131E+02  0.31224590104E+03  0.31457801745E+03  0.41800000000E+01 0.  1.
         -5    1    3    3    0  502  0.49517333184E+02 -0.62325028644E+01  0.51776595527E+02  0.72035398395E+02  0.41800000000E+01 0.  1.
        -11    1    4    4    0    0  0.12549205731E+02  0.48148031522E+02  0.12708840407E+03  0.13648141981E+03  0.00000000000E+00 0.  1.
         11    1    4    4    0    0 -0.32524589710E+02 -0.18006802526E+02  0.29689913414E+02  0.47577146105E+02  0.00000000000E+00 0. -1.
</event>
<event>
 7    1  0.7136454E-009  0.9324142E+02  0.7561462E-02  0.1295187E+00
         -1   -1    0    0    0  501 -0.00000000000E+00  0.00000000000E+00  0.12970650956E+02  0.12970650956E+02  0.00000000000E+00 0.  1.
          1   -1    0    0  501    0  0.00000000000E+00 -0.00000000000E+00 -0.84653904295E+03  0.84653904295E+03  0.00000000000E+00 0. -1.
         25    2    1    2    0    0  0.23934357340E+02 -0.43635693588E+02 -0.61144635090E+03  0.62609153209E+03  0.12508812618E+03 0.  0.
          5    1    3    3  502    0  0.62703183796E+02  0.11404697544E+02 -0.36667884890E+03  0.37219968702E+03  0.41800000000E+01 0. -1.
         -5    1    3    3    0  502 -0.38768826456E+02 -0.55040391132E+02 -0.24476750200E+03  0.25389184507E+03  0.41800000000E+01 0. -1.
        -11    1    1    2    0    0 -0.15372219196E+02  0.58994654017E+01 -0.13656731674E+02  0.21391940890E+02  0.00000000000E+00 0.  1.
         11    1    1    2    0    0 -0.85621381440E+01  0.37736228187E+02 -0.20846530942E+03  0.21202622092E+03  0.00000000000E+00 0. -1.
</event>
<event>
 8    1  0.7136454E-009  0.1478271E+03  0.7561462E-02  0.1203169E+00
          1   -1    0    0  501    0  0.00000000000E+00  0.00000000000E+00  0.34037289572E+03  0.34037289572E+03  0.00000000000E+00 0.  1.
         -1   -1    0    0    0  501 -0.00000000000E+00 -0.00000000000E+00 -0.95542787917E+02  0.95542787917E+02  0.00000000000E+00 0. -1.
         25    2    1    2    0    0  0.12451478806E+03  0.17897648075E+02  0.21558190234E+03  0.27918975338E+03  0.12508838285E+03 0.  0.
         23    2    1    2    0    0 -0.12451478806E+03 -0.17897648075E+02  0.29248205458E+02  0.15672593025E+03  0.88787957726E+02 0.  0.
          5    1    3    3  502    0  0.94918276302E+02 -0.33218031968E+02  0.18932400046E+03  0.21441540610E+03  0.41800000000E+01 0. -1.
         -5    1    3    3    0  502  0.29596511762E+02  0.51115680043E+02  0.26257901886E+02  0.64774347285E+02  0.41800000000E+01 0. -1.
        -11    1    4    4    0    0 -0.36337543839E+02 -0.29564322880E+02  0.46630769315E+02  0.66097616648E+02  0.00000000000E+00 0.  1.
         11    1    4    4    0    0 -0.88177244225E+02  0.11666674805E+02 -0.17382563858E+02  0.90628313602E+02  0.00000000000E+00 0. -1.
</event>
<event>
 8    1  0.7136454E-009  0.1540378E+03  0.7561462E-02  0.1195597E+00
          2   -1    0    0  501    0  0.00000000000E+00  0.00000000000E+00  0.18237016074E+03  0.18237016074E+03  0.00000000000E+00 0. -1.
         -2   -1    0    0    0  501 -0.00000000000E+00 -0.00000000000E+00 -0.19296683665E+03  0.19296683665E+03  0.00000000000E+00 0.  1.
         25    2    1    2    0    0 -0.98012316012E+02 -0.10649320782E+03 -0.51638125015E+02  0.19815175341E+03  0.12510157481E+03 0.  0.
         23    2    1    2    0    0  0.98012316012E+02  0.10649320782E+03  0.41041449097E+02  0.17718524398E+03  0.93610858019E+02 0.  0.
          5    1    3    3  502    0 -0.46859208088E+01  0.25541954375E+01 -0.54115574545E+02  0.54538514616E+02  0.41800000000E+01 0.  1.
         -5    1    3    3    0  502 -0.93326395204E+02 -0.10904740326E+03  0.24774495298E+01  0.14361323879E+03  0.41800000000E+01 0.  1.
        -11    1    4    4    0    0  0.32111107813E+02 -0.41841714634E+00 -0.19702183447E+02  0.37675912072E+02  0.00000000000E+00 0.  1.
         11    1    4    4    0    0  0.65901208199E+02  0.10691162497E+03  0.60743632545E+02  0.13950933191E+03  0.00000000000E+00 0. -1.
</event>
<event>
 8    1  0.7136454E-009  0.1814538E+03  0.7561462E-02  0.1166403E+00
         -2   -1    0    0    0  501 -0.00000000000E+00  0.00000000000E+00  0.21174127317E+03  0.21174127317E+03  0.00000000000E+00 0.  1.
          2   -1    0    0  501    0  0.00000000000E+00 -0.00000000000E+00 -0.22618243141E+03  0.22618243141E+03  0.00000000000E+00 0. -1.
         25    2    1    2    0    0  0.12252720834E+03 -0.10702587701E+03  0.90061485760E+02  0.22410741056E+03  0.12508239330E+03 0.  0.
         23    2    1    2    0    0 -0.12252720834E+03  0.10702587701E+03 -0.10450264400E+03  0.21381629402E+03  0.91264176160E+02 0.  0.
          5    1    3    3  502    0  0.81780560195E+02  0.16297721686E+01  0.66777852326E+02  0.10567625156E+03  0.41800000000E+01 0.  1.
         -5    1    3    3    0  502  0.40746648148E+02 -0.10865564918E+03  0.23283633434E+02  0.11843115899E+03  0.41800000000E+01 0.  1.
        -11    1    4    4    0    0 -0.65903869885E+02  0.74961486457E+02 -0.11732398947E+02  0.10049971991E+03  0.00000000000E+00 0.  1.
         11    1    4    4    0    0 -0.56623338459E+02  0.32064390556E+02 -0.92770245051E+02  0.11331657410E+03  0.00000000000E+00 0. -1.
</event>
<event>
 8    1  0.7136454E-009  0.1509186E+03  0.7561462E-02  0.1199349E+00
          2   -1    0    0  501    0  0.00000000000E+00  0.00000000000E+00  0.17352204905E+03  0.17352204905E+03  0.00000000000E+00 0. -1.
         -2   -1    0    0    0  501 -0.00000000000E+00 -0.00000000000E+00 -0.17249676942E+03  0.17249676942E+03  0.00000000000E+00 0.  1.
         25    2    1    2    0    0 -0.48599561785E+01 -0.12983054926E+03 -0.32989628716E+02  0.18334914538E+03  0.12509597441E+03 0.  0.
         23    2    1    2    0    0  0.48599561785E+01  0.12983054926E+03  0.34014908350E+02  0.16266967309E+03  0.91786806565E+02 0.  0.
          5    1    3    3  502    0  0.24726373265E+01 -0.14997685135E+03 -0.47184400397E+02  0.15729910971E+03  0.41800000000E+01 0.  1.
         -5    1    3    3    0  502 -0.73325935050E+01  0.20146302086E+02  0.14194771681E+02  0.26050035668E+02  0.41800000000E+01 0.  1.
        -11    1    4    4    0    0  0.38975629216E+01  0.76170371148E+02 -0.27461043725E+02  0.81063094932E+02  0.00000000000E+00 0.  1.
         11    1    4    4    0    0  0.96239325690E+00  0.53660178111E+02  0.61475952075E+02  0.81606578162E+02  0.00000000000E+00 0. -1.
</event>
<event>
 8    1  0.7136454E-009  0.1048977E+03  0.7561462E-02  0.1270321E+00
          2   -1    0    0  501    0  0.00000000000E+00  0.00000000000E+00  0.25368851618E+03  0.25368851618E+03  0.00000000000E+00 0. -1.
         -2   -1    0    0    0  501 -0.00000000000E+00 -0.00000000000E+00 -0.89386611380E+02  0.89386611380E+02  0.00000000000E+00 0.  1.
         25    2    1    2    0    0  0.70014786006E+02 -0.22155694803E+01  0.17781244982E+03  0.22840990136E+03  0.12508731637E+03 0.  0.
         23    2    1    2    0    0 -0.70014786006E+02  0.22155694803E+01 -0.13510545026E+02  0.11466522620E+03  0.89769706835E+02 0.  0.
          5    1    3    3  502    0  0.10202779769E+03  0.11084733785E+02  0.10108853073E+03  0.14411421258E+03  0.41800000000E+01 0. -1.
         -5    1    3    3    0  502 -0.32013011682E+02 -0.13300303265E+02  0.76723919097E+02  0.84295688772E+02  0.41800000000E+01 0. -1.
        -11    1    4    4    0    0 -0.24795306770E+02  0.91243978300E+01 -0.49733533067E+02  0.56315949649E+02  0.00000000000E+00 0.  1.
         11    1    4    4    0    0 -0.45219479236E+02 -0.69088283497E+01  0.36222988041E+02  0.58349276552E+02  0.00000000000E+00 0. -1.
</event>
<event>
 8    1  0.7136454E-009  0.1125547E+03  0.7561462E-02  0.1255911E+00
          1   -1    0    0  501    0  0.00000000000E+00  0.00000000000E+00  0.75549994303E+02  0.75549994303E+02  0.00000000000E+00 0. -1.
         -1   -1    0    0    0  501 -0.00000000000E+00 -0.00000000000E+00 -0.21342594789E+03  0.21342594789E+03  0.00000000000E+00 0.  1.
         25    2    1    2    0    0  0.38831031721E+02  0.29029551169E+02 -0.28433304152E+02  0.13713593005E+03  0.12508895499E+03 0.  0.
         23    2    1    2    0    0 -0.38831031721E+02 -0.29029551169E+02 -0.10944264943E+03  0.15184001214E+03  0.93419119597E+02 0.  0.
          5    1    3    3  502    0 -0.27323053101E+02 -0.29603127836E+02 -0.26910122966E+02  0.48626346012E+02  0.41800000000E+01 0.  1.
         -5    1    3    3    0  502  0.66154084821E+02  0.58632679005E+02 -0.15231811858E+01  0.88509584039E+02  0.41800000000E+01 0.  1.
        -11    1    4    4    0    0  0.17095577458E+02 -0.35901699272E+02 -0.77405564227E+02  0.87021906165E+02  0.00000000000E+00 0.  1.
         11    1    4    4    0    0 -0.55926609178E+02  0.68721481029E+01 -0.32037085204E+02  0.64818105974E+02  0.00000000000E+00 0. -1.
</event>
<event>
 8    1  0.7136454E-009  0.1047812E+03  0.7561462E-02  0.1270551E+00
         -1   -1    0    0    0  501 -0.00000000000E+00  0.00000000000E+00  0.24132594561E+02  0.24132594561E+02  0.00000000000E+00 0.  1.
          1   -1    0    0  501    0  0.00000000000E+00 -0.00000000000E+00 -0.49110694066E+03  0.49110694066E+03  0.00000000000E+00 0. -1.
         25    2    1    2    0    0 -0.55615665544E+01 -0.23296451632E+02 -0.29854147008E+03  0.32457285327E+03  0.12508745757E+03 0.  0.
         23    2    1    2    0    0  0.55615665544E+01  0.23296451632E+02 -0.16843287601E+03  0.19066668195E+03  0.86084227362E+02 0.  0.
          5    1    3    3  502    0 -0.17450981958E+02 -0.69877561465E+02 -0.12376831142E+03  0.14326017478E+03  0.41800000000E+01 0. -1.
         -5    1    3    3    0  502  0.11889415403E+02  0.46581109833E+02 -0.17477315867E+03  0.18131267849E+03  0.41800000000E+01 0. -1.
        -11    1    4    4    0    0  0.10181444450E+02 -0.32047165743E+02 -0.69671082086E+02  0.77361116345E+02  0.00000000000E+00 0.  1.
         11    1    4    4    0    0 -0.46198778957E+01  0.55343617375E+02 -0.98761793928E+02  0.11330556560E+03  0.00000000000E+00 0. -1.
</event>
<event>
 7    1  0.7136454E-009  0.9736645E+02  0.7561462E-02  0.1285933E+00
          3   -1    0    0  501    0  0.00000000000E+00  0.00000000000E+00  0.24120429199E+03  0.24120429199E+03  0.00000000000E+00 0. -1.
         -3   -1    0    0    0  501 -0.00000000000E+00 -0.00000000000E+00 -0.62580890105E+02  0.62580890105E+02  0.00000000000E+00 0.  1.
         23    2    1    2    0    0  0.64200383087E+01 -0.49433911889E+02  0.46303029524E+02  0.11490462437E+03  0.92596833759E+02 0.  0.
          5    1    1    2  502    0  0.33199545371E+02  0.74239196587E+02  0.11013499470E+03  0.13697027992E+03  0.41800000000E+01 0. -1.
         -5    1    1    2    0  502 -0.39619583680E+02 -0.24805284698E+02  0.22185377656E+02  0.51910277803E+02  0.41800000000E+01 0. -1.
        -11    1    3    3    0    0  0.21716245384E+02 -0.45741655670E+02 -0.14038627377E+02  0.52545003907E+02  0.00000000000E+00 0.  1.
         11    1    3    3    0    0 -0.15296207075E+02 -0.36922562189E+01  0.60341656901E+02  0.62359620464E+02  0.00000000000E+00 0. -1.
</event>
<event>
 8    1  0.7136454E-009  0.1345068E+03  0.7561462E-02  0.1220918E+00
         -1   -1    0    0    0  501 -0.00000000000E+00  0.00000000000E+00  0.15468887745E+03  0.15468887745E+03  0.00000000000E+00 0.  1.
          1   -1    0    0  501    0  0.00000000000E+00 -0.00000000000E+00 -0.26064045243E+03  0.26064045243E+03  0.00000000000E+00 0. -1.
         25    2    1    2    0    0  0.99447644285E+02 -0.38252328500E+02  0.79505005663E+02  0.18254368868E+03  0.12509227699E+03 0.  0.
         23    2    1    2    0    0 -0.99447644285E+02  0.38252328500E+02 -0.18545658064E+03  0.23278564120E+03  0.91880013356E+02 0.  0.
          5    1    3    3  502    0  0.10757485024E+03 -0.70363247890E+02  0.74927078749E+02  0.14884513626E+03  0.41800000000E+01 0.  1.
         -5    1    3    3    0  502 -0.81272059573E+01  0.32110919390E+02  0.45779269133E+01  0.33698552425E+02  0.41800000000E+01 0.  1.
        -11    1    4    4    0    0 -0.42135105449E+02  0.21512295801E+02 -0.16177987945E+03  0.16855525912E+03  0.00000000000E+00 0. -1.
         11    1    4    4    0    0 -0.57312538835E+02  0.16740032700E+02 -0.23676701194E+02  0.64230382079E+02  0.00000000000E+00 0.  1.
</event>
<event>
 8    1  0.7136454E-009  0.1159127E+03  0.7561462E-02  0.1249996E+00
         -1   -1    0    0    0  501 -0.00000000000E+00  0.00000000000E+00  0.14241247921E+03  0.14241247921E+03  0.00000000000E+00 0.  1.
          1   -1    0    0  501    0  0.00000000000E+00 -0.00000000000E+00 -0.14596680766E+03  0.14596680766E+03  0.00000000000E+00 0. -1.
         25    2    1    2    0    0  0.29575844896E+02  0.87715215558E+02  0.81767432486E+01  0.15582998206E+03  0.12508970596E+03 0.  0.
         23    2    1    2    0    0 -0.29575844896E+02 -0.87715215558E+02 -0.11731071706E+02  0.13254930481E+03  0.94143563350E+02 0.  0.
          5    1    3    3  502    0 -0.49564032260E+01  0.41255645660E+02 -0.55639632286E+02  0.69568924906E+02  0.41800000000E+01 0.  1.
         -5    1    3    3    0  502  0.34532248122E+02  0.46459569898E+02  0.63816375534E+02  0.86261057157E+02  0.41800000000E+01 0.  1.
        -11    1    4    4    0    0  0.32611926624E+02 -0.13753045534E+02 -0.36021176035E+01  0.35576105336E+02  0.00000000000E+00 0.  1.
         11    1    4    4    0    0 -0.62187771521E+02 -0.73962170023E+02 -0.81289541028E+01  0.96973199473E+02  0.00000000000E+00 0. -1.
</event>
<event>
 8    1  0.7136454E-009  0.1176255E+03  0.7561462E-02  0.1247066E+00
         -2   -1    0    0    0  501 -0.00000000000E+00  0.00000000000E+00  0.24777517044E+03  0.24777517044E+03  0.00000000000E+00 0.  1.
          2   -1    0    0  501    0  0.00000000000E+00 -0.00000000000E+00 -0.84891169788E+02  0.84891169788E+02  0.00000000000E+00 0. -1.
         25    2    1    2    0    0 -0.34945045990E+02 -0.76007173991E+02  0.37324129785E+02  0.15504292636E+03  0.12508785558E+03 0.  0.
         23    2    1    2    0    0  0.34945045990E+02  0.76007173991E+02  0.12555987086E+03  0.17762341386E+03  0.93736595010E+02 0.  0.
          5    1    3    3  502    0  0.23254770792E+02 -0.24231459130E+02  0.64166492692E+02  0.72544876873E+02  0.41800000000E+01 0. -1.
         -5    1    3    3    0  502 -0.58199816782E+02 -0.51775714861E+02 -0.26842362907E+02  0.82498049488E+02  0.41800000000E+01 0. -1.
        -11    1    4    4    0    0 -0.13687082073E+02  0.73433079353E+02  0.91872046394E+02  0.11840703639E+03  0.00000000000E+00 0.  1.
         11    1    4    4    0    0  0.48632128063E+02  0.25740946377E+01  0.33687824469E+02  0.59216377469E+02  0.00000000000E+00 0. -1.
</event>
<event>
 8    1  0.7136454E-009  0.1379541E+03  0.7561462E-02  0.1216109E+00
          2   -1    0    0  501    0  0.00000000000E+00  0.00000000000E+00  0.22550371868E+03  0.22550371868E+03  0.00000000000E+00 0. -1.
         -2   -1    0    0    0  501 -0.00000000000E+00 -0.00000000000E+00 -0.11468773754E+03  0.11468773754E+03  0.00000000000E+00 0.  1.
         25    2    1    2    0    0  0.47387645525E+02  0.96152649645E+02  0.10227436158E+03  0.19388092280E+03  0.12505537256E+03 0.  0.
         23    2    1    2    0    0 -0.47387645525E+02 -0.96152649645E+02  0.85416195635E+01  0.14631053343E+03  0.99211349876E+02 0.  0.
          5    1    3    3  502    0 -0.28274431928E+02  0.80881869153E+02  0.40171267345E+02  0.94723404598E+02  0.41800000000E+01 0.  1.
         -5    1    3    3    0  502  0.75662077454E+02  0.15270780492E+02  0.62103094236E+02  0.99157518198E+02  0.41800000000E+01 0.  1.
        -11    1    4    4    0    0 -0.12285479430E+02 -0.64173901699E+02  0.50785243246E+02  0.82754840315E+02  0.00000000000E+00 0. -1.
         11    1    4    4    0    0 -0.35102166095E+02 -0.31978747947E+02 -0.42243623683E+02  0.63555693110E+02  0.00000000000E+00 0.  1.
</event>
<event>
 8    1  0.7136454E-009  0.1002797E+03  0.7561462E-02  0.1279709E+00
         -1   -1    0    0    0  501 -0.00000000000E+00  0.00000000000E+00  0.27827968567E+03  0.27827968567E+03  0.00000000000E+00 0.  1.
          1   -1    0    0  501    0  0.00000000000E+00 -0.00000000000E+00 -0.50616042411E+02  0.50616042411E+02  0.00000000000E+00 0. -1.
         25    2    1    2    0    0 -0.25344545681E+02  0.10936754679E+02  0.80090456650E+02  0.15107415614E+03  0.12508781239E+03 0.  0.
         23    2    1    2    0    0  0.25344545681E+02 -0.10936754679E+02  0.14757318661E+03  0.17782157194E+03  0.95292746017E+02 0.  0.
          5    1    3    3  502    0  0.18749943857E+02 -0.37846967282E+02 -0.57816893545E+01  0.42835191827E+02  0.41800000000E+01 0. -1.
         -5    1    3    3    0  502 -0.44094489538E+02  0.48783721961E+02  0.85872146004E+02  0.10823896431E+03  0.41800000000E+01 0. -1.
        -11    1    4    4    0    0  0.52469780354E+02  0.15127372039E+02  0.53244549161E+02  0.76268586263E+02  0.00000000000E+00 0.  1.
         11    1    4    4    0    0 -0.27125234672E+02 -0.26064126718E+02  0.94328637450E+02  0.10155298568E+03  0.00000000000E+00 0. -1.
</event>
<event>
 8    1  0.7136454E-009  0.1103582E+03  0.7561462E-02  0.1259908E+00
         -2   -1    0    0    0  501 -0.00000000000E+00  0.00000000000E+00  0.21092274501E+02  0.21092274501E+02  0.00000000000E+00 0.  1.
          2   -1    0    0  501    0  0.00000000000E+00 -0.00000000000E+00 -0.63171600713E+03  0.63171600713E+03  0.00000000000E+00 0. -1.
         25    2    1    2    0    0 -0.30198370422E+02 -0.70033270777E+01 -0.42168857371E+03  0.44094078560E+03  0.12508611050E+03 0.  0.
         23    2    1    2    0    0  0.30198370422E+02  0.70033270777E+01 -0.18893515892E+03  0.21186749604E+03  0.90721295366E+02 0.  0.
          5    1    3    3  502    0 -0.33103288741E+02  0.54850477844E+02 -0.17017046118E+03  0.18187869832E+03  0.41800000000E+01 0. -1.
         -5    1    3    3    0  502  0.29049183189E+01 -0.61853804921E+02 -0.25151811253E+03  0.25906208728E+03  0.41800000000E+01 0. -1.
        -11    1    4    4    0    0  0.46056441393E+02 -0.29471498079E+02 -0.12688002044E+03  0.13816043058E+03  0.00000000000E+00 0. -1.
         11    1    4    4    0    0 -0.15858070971E+02  0.36474825157E+02 -0.62055138485E+02  0.73707065451E+02  0.00000000000E+00 0.  1.
</event>
<event>
 8    1  0.7136454E-009  0.1036337E+03  0.7561462E-02  0.1272835E+00
         -2   -1    0    0    0  501 -0.00000000000E+00  0.00000000000E+00  0.81811212944E+02  0.81811212944E+02  0.00000000000E+00 0.  1.
          2   -1    0    0  501    0  0.00000000000E+00 -0.00000000000E+00 -0.31094706199E+03  0.31094706199E+03  0.00000000000E+00 0. -1.
         25    2    1    2    0    0  0.32755433551E+02 -0.41386571855E+01 -0.26071277066E+03  0.29103671453E+03  0.12506467730E+03 0.  0.
         23    2    1    2    0    0 -0.32755433551E+02  0.41386571855E+01  0.31576921619E+02  0.10172156040E+03  0.90885240613E+02 0.  0.
          5    1    3    3  502    0  0.29439035401E+02 -0.57275649063E+02 -0.81043887298E+02  0.10359894232E+03  0.41800000000E+01 0.  1.
         -5    1    3    3    0  502  0.33163981496E+01  0.53136991877E+02 -0.17966888336E+03  0.18743777221E+03  0.41800000000E+01 0.  1.
        -11    1    4    4    0    0 -0.27506156133E+02 -0.37974702002E+02  0.35911040052E+02  0.59061573083E+02  0.00000000000E+00 0.  1.
         11    1    4    4    0    0 -0.52492774177E+01  0.42113359187E+02 -0.43341184336E+01  0.42659987319E+02  0.00000000000E+00 0. -1.
</event>
<event>
 8    1  0.7136454E-009  0.1604623E+03  0.7561462E-02  0.1188176E+00
         -2   -1    0    0    0  501 -0.00000000000E+00  0.00000000000E+00  0.40908318896E+02  0.40908318896E+02  0.00000000000E+00 0.  1.
          2   -1    0    0  501    0  0.00000000000E+00 -0.00000000000E+00 -0.69171925348E+03  0.69171925348E+03  0.00000000000E+00 0. -1.
         25    2    1    2    0    0  0.91650704687E+02  0.82940419528E+02 -0.27482032195E+03  0.32627101929E+03  0.12509038257E+03 0.  0.
         23    2    1    2    0    0 -0.91650704687E+02 -0.82940419528E+02 -0.37599061263E+03  0.40635655308E+03  0.92074657680E+02 0.  0.
          5    1    3    3  502    0 -0.13832212381E+02  0.66436734073E+02 -0.12434828851E+03  0.14172204835E+03  0.41800000000E+01 0.  1.
         -5    1    3    3    0  502  0.10548291707E+03  0.16503685455E+02 -0.15047203345E+03  0.18454897094E+03  0.41800000000E+01 0.  1.
        -11    1    4    4    0    0 -0.61587666395E+02 -0.95392940708E+02 -0.33675832361E+03  0.35538573735E+03  0.00000000000E+00 0.  1.
         11    1    4    4    0    0 -0.30063038292E+02  0.12452521179E+02 -0.39232289017E+02  0.50970815734E+02  0.00000000000E+00 0. -1.
</event>
<event>
 8    1  0.7136454E-009  0.1042657E+03  0.7561462E-02  0.1271573E+00
          1   -1    0    0  501    0  0.00000000000E+00  0.00000000000E+00  0.20952180412E+04  0.20952180412E+04  0.00000000000E+00 0. -1.
         -1   -1    0    0    0  501 -0.00000000000E+00 -0.00000000000E+00 -0.12074960089E+02  0.12074960089E+02  0.00000000000E+00 0.  1.
         25    2    1    2    0    0  0.24938117381E+02 -0.11080168599E+02  0.18327500026E+04  0.18372163901E+04  0.12508721771E+03 0.  0.
         23    2    1    2    0    0 -0.24938117381E+02  0.11080168599E+02  0.25039307853E+03  0.27007661125E+03  0.97467955420E+02 0.  0.
          5    1    3    3  502    0 -0.23826387684E+02  0.33775044017E+02  0.12511570640E+04  0.12518466047E+04  0.41800000000E+01 0. -1.
         -5    1    3    3    0  502  0.48764505065E+02 -0.44855212616E+02  0.58159293858E+03  0.58536978540E+03  0.41800000000E+01 0. -1.
        -11    1    4    4    0    0  0.18891207659E+02  0.42607763264E+02  0.13097257260E+03  0.13901839443E+03  0.00000000000E+00 0.  1.
         11    1    4    4    0    0 -0.43829325040E+02 -0.31527594665E+02  0.11942050594E+03  0.13105821682E+03  0.00000000000E+00 0. -1.
</event>
<event>
 8    1  0.7136454E-009  0.1823925E+03  0.7561462E-02  0.1165507E+00
         -1   -1    0    0    0  501 -0.00000000000E+00  0.00000000000E+00  0.19992666613E+03  0.19992666613E+03  0.00000000000E+00 0.  1.
          1   -1    0    0  501    0  0.00000000000E+00 -0.00000000000E+00 -0.27200752379E+03  0.27200752379E+03  0.00000000000E+00 0. -1.
         25    2    1    2    0    0  0.87107291610E+02  0.13370977492E+03 -0.17154762895E+03  0.26559478653E+03  0.12508404163E+03 0.  0.
         23    2    1    2    0    0 -0.87107291610E+02 -0.13370977492E+03  0.99466771299E+02  0.20633940339E+03  0.84948964916E+02 0.  0.
          5    1    3    3  502    0 -0.18452646418E+02 -0.12220076197E+02 -0.16737471808E+02  0.28061464406E+02  0.41800000000E+01 0.  1.
         -5    1    3    3    0  502  0.10555993803E+03  0.14592985111E+03 -0.15481015715E+03  0.23753332212E+03  0.41800000000E+01 0.  1.
        -11    1    4    4    0    0 -0.50747344999E+02 -0.51933693457E+02  0.91037242416E+02  0.11644819040E+03  0.00000000000E+00 0.  1.
         11    1    4    4    0    0 -0.36359946611E+02 -0.81776081459E+02  0.84295288828E+01  0.89891212993E+02  0.00000000000E+00 0. -1.
</event>
<event>
 8    1  0.7136454E-009  0.2570330E+03  0.7561462E-02  0.1108939E+00
         -1   -1    0    0    0  501 -0.00000000000E+00  0.00000000000E+00  0.73754767476E+03  0.73754767476E+03  0.00000000000E+00 0.  1.
          1   -1    0    0  501    0  0.00000000000E+00 -0.00000000000E+00 -0.10572964799E+03  0.10572964799E+03  0.00000000000E+00 0. -1.
         25    2    1    2    0    0 -0.23446077274E+03  0.37131588427E+01  0.48438713686E+03  0.55250720962E+03  0.12509067439E+03 0.  0.
         23    2    1    2    0    0  0.23446077274E+03 -0.37131588427E+01  0.14743088990E+03  0.29077011314E+03  0.88463268626E+02 0.  0.
          5    1    3    3  502    0 -0.19620580298E+03  0.51240013239E+02  0.34337712410E+03  0.39880769530E+03  0.41800000000E+01 0. -1.
         -5    1    3    3    0  502 -0.38254969759E+02 -0.47526854397E+02  0.14101001276E+03  0.15369951431E+03  0.41800000000E+01 0. -1.
        -11    1    4    4    0    0  0.90103582250E+02 -0.43911257281E+02  0.49816740145E+02  0.11193105757E+03  0.00000000000E+00 0.  1.
         11    1    4    4    0    0  0.14435719049E+03  0.40198098438E+02  0.97614149757E+02  0.17883905557E+03  0.00000000000E+00 0. -1.
</event>
<event>
 8    1  0.7136454E-009  0.1091029E+03  0.7561462E-02  0.1262240E+00
          2   -1    0    0  501    0  0.00000000000E+00  0.00000000000E+00  0.51254182886E+03  0.51254182886E+03  0.00000000000E+00 0. -1.
         -2   -1    0    0    0  501 -0.00000000000E+00 -0.00000000000E+00 -0.38310111245E+02  0.38310111245E+02  0.00000000000E+00 0.  1.
         25    2    1    2    0    0 -0.41813018061E+02 -0.75423391602E+02  0.22833610459E+03  0.27426489177E+03  0.12508732037E+03 0.  0.
         23    2    1    2    0    0  0.41813018061E+02  0.75423391602E+02  0.24589561303E+03  0.27658704834E+03  0.92729317491E+02 0.  0.
          5    1    3    3  502    0 -0.25958213690E+02 -0.26131406443E+01  0.18718019082E+03  0.18903585268E+03  0.41800000000E+01 0.  1.
         -5    1    3    3    0  502 -0.15854804371E+02 -0.72810250958E+02  0.41155913768E+02  0.85229039091E+02  0.41800000000E+01 0.  1.
        -11    1    4    4    0    0  0.18253424809E+02  0.88391932770E+02  0.13440073224E+03  0.16189465131E+03  0.00000000000E+00 0.  1.
         11    1    4    4    0    0  0.23559593252E+02 -0.12968541168E+02  0.11149488079E+03  0.11469239703E+03  0.00000000000E+00 0. -1.
</event>
<event>
 8    1  0.7136454E-009  0.1283110E+03  0.7561462E-02  0.1229984E+00
          2   -1    0    0  501    0  0.00000000000E+00  0.00000000000E+00  0.20748132161E+03  0.20748132161E+03  0.00000000000E+00 0. -1.
         -2   -1    0    0    0  501 -0.00000000000E+00 -0.00000000000E+00 -0.10263774949E+03  0.10263774949E+03  0.00000000000E+00 0.  1.
         25    2    1    2    0    0 -0.12219417732E+02 -0.96994237696E+02  0.67624676216E+02  0.17256321651E+03  0.12509104902E+03 0.  0.
         23    2    1    2    0    0  0.12219417732E+02  0.96994237696E+02  0.37218895906E+02  0.13755585458E+03  0.89326203333E+02 0.  0.
          5    1    3    3  502    0 -0.46921586504E+01  0.21302990814E+02 -0.16055198616E+02  0.27405758026E+02  0.41800000000E+01 0. -1.
         -5    1    3    3    0  502 -0.75272590814E+01 -0.11829722851E+03  0.83679874832E+02  0.14515745849E+03  0.41800000000E+01 0. -1.
        -11    1    4    4    0    0  0.30895294425E+02  0.20541893623E+02 -0.18176664290E+02  0.41314401073E+02  0.00000000000E+00 0. -1.
         11    1    4    4    0    0 -0.18675876694E+02  0.76452344073E+02  0.55395560197E+02  0.96241453512E+02  0.00000000000E+00 0.  1.
</event>
<event>
 8    1  0.7136454E-009  0.1116577E+03  0.7561462E-02  0.1257531E+00
         -2   -1    0    0    0  501 -0.00000000000E+00  0.00000000000E+00  0.19207838931E+02  0.19207838931E+02  0.00000000000E+00 0. -1.
          2   -1    0    0  501    0  0.00000000000E+00 -0.00000000000E+00 -0.11261635046E+04  0.11261635046E+04  0.00000000000E+00 0.  1.
         25    2    1    2    0    0  0.56163462125E+02 -0.79120268674E+02 -0.51068464459E+03  0.53465870589E+03  0.12508706637E+03 0.  0.
         23    2    1    2    0    0 -0.56163462125E+02  0.79120268674E+02 -0.59627102106E+03  0.61071263762E+03  0.89534595545E+02 0.  0.
          5    1    3    3  502    0  0.50677146550E+02 -0.77240258010E+02 -0.16695809710E+03  0.19085782464E+03  0.41800000000E+01 0. -1.
         -5    1    3    3    0  502  0.54863155749E+01 -0.18800106643E+01 -0.34372654749E+03  0.34380088124E+03  0.41800000000E+01 0. -1.
        -11    1    4    4    0    0 -0.35399556390E+02  0.92464298519E+02 -0.54362969822E+03  0.55257218884E+03  0.00000000000E+00 0.  1.
         11    1    4    4    0    0 -0.20763905735E+02 -0.13344029845E+02 -0.52641322837E+02  0.58140448776E+02  0.00000000000E+00 0. -1.
</event>
<event>
 8    1  0.7136454E-009  0.1236373E+03  0.7561462E-02  0.1237214E+00
         -1   -1    0    0    0  501 -0.00000000000E+00  0.00000000000E+00  0.48546550418E+02  0.48546550418E+02  0.00000000000E+00 0.  1.
          1   -1    0    0  501    0  0.00000000000E+00 -0.00000000000E+00 -0.32559364020E+03  0.32559364020E+03  0.00000000000E+00 0. -1.
         25    2    1    2    0    0 -0.13061098916E+02  0.62658924641E+02 -0.15762820661E+03  0.21116300041E+03  0.12508568295E+03 0.  0.
         23    2    1    2    0    0  0.13061098916E+02 -0.62658924641E+02 -0.11941888317E+03  0.16297719021E+03  0.90575723733E+02 0.  0.
          5    1    3    3  502    0 -0.64011350327E+02  0.61603704407E+02 -0.10799612967E+03  0.13990391629E+03  0.41800000000E+01 0. -1.
         -5    1    3    3    0  502  0.50950251411E+02  0.10552202333E+01 -0.49632076937E+02  0.71259084120E+02  0.41800000000E+01 0. -1.
        -11    1    4    4    0    0 -0.29056460470E+01  0.21423431876E+02 -0.43483200495E+02  0.48561249342E+02  0.00000000000E+00 0. -1.
         11    1    4    4    0    0  0.15966744963E+02 -0.84082356516E+02 -0.75935682675E+02  0.11441594087E+03  0.00000000000E+00 0.  1.
</event>
<event>
 8    1  0.7136454E-009  0.1041923E+03  0.7561462E-02  0.1271719E+00
         -2   -1    0    0    0  501 -0.00000000000E+00  0.00000000000E+00  0.42107482234E+03  0.42107482234E+03  0.00000000000E+00 0.  1.
          2   -1    0    0  501    0  0.00000000000E+00 -0.00000000000E+00 -0.32826085753E+02  0.32826085753E+02  0.00000000000E+00 0. -1.
         25    2    1    2    0    0  0.22231312718E+02  0.13281943836E+02  0.14458657305E+03  0.19293488578E+03  0.12509177330E+03 0.  0.
         23    2    1    2    0    0 -0.22231312718E+02 -0.13281943836E+02  0.24366216353E+03  0.26096602230E+03  0.89785152246E+02 0.  0.
          5    1    3    3  502    0 -0.44140412674E+02 -0.81794606251E+01  0.18410462128E+02  0.48700073131E+02  0.41800000000E+01 0.  1.
         -5    1    3    3    0  502  0.66371725393E+02  0.21461404461E+02  0.12617611093E+03  0.14423481265E+03  0.41800000000E+01 0.  1.
        -11    1    4    4    0    0 -0.10925295670E+02 -0.51973034551E+02  0.13539673523E+03  0.14544013998E+03  0.00000000000E+00 0.  1.
         11    1    4    4    0    0 -0.11306017048E+02  0.38691090715E+02  0.10826542830E+03  0.11552588233E+03  0.00000000000E+00 0. -1.
</event>
<event>
 8    1  0.7136454E-009  0.1087486E+03  0.7561462E-02  0.1262905E+00
          2   -1    0    0  501    0  0.00000000000E+00  0.00000000000E+00  0.67948511943E+03  0.67948511943E+03  0.00000000000E+00 0. -1.
         -2   -1    0    0    0  501 -0.00000000000E+00 -0.00000000000E+00 -0.27781330442E+02  0.27781330442E+02  0.00000000000E+00 0.  1.
         25    2    1    2    0    0 -0.64379343614E+02  0.58191889344E+02  0.34839605900E+03  0.38020755855E+03  0.12508788022E+03 0.  0.
         23    2    1    2    0    0  0.64379343614E+02 -0.58191889344E+02  0.30330772998E+03  0.32705889132E+03  0.86260903400E+02 0.  0.
          5    1    3    3  502    0 -0.83473428890E+02  0.54449949775E+02  0.34608400041E+03  0.36017248382E+03  0.41800000000E+01 0. -1.
         -5    1    3    3    0  502  0.19094085276E+02  0.37419395689E+01  0.23120585886E+01  0.20035074724E+02  0.41800000000E+01 0. -1.
        -11    1    4    4    0    0  0.52527045551E+02 -0.17348933729E+02  0.66675472176E+02  0.86635411962E+02  0.00000000000E+00 0.  1.
         11    1    4    4    0    0  0.11852298063E+02 -0.40842955615E+02  0.23663225781E+03  0.24042347936E+03  0.00000000000E+00 0. -1.
</event>
<event>
 8    1  0.7136454E-009  0.1034864E+03  0.7561462E-02  0.1273131E+00
          2   -1    0    0  501    0  0.00000000000E+00  0.00000000000E+00  0.64520849143E+03  0.64520849143E+03  0.00000000000E+00 0. -1.
         -2   -1    0    0    0  501 -0.00000000000E+00 -0.00000000000E+00 -0.20492265162E+02  0.20492265162E+02  0.00000000000E+00 0.  1.
         25    2    1    2    0    0 -0.43108408611E+01  0.11845106499E+01  0.48144899421E+03  0.49745328715E+03  0.12508657986E+03 0.  0.
         23    2    1    2    0    0  0.43108408611E+01 -0.11845106499E+01  0.14326723205E+03  0.16824746943E+03  0.88100651392E+02 0.  0.
          5    1    3    3  502    0 -0.52517031198E+02  0.32833852870E+02  0.31994628117E+03  0.32591286519E+03  0.41800000000E+01 0. -1.
         -5    1    3    3    0  502  0.48206190336E+02 -0.31649342220E+02  0.16150271304E+03  0.17154042196E+03  0.41800000000E+01 0. -1.
        -11    1    4    4    0    0 -0.70182378029E+00  0.42801016862E+02  0.83921693620E+02  0.94208652793E+02  0.00000000000E+00 0. -1.
         11    1    4    4    0    0  0.50126646414E+01 -0.43985527512E+02  0.59345538434E+02  0.74038816639E+02  0.00000000000E+00 0.  1.
</event>
<event>
 8    1  0.7136454E-009  0.1042154E+03  0.7561462E-02  0.1271673E+00
          2   -1    0    0  501    0  0.00000000000E+00  0.00000000000E+00  0.74568113486E+02  0.74568113486E+02  0.00000000000E+00 0. -1.
         -2   -1    0    0    0  501 -0.00000000000E+00 -0.00000000000E+00 -0.15773405165E+03  0.15773405165E+03  0.00000000000E+00 0.  1.
         25    2    1    2    0    0 -0.44030202708E+01  0.13028658509E+02 -0.38175135778E+02  0.13150554571E+03  0.12508890850E+03 0.  0.
         23    2    1    2    0    0  0.44030202708E+01 -0.13028658509E+02 -0.44990802386E+02  0.10079661943E+03  0.89144005173E+02 0.  0.
          5    1    3    3  502    0  0.28917837819E+00 -0.53079569165E+02  0.30697832681E+01  0.53333106568E+02  0.41800000000E+01 0.  1.
         -5    1    3    3    0  502 -0.46921986490E+01  0.66108227674E+02 -0.41244919046E+02  0.78172439142E+02  0.41800000000E+01 0.  1.
        -11    1    4    4    0    0  0.43440913061E+02  0.84025030076E+01 -0.31328597572E+02  0.54214352437E+02  0.00000000000E+00 0. -1.
         11    1    4    4    0    0 -0.39037892790E+02 -0.21431161516E+02 -0.13662204814E+02  0.46582266989E+02  0.00000000000E+00 0.  1.
</event>
<event>
 8    1  0.7136454E-009  0.1125733E+03  0.7561462E-02  0.1255877E+00
         -3   -1    0    0    0  501 -0.00000000000E+00  0.00000000000E+00  0.16592605999E+03  0.16592605999E+03  0.00000000000E+00 0.  1.
          3   -1    0    0  501    0  0.00000000000E+00 -0.00000000000E+00 -0.14946759229E+03  0.14946759229E+03  0.00000000000E+00 0. -1.
         25    2    1    2    0    0  0.54732961137E+01 -0.66418173551E+02 -0.82923679682E+02  0.16421158635E+03  0.12509107758E+03 0.  0.
         23    2    1    2    0    0 -0.54732961137E+01  0.66418173551E+02  0.99382147382E+02  0.15118206594E+03  0.92400622809E+02 0.  0.
          5    1    3    3  502    0 -0.15261597901E+02 -0.95359067280E+02 -0.84414777031E+02  0.12833392016E+03  0.41800000000E+01 0. -1.
         -5    1    3    3    0  502  0.20734894015E+02  0.28940893730E+02  0.14910973499E+01  0.35877666186E+02  0.41800000000E+01 0. -1.
        -11    1    4    4    0    0  0.20416238282E+02 -0.97753953817E+00  0.70531915182E+02  0.73433843890E+02  0.00000000000E+00 0.  1.
         11    1    4    4    0    0 -0.25889534396E+02  0.67395713089E+02  0.28850232199E+02  0.77748222050E+02  0.00000000000E+00 0. -1.
</event>
<event>
 8    1  0.7136454E-009  0.1069511E+03  0.7561462E-02  0.1266322E+00
         -2   -1    0    0    0  501 -0.00000000000E+00  0.00000000000E+00  0.61695524312E+02  0.61695524312E+02  0.00000000000E+00 0.  1.
          2   -1    0    0  501    0  0.00000000000E+00 -0.00000000000E+00 -0.26811510649E+03  0.26811510649E+03  0.00000000000E+00 0. -1.
         25    2    1    2    0    0  0.42397908757E+02  0.38133135280E+02 -0.64723019353E+02  0.15194434252E+03  0.12508515226E+03 0.  0.
         23    2    1    2    0    0 -0.42397908757E+02 -0.38133135280E+02 -0.14169656282E+03  0.17786628828E+03  0.91141548803E+02 0.  0.
          5    1    3    3  502    0  0.56393640574E+02 -0.15228809545E+02 -0.75529647363E+02  0.95573842489E+02  0.41800000000E+01 0. -1.
         -5    1    3    3    0  502 -0.13995731817E+02  0.53361944825E+02  0.10806628010E+02  0.56370500029E+02  0.41800000000E+01 0. -1.
        -11    1    4    4    0    0 -0.43636522222E+02 -0.62164376020E+02 -0.13123280308E+03  0.15162652908E+03  0.00000000000E+00 0. -1.
         11    1    4    4    0    0  0.12386134650E+01  0.24031240741E+02 -0.10463759743E+02  0.26239759199E+02  0.00000000000E+00 0.  1.
</event>
<event>
 8    1  0.7136454E-009  0.8922542E+02  0.7561462E-02  0.1304738E+00
          1   -1    0    0  501    0  0.00000000000E+00  0.00000000000E+00  0.24029911696E+03  0.24029911696E+03  0.00000000000E+00 0. -1.
         -1   -1    0    0    0  501 -0.00000000000E+00 -0.00000000000E+00 -0.70062167653E+02  0.70062167653E+02  0.00000000000E+00 0.  1.
         25    2    1    2    0    0  0.16347837127E+02 -0.11740548125E+02  0.17561509052E+03  0.21654923284E+03  0.12509123860E+03 0.  0.
         23    2    1    2    0    0 -0.16347837127E+02  0.11740548125E+02 -0.53781412125E+01  0.93812051779E+02  0.91469581868E+02 0.  0.
          5    1    3    3  502    0  0.59753013668E+01  0.48964337190E+02  0.28767744465E+02  0.57256144338E+02  0.41800000000E+01 0.  1.
         -5    1    3    3    0  502  0.10372535761E+02 -0.60704885315E+02  0.14684734606E+03  0.15929308850E+03  0.41800000000E+01 0.  1.
        -11    1    4    4    0    0  0.79771437773E+00  0.36826238232E+02 -0.35406572528E+02  0.51092402064E+02  0.00000000000E+00 0.  1.
         11    1    4    4    0    0 -0.17145551505E+02 -0.25085690107E+02  0.30028431315E+02  0.42719649715E+02  0.00000000000E+00 0. -1.
</event>
<event>
 8    1  0.7136454E-009  0.1215473E+03  0.7561462E-02  0.1240566E+00
          1   -1    0    0  501    0  0.00000000000E+00  0.00000000000E+00  0.26149422451E+02  0.26149422451E+02  0.00000000000E+00 0. -1.
         -1   -1    0    0    0  501 -0.00000000000E+00 -0.00000000000E+00 -0.68081539454E+03  0.68081539454E+03  0.00000000000E+00 0.  1.
         25    2    1    2    0    0 -0.16007008621E+02  0.52901399224E+02 -0.21711941413E+03  0.25659897235E+03  0.12508960889E+03 0.  0.
         23    2    1    2    0    0  0.16007008621E+02 -0.52901399224E+02 -0.43754655796E+03  0.45036584464E+03  0.91255801312E+02 0.  0.
          5    1    3    3  502    0  0.53809165064E+02  0.11358026166E+02 -0.95471163039E+02  0.11025718287E+03  0.41800000000E+01 0. -1.
         -5    1    3    3    0  502 -0.69816173685E+02  0.41543373058E+02 -0.12164825109E+03  0.14634178947E+03  0.41800000000E+01 0. -1.
        -11    1    4    4    0    0 -0.38062605942E+02 -0.26809424881E+02 -0.20062706499E+03  0.20595806962E+03  0.00000000000E+00 0.  1.
         11    1    4    4    0    0  0.54069614563E+02 -0.26091974343E+02 -0.23691949297E+03  0.24440777502E+03  0.00000000000E+00 0. -1.
</event>
<event>
 8    1  0.7136454E-009  0.1613756E+03  0.7561462E-02  0.1187152E+00
         -2   -1    0    0    0  501 -0.00000000000E+00  0.00000000000E+00  0.28895234296E+02  0.28895234296E+02  0.00000000000E+00 0.  1.
          2   -1    0    0  501    0  0.00000000000E+00 -0.00000000000E+00 -0.10098618097E+04  0.10098618097E+04  0.00000000000E+00 0. -1.
         25    2    1    2    0    0  0.74858479912E+02 -0.10631018450E+03 -0.56948478991E+03  0.59738257854E+03  0.12508945545E+03 0.  0.
         23    2    1    2    0    0 -0.74858479912E+02  0.10631018450E+03 -0.41148178549E+03  0.44137446545E+03  0.92674223044E+02 0.  0.
          5    1    3    3  502    0  0.10221045258E+03 -0.53040728081E+02 -0.43694175350E+03  0.45188036448E+03  0.41800000000E+01 0. -1.
         -5    1    3    3    0  502 -0.27351972671E+02 -0.53269456419E+02 -0.13254303641E+03  0.14550221406E+03  0.41800000000E+01 0. -1.
        -11    1    4    4    0    0 -0.52182591126E+02  0.16295058325E+02 -0.24238950713E+03  0.24847781572E+03  0.00000000000E+00 0.  1.
         11    1    4    4    0    0 -0.22675888786E+02  0.90015126175E+02 -0.16909227837E+03  0.19289664973E+03  0.00000000000E+00 0. -1.
</event>
<event>
 8    1  0.7136454E-009  0.1184669E+03  0.7561462E-02  0.1245648E+00
          2   -1    0    0  501    0  0.00000000000E+00  0.00000000000E+00  0.89095572457E+03  0.89095572457E+03  0.00000000000E+00 0. -1.
         -2   -1    0    0    0  501 -0.00000000000E+00 -0.00000000000E+00 -0.22715262761E+02  0.22715262761E+02  0.00000000000E+00 0.  1.
         25    2    1    2    0    0 -0.76941550406E+02  0.24562875664E+02  0.56848552404E+03  0.58766222114E+03  0.12509099915E+03 0.  0.
         23    2    1    2    0    0  0.76941550406E+02 -0.24562875664E+02  0.29975493777E+03  0.32600876620E+03  0.99525654377E+02 0.  0.
          5    1    3    3  502    0 -0.46298563799E+02  0.50685033903E+02  0.12788023951E+03  0.14520109410E+03  0.41800000000E+01 0. -1.
         -5    1    3    3    0  502 -0.30642986608E+02 -0.26122158239E+02  0.44060528454E+03  0.44246112704E+03  0.41800000000E+01 0. -1.
        -11    1    4    4    0    0  0.63165100805E+02  0.31048749901E+02  0.17940883060E+03  0.19272099867E+03  0.00000000000E+00 0.  1.
         11    1    4    4    0    0  0.13776449601E+02 -0.55611625566E+02  0.12034610717E+03  0.13328776753E+03  0.00000000000E+00 0. -1.
</event>
<event>
 8    1  0.7136454E-009  0.2017128E+03  0.7561462E-02  0.1148302E+00
         -1   -1    0    0    0  501 -0.00000000000E+00  0.00000000000E+00  0.19149351640E+03  0.19149351640E+03  0.00000000000E+00 0.  1.
          1   -1    0    0  501    0  0.00000000000E+00 -0.00000000000E+00 -0.26400048238E+03  0.26400048238E+03  0.00000000000E+00 0. -1.
         25    2    1    2    0    0 -0.11053517842E+03  0.16027750982E+03 -0.82597638610E+01  0.23156727331E+03  0.12509305555E+03 0.  0.
         23    2    1    2    0    0  0.11053517842E+03 -0.16027750982E+03 -0.64247202124E+02  0.22392672547E+03  0.90047596174E+02 0.  0.
          5    1    3    3  502    0  0.73474782495E+01  0.35648768450E+02 -0.42995586044E+02  0.56488166441E+02  0.41800000000E+01 0. -1.
         -5    1    3    3    0  502 -0.11788265667E+03  0.12462874137E+03  0.34735822183E+02  0.17507910687E+03  0.41800000000E+01 0. -1.
        -11    1    4    4    0    0  0.59384717750E+02 -0.98124206928E+02  0.90620337996E+01  0.11505227136E+03  0.00000000000E+00 0.  1.
         11    1    4    4    0    0  0.51150460674E+02 -0.62153302891E+02 -0.73309235923E+02  0.10887445412E+03  0.00000000000E+00 0. -1.
</event>
<event>
 8    1  0.7136454E-009  0.1371702E+03  0.7561462E-02  0.1217188E+00
          1   -1    0    0  501    0  0.00000000000E+00  0.00000000000E+00  0.74805971714E+03  0.74805971714E+03  0.00000000000E+00 0. -1.
         -1   -1    0    0    0  501 -0.00000000000E+00 -0.00000000000E+00 -0.29833577086E+02  0.29833577086E+02  0.00000000000E+00 0.  1.
         25    2    1    2    0    0  0.58848857338E+02  0.82824035933E+02  0.43143666065E+03  0.46055217991E+03  0.12509080432E+03 0.  0.
         23    2    1    2    0    0 -0.58848857338E+02 -0.82824035933E+02  0.28678947940E+03  0.31734111431E+03  0.90189624690E+02 0.  0.
          5    1    3    3  502    0  0.20203269616E+02 -0.33026254952E+02  0.10706774268E+03  0.11392927429E+03  0.41800000000E+01 0. -1.
         -5    1    3    3    0  502  0.38645587722E+02  0.11585029088E+03  0.32436891798E+03  0.34662290562E+03  0.41800000000E+01 0. -1.
        -11    1    4    4    0    0 -0.12585555039E+02 -0.60571651087E+02  0.65188212577E+02  0.89871153158E+02  0.00000000000E+00 0.  1.
         11    1    4    4    0    0 -0.46263302299E+02 -0.22252384846E+02  0.22160126682E+03  0.22746996116E+03  0.00000000000E+00 0. -1.
</event>
<event>
 8    1  0.7136454E-009  0.1091504E+03  0.7561462E-02  0.1262151E+00
          2   -1    0    0  501    0  0.00000000000E+00  0.00000000000E+00  0.12777699217E+04  0.12777699217E+04  0.00000000000E+00 0.  1.
         -2   -1    0    0    0  501 -0.00000000000E+00 -0.00000000000E+00 -0.20555983509E+02  0.20555983509E+02  0.00000000000E+00 0. -1.
         25    2    1    2    0    0 -0.77207387337E+01 -0.33746886082E+02  0.11333499439E+04  0.11407574000E+04  0.12508752271E+03 0.  0.
         23    2    1    2    0    0  0.77207387337E+01  0.33746886082E+02  0.12386399429E+03  0.15756850514E+03  0.91033414770E+02 0.  0.
          5    1    3    3  502    0  0.51981173435E+02 -0.43036932140E+02  0.50762778145E+03  0.51211098096E+03  0.41800000000E+01 0. -1.
         -5    1    3    3    0  502 -0.59701912169E+02  0.92900460577E+01  0.62572216242E+03  0.62864641908E+03  0.41800000000E+01 0. -1.
        -11    1    4    4    0    0  0.15133161876E+02 -0.25910252159E+02  0.72622786337E+02  0.78577495829E+02  0.00000000000E+00 0.  1.
         11    1    4    4    0    0 -0.74124231422E+01  0.59657138241E+02  0.51241207950E+02  0.78991009312E+02  0.00000000000E+00 0. -1.
</event>
<event>
 8    1  0.7136454E-009  0.1603252E+03  0.7561462E-02  0.1188330E+00
         -4   -1    0    0    0  501 -0.00000000000E+00  0.00000000000E+00  0.66840254426E+02  0.66840254426E+02  0.00000000000E+00 0.  1.
          4   -1    0    0  501    0  0.00000000000E+00 -0.00000000000E+00 -0.55919737541E+03  0.55919737541E+03  0.00000000000E+00 0. -1.
         25    2    1    2    0    0 -0.63809022340E+02  0.13241106456E+03 -0.35952491333E+03  0.40805591044E+03  0.12508869411E+03 0.  0.
         23    2    1    2    0    0  0.63809022340E+02 -0.13241106456E+03 -0.13283220765E+03  0.21798171939E+03  0.90924986934E+02 0.  0.
          5    1    3    3  502    0 -0.96358927955E+01  0.37128270142E+02 -0.25031969348E+03  0.25327609484E+03  0.41800000000E+01 0. -1.
         -5    1    3    3    0  502 -0.54173129544E+02  0.95282794415E+02 -0.10920521985E+03  0.15477981561E+03  0.41800000000E+01 0. -1.
        -11    1    4    4    0    0 -0.22717706004E+02 -0.18296780271E+02 -0.28647829826E+02  0.40884770858E+02  0.00000000000E+00 0.  1.
         11    1    4    4    0    0  0.86526728344E+02 -0.11411428429E+03 -0.10418437782E+03  0.17709694853E+03  0.00000000000E+00 0. -1.
</event>
<event>
 8    1  0.7136454E-009  0.1179195E+03  0.7561462E-02  0.1246569E+00
         -1   -1    0    0    0  501 -0.00000000000E+00  0.00000000000E+00  0.68175041582E+02  0.68175041582E+02  0.00000000000E+00 0. -1.
          1   -1    0    0  501    0  0.00000000000E+00 -0.00000000000E+00 -0.23423966988E+03  0.23423966988E+03  0.00000000000E+00 0.  1.
         25    2    1    2    0    0  0.15158573005E+02 -0.43885098620E+02 -0.12582740723E+03  0.18340063644E+03  0.12509025869E+03 0.  0.
         23    2    1    2    0    0 -0.15158573005E+02  0.43885098620E+02 -0.40237221068E+02  0.11901407502E+03  0.10192954369E+03 0.  0.
          5    1    3    3  502    0  0.12253880911E+02 -0.83198493225E+02 -0.50241071565E+02  0.98049908436E+02  0.41800000000E+01 0. -1.
         -5    1    3    3    0  502  0.29046920941E+01  0.39313394605E+02 -0.75586335662E+02  0.85350728001E+02  0.41800000000E+01 0. -1.
        -11    1    4    4    0    0  0.21834700829E+01  0.75716868781E+02 -0.27890078102E+02  0.80719689148E+02  0.00000000000E+00 0.  1.
         11    1    4    4    0    0 -0.17342043088E+02 -0.31831770160E+02 -0.12347142966E+02  0.38294385874E+02  0.00000000000E+00 0. -1.
</event>
<event>
 8    1  0.7136454E-009  0.1612492E+03  0.7561462E-02  0.1187294E+00
         -1   -1    0    0    0  501 -0.00000000000E+00  0.00000000000E+00  0.65085974872E+02  0.65085974872E+02  0.00000000000E+00 0.  1.
          1   -1    0    0  501    0  0.00000000000E+00 -0.00000000000E+00 -0.41818444394E+03  0.41818444394E+03  0.00000000000E+00 0. -1.
         25    2    1    2    0    0 -0.11446863528E+03 -0.31293398893E+02 -0.13888783052E+03  0.22140429491E+03  0.12509071533E+03 0.  0.
         23    2    1    2    0    0  0.11446863528E+03  0.31293398893E+02 -0.21421063855E+03  0.26186612390E+03  0.92764885065E+02 0.  0.
          5    1    3    3  502    0 -0.84030703034E+02  0.40805507864E+02 -0.84273319113E+02  0.12587975706E+03  0.41800000000E+01 0.  1.
         -5    1    3    3    0  502 -0.30437932247E+02 -0.72098906757E+02 -0.54614511404E+02  0.95524537847E+02  0.41800000000E+01 0.  1.
        -11    1    4    4    0    0 -0.10137209329E+02 -0.14647646305E+02 -0.26081290078E+02  0.31584018861E+02  0.00000000000E+00 0.  1.
         11    1    4    4    0    0  0.12460584461E+03  0.45941045198E+02 -0.18812934847E+03  0.23028210504E+03  0.00000000000E+00 0. -1.
</event>
<event>
 8    1  0.7136454E-009  0.1210545E+03  0.7561462E-02  0.1241368E+00
          1   -1    0    0  501    0  0.00000000000E+00  0.00000000000E+00  0.95766295213E+03  0.95766295213E+03  0.00000000000E+00 0. -1.
         -1   -1    0    0    0  501 -0.00000000000E+00 -0.00000000000E+00 -0.18985349658E+02  0.18985349658E+02  0.00000000000E+00 0.  1.
         25    2    1    2    0    0  0.69621946905E+02  0.30198815473E+02  0.43297679763E+03  0.45702936310E+03  0.12509095691E+03 0.  0.
         23    2    1    2    0    0 -0.69621946905E+02 -0.30198815473E+02  0.50570080484E+03  0.51961893869E+03  0.92256996922E+02 0.  0.
          5    1    3    3  502    0  0.96371158875E+01 -0.36118023663E+02  0.25550186496E+03  0.25825580542E+03  0.41800000000E+01 0.  1.
         -5    1    3    3    0  502  0.59984831018E+02  0.66316839137E+02  0.17747493267E+03  0.19877355768E+03  0.41800000000E+01 0.  1.
        -11    1    4    4    0    0  0.24669915151E+01 -0.41874832109E+02  0.12145031688E+03  0.12849033848E+03  0.00000000000E+00 0.  1.
         11    1    4    4    0    0 -0.72088938420E+02  0.11676016636E+02  0.38425048796E+03  0.39112860022E+03  0.00000000000E+00 0. -1.
</event>
<event>
 8    1  0.7136454E-009  0.1093278E+03  0.7561462E-02  0.1261820E+00
         -2   -1    0    0    0  501 -0.00000000000E+00  0.00000000000E+00  0.35440883876E+02  0.35440883876E+02  0.00000000000E+00 0.  1.
          2   -1    0    0  501    0  0.00000000000E+00 -0.00000000000E+00 -0.63412014665E+03  0.63412014665E+03  0.00000000000E+00 0. -1.
         25    2    1    2    0    0  0.95943148603E+02  0.35000574950E+02 -0.28217331830E+03  0.32511388406E+03  0.12508848081E+03 0.  0.
         23    2    1    2    0    0 -0.95943148603E+02 -0.35000574950E+02 -0.31650594447E+03  0.34444714647E+03  0.89653197466E+02 0.  0.
          5    1    3    3  502    0  0.65679989168E+01  0.25368937717E+02  0.24057234298E+01  0.26645478338E+02  0.41800000000E+01 0.  1.
         -5    1    3    3    0  502  0.89375149686E+02  0.96316372326E+01 -0.28457904173E+03  0.29846840572E+03  0.41800000000E+01 0.  1.
        -11    1    4    4    0    0 -0.58954189420E+02 -0.21261036867E+02 -0.29051509495E+03  0.29719799550E+03  0.00000000000E+00 0. -1.
         11    1    4    4    0    0 -0.36988959183E+02 -0.13739538083E+02 -0.25990849522E+02  0.47249150967E+02  0.00000000000E+00 0.  1.
</event>
<event>
 8    1  0.7136454E-009  0.1111092E+03  0.7561462E-02  0.1258529E+00
          2   -1    0    0  501    0  0.00000000000E+00  0.00000000000E+00  0.60791960525E+03  0.60791960525E+03  0.00000000000E+00 0.  1.
         -2   -1    0    0    0  501 -0.00000000000E+00 -0.00000000000E+00 -0.49112991152E+02  0.49112991152E+02  0.00000000000E+00 0. -1.
         25    2    1    2    0    0  0.51478811755E+02  0.54221853069E+02  0.48905779502E+03  0.51030992380E+03  0.12509442053E+03 0.  0.
         23    2    1    2    0    0 -0.51478811755E+02 -0.54221853069E+02  0.69748819081E+02  0.14672267260E+03  0.10522626803E+03 0.  0.
          5    1    3    3  502    0 -0.27219267756E+02  0.16541001194E+02  0.33350345198E+02  0.46305627979E+02  0.41800000000E+01 0.  1.
         -5    1    3    3    0  502  0.78698079511E+02  0.37680851874E+02  0.45570744982E+03  0.46400429582E+03  0.41800000000E+01 0.  1.
        -11    1    4    4    0    0  0.14329211930E+02 -0.28846459662E+02  0.69044970199E+02  0.76188269828E+02  0.00000000000E+00 0.  1.
         11    1    4    4    0    0 -0.65808023685E+02 -0.25375393406E+02  0.70384888167E+00  0.70534402777E+02  0.00000000000E+00 0. -1.
</event>
<event>
 8    1  0.7136454E-009  0.9374217E+02  0.7561462E-02  0.1294034E+00
          1   -1    0    0  501    0  0.00000000000E+00  0.00000000000E+00  0.37284580619E+03  0.37284580619E+03  0.00000000000E+00 0. -1.
         -1   -1    0    0    0  501 -0.00000000000E+00 -0.00000000000E+00 -0.40016356553E+02  0.40016356553E+02  0.00000000000E+00 0.  1.
         25    2    1    2    0    0  0.64061709952E+02 -0.11194866696E+02  0.18096947596E+03  0.22940440704E+03  0.12508878055E+03 0.  0.
         23    2    1    2    0    0 -0.64061709952E+02  0.11194866696E+02  0.15185997368E+03  0.18345775570E+03  0.79787648155E+02 0.  0.
          5    1    3    3  502    0  0.69616933519E+02  0.11038415141E+02  0.19130457778E+03  0.20391978305E+03  0.41800000000E+01 0. -1.
         -5    1    3    3    0  502 -0.55552235661E+01 -0.22233281838E+02 -0.10335101823E+02  0.25484623989E+02  0.41800000000E+01 0. -1.
        -11    1    4    4    0    0 -0.89704192619E+01  0.33098902547E+02  0.96233571902E+02  0.10216117723E+03  0.00000000000E+00 0.  1.
         11    1    4    4    0    0 -0.55091290691E+02 -0.21904035851E+02  0.55626401778E+02  0.81296578472E+02  0.00000000000E+00 0. -1.
</event>
<event>
 7    1  0.7136454E-009  0.9385620E+02  0.7561462E-02  0.1293773E+00
         -1   -1    0    0    0  501 -0.00000000000E+00  0.00000000000E+00  0.24724015464E+02  0.24724015464E+02  0.00000000000E+00 0.  1.
          1   -1    0    0  501    0  0.00000000000E+00 -0.00000000000E+00 -0.53197328944E+03  0.53197328944E+03  0.00000000000E+00 0. -1.
         23    2    1    2    0    0 -0.28770120013E+02  0.15452735894E+02 -0.28010329666E+03  0.29529214888E+03  0.87596173070E+02 0.  0.
          5    1    1    2  502    0  0.28004769478E+01  0.41039758308E+02 -0.21657907470E+02  0.46675923013E+02  0.41800000000E+01 0.  1.
         -5    1    1    2    0  502  0.25969643065E+02 -0.56492494202E+02 -0.20548806985E+03  0.21472923302E+03  0.41800000000E+01 0.  1.
        -11    1    3    3    0    0 -0.37650847433E+02 -0.23309807556E+02 -0.81565621152E+02  0.92811012249E+02  0.00000000000E+00 0.  1.
         11    1    3    3    0    0  0.88807274200E+01  0.38762543450E+02 -0.19853767551E+03  0.20248113663E+03  0.00000000000E+00 0. -1.
</event>
<event>
 8    1  0.7136454E-009  0.1202068E+03  0.7561462E-02  0.1242756E+00
         -2   -1    0    0    0  501 -0.00000000000E+00  0.00000000000E+00  0.14716844914E+02  0.14716844914E+02  0.00000000000E+00 0.  1.
          2   -1    0    0  501    0  0.00000000000E+00 -0.00000000000E+00 -0.15581938968E+04  0.15581938968E+04  0.00000000000E+00 0. -1.
         25    2    1    2    0    0  0.96212143198E+01 -0.94721491342E+02 -0.10803592751E+04  0.10917363652E+04  0.12508956465E+03 0.  0.
         23    2    1    2    0    0 -0.96212143198E+01  0.94721491342E+02 -0.46311777681E+03  0.48117437650E+03  0.89364292214E+02 0.  0.
          5    1    3    3  502    0  0.28503099389E+02 -0.26431924300E+02 -0.81853909583E+02  0.90711676266E+02  0.41800000000E+01 0.  1.
         -5    1    3    3    0  502 -0.18881885069E+02 -0.68289567041E+02 -0.99850536552E+03  0.10010246890E+04  0.41800000000E+01 0.  1.
        -11    1    4    4    0    0  0.39576886615E+01 -0.17174743596E+02 -0.73149942438E+02  0.75243266781E+02  0.00000000000E+00 0.  1.
         11    1    4    4    0    0 -0.13578902981E+02  0.11189623494E+03 -0.38996783437E+03  0.40593110972E+03  0.00000000000E+00 0. -1.
</event>
<event>
 8    1  0.7136454E-009  0.2415329E+03  0.7561462E-02  0.1118776E+00
          1   -1    0    0  501    0  0.00000000000E+00  0.00000000000E+00  0.82742595365E+02  0.82742595365E+02  0.00000000000E+00 0. -1.
         -1   -1    0    0    0  501 -0.00000000000E+00 -0.00000000000E+00 -0.75338826640E+03  0.75338826640E+03  0.00000000000E+00 0.  1.
         25    2    1    2    0    0 -0.20034021508E+03  0.95063730719E+02 -0.29499680805E+03  0.38967126360E+03  0.12508901727E+03 0.  0.
         23    2    1    2    0    0  0.20034021508E+03 -0.95063730719E+02 -0.37564886299E+03  0.44645959817E+03  0.95083068198E+02 0.  0.
          5    1    3    3  502    0 -0.18127642202E+03  0.27592164955E+02 -0.19776213864E+03  0.26972171701E+03  0.41800000000E+01 0. -1.
         -5    1    3    3    0  502 -0.19063793061E+02  0.67471565765E+02 -0.97234669407E+02  0.11994954659E+03  0.41800000000E+01 0. -1.
        -11    1    4    4    0    0  0.29519381025E+02 -0.40453197725E+02 -0.33777544083E+02  0.60405111924E+02  0.00000000000E+00 0.  1.
         11    1    4    4    0    0  0.17082083405E+03 -0.54610532994E+02 -0.34187131891E+03  0.38605448625E+03  0.00000000000E+00 0. -1.
</event>
<event>
 8    1  0.7136454E-009  0.1228706E+03  0.7561462E-02  0.1238435E+00
          1   -1    0    0  501    0  0.00000000000E+00  0.00000000000E+00  0.22357222997E+03  0.22357222997E+03  0.00000000000E+00 0. -1.
         -1   -1    0    0    0  501 -0.00000000000E+00 -0.00000000000E+00 -0.83244150684E+02  0.83244150684E+02  0.00000000000E+00 0.  1.
         25    2    1    2    0    0 -0.34749689748E+02 -0.61811132092E+02  0.12679368771E+03  0.19170772257E+03  0.12508818753E+03 0.  0.
         23    2    1    2    0    0  0.34749689748E+02  0.61811132092E+02  0.13534391574E+02  0.11510865809E+03  0.89658610428E+02 0.  0.
          5    1    3    3  502    0  0.37314296278E+02  0.22363532179E+01  0.70708943077E+02  0.80091104459E+02  0.41800000000E+01 0.  1.
         -5    1    3    3    0  502 -0.72063986026E+02 -0.64047485310E+02  0.56084744638E+02  0.11161661811E+03  0.41800000000E+01 0.  1.
        -11    1    4    4    0    0 -0.13300513561E+02  0.62165921241E+02 -0.46236342238E+01  0.63740751628E+02  0.00000000000E+00 0.  1.
         11    1    4    4    0    0  0.48050203309E+02 -0.35478914861E+00  0.18158025798E+02  0.51367906462E+02  0.00000000000E+00 0. -1.
</event>
<event>
 8    1  0.7136454E-009  0.1403979E+03  0.7561462E-02  0.1212795E+00
         -2   -1    0    0    0  501 -0.00000000000E+00  0.00000000000E+00  0.58732320659E+02  0.58732320659E+02  0.00000000000E+00 0.  1.
          2   -1    0    0  501    0  0.00000000000E+00 -0.00000000000E+00 -0.35498684895E+03  0.35498684895E+03  0.00000000000E+00 0. -1.
         25    2    1    2    0    0 -0.52541267482E+02  0.79354306712E+02 -0.15365956313E+03  0.21981115610E+03  0.12509193508E+03 0.  0.
         23    2    1    2    0    0  0.52541267482E+02 -0.79354306712E+02 -0.14259496516E+03  0.19390801351E+03  0.90605203116E+02 0.  0.
          5    1    3    3  502    0  0.38817339102E+02  0.38709242715E+02 -0.72324940245E+02  0.90849109341E+02  0.41800000000E+01 0.  1.
         -5    1    3    3    0  502 -0.91358606584E+02  0.40645063996E+02 -0.81334622887E+02  0.12896204676E+03  0.41800000000E+01 0.  1.
        -11    1    4    4    0    0  0.68750126503E+02 -0.84310495284E+02 -0.98835466526E+02  0.14698057339E+03  0.00000000000E+00 0.  1.
         11    1    4    4    0    0 -0.16208859022E+02  0.49561885720E+01 -0.43759498630E+02  0.46927440120E+02  0.00000000000E+00 0. -1.
</event>
<event>
 8    1  0.7136454E-009  0.1022325E+03  0.7561462E-02  0.1275670E+00
          2   -1    0    0  501    0  0.00000000000E+00  0.00000000000E+00  0.86441681824E+03  0.86441681824E+03  0.00000000000E+00 0. -1.
         -2   -1    0    0    0  501 -0.00000000000E+00 -0.00000000000E+00 -0.16211685108E+02  0.16211685108E+02  0.00000000000E+00 0.  1.
         25    2    1    2    0    0  0.29321329086E+02  0.33699492186E+02  0.42004215189E+03  0.44054265951E+03  0.12508808646E+03 0.  0.
         23    2    1    2    0    0 -0.29321329086E+02 -0.33699492186E+02  0.42816298124E+03  0.44008584384E+03  0.91414524683E+02 0.  0.
          5    1    3    3  502    0 -0.22598090602E+01 -0.30632077783E+02  0.29288605916E+03  0.29452189559E+03  0.41800000000E+01 0.  1.
         -5    1    3    3    0  502  0.31581138146E+02  0.64331569969E+02  0.12715609272E+03  0.14602076393E+03  0.41800000000E+01 0.  1.
        -11    1    4    4    0    0  0.91315869363E+01 -0.56327428764E+02  0.23242863560E+03  0.23933080821E+03  0.00000000000E+00 0.  1.
         11    1    4    4    0    0 -0.38452916022E+02  0.22627936578E+02  0.19573434564E+03  0.20075503563E+03  0.00000000000E+00 0. -1.
</event>
<event>
 8    1  0.7136454E-009  0.8853804E+02  0.7561462E-02  0.1306431E+00
         -2   -1    0    0    0  501 -0.00000000000E+00  0.00000000000E+00  0.54445456665E+03  0.54445456665E+03  0.00000000000E+00 0.  1.
          2   -1    0    0  501    0  0.00000000000E+00 -0.00000000000E+00 -0.21195747385E+02  0.21195747385E+02  0.00000000000E+00 0. -1.
         25    2    1    2    0    0  0.12985309558E+01  0.78870531737E+01  0.31153218442E+03  0.33580418744E+03  0.12509299973E+03 0.  0.
         23    2    1    2    0    0 -0.12985309558E+01 -0.78870531737E+01  0.21172663484E+03  0.22984612659E+03  0.89090864950E+02 0.  0.
          5    1    3    3  502    0  0.39576904955E+02  0.23364007604E+02  0.39856811897E+02  0.60977422967E+02  0.41800000000E+01 0.  1.
         -5    1    3    3    0  502 -0.38278373999E+02 -0.15476954431E+02  0.27167537252E+03  0.27482676447E+03  0.41800000000E+01 0.  1.
        -11    1    4    4    0    0 -0.45106935345E+02 -0.67117375901E+01  0.11045913636E+03  0.11950273571E+03  0.00000000000E+00 0.  1.
         11    1    4    4    0    0  0.43808404389E+02 -0.11753155836E+01  0.10126749848E+03  0.11034339088E+03  0.00000000000E+00 0. -1.
</event>
<event>
 8    1  0.7136454E-009  0.1020387E+03  0.7561462E-02  0.1276066E+00
          2   -1    0    0  501    0  0.00000000000E+00  0.00000000000E+00  0.16897137694E+04  0.16897137694E+04  0.00000000000E+00 0. -1.
         -2   -1    0    0    0  501 -0.00000000000E+00 -0.00000000000E+00 -0.14283846552E+02  0.14283846552E+02  0.00000000000E+00 0.  1.
         25    2    1    2    0    0  0.74242135717E+01 -0.64745268403E+02  0.14027372559E+04  0.14098106349E+04  0.12508856280E+03 0.  0.
         23    2    1    2    0    0 -0.74242135717E+01  0.64745268403E+02  0.27269266689E+03  0.29418698097E+03  0.89093324473E+02 0.  0.
          5    1    3    3  502    0 -0.55266317841E+02 -0.25347054890E+02  0.83996153487E+03  0.84216963347E+03  0.41800000000E+01 0. -1.
         -5    1    3    3    0  502  0.62690531413E+02 -0.39398213513E+02  0.56277572104E+03  0.56764100147E+03  0.41800000000E+01 0. -1.
        -11    1    4    4    0    0  0.10328470044E+01  0.58374311928E+02  0.27675501434E+03  0.28284618616E+03  0.00000000000E+00 0. -1.
         11    1    4    4    0    0 -0.84570605761E+01  0.63709564751E+01 -0.40623474459E+01  0.11340794803E+02  0.00000000000E+00 0.  1.
</event>
<event>
 8    1  0.7136454E-009  0.7283454E+02  0.7561462E-02  0.1350711E+00
          1   -1    0    0  501    0  0.00000000000E+00  0.00000000000E+00  0.49846452401E+03  0.49846452401E+03  0.00000000000E+00 0. -1.
         -1   -1    0    0    0  501 -0.00000000000E+00 -0.00000000000E+00 -0.25932697226E+02  0.25932697226E+02  0.00000000000E+00 0.  1.
         25    2    1    2    0    0  0.27169773334E+02  0.60446768500E+01  0.27403881808E+03  0.30252143097E+03  0.12508879916E+03 0.  0.
         23    2    1    2    0    0 -0.27169773334E+02 -0.60446768500E+01  0.19849300870E+03  0.22187579027E+03  0.95155962002E+02 0.  0.
          5    1    3    3  502    0 -0.13996262238E+02  0.27577408749E+02  0.77189425598E+01  0.32147524076E+02  0.41800000000E+01 0.  1.
         -5    1    3    3    0  502  0.41166035572E+02 -0.21532731899E+02  0.26631987552E+03  0.27037390689E+03  0.41800000000E+01 0.  1.
        -11    1    4    4    0    0  0.20188380614E+02 -0.17058708131E+01  0.27589776154E+01  0.20447314360E+02  0.00000000000E+00 0.  1.
         11    1    4    4    0    0 -0.47358153948E+02 -0.43388060368E+01  0.19573403109E+03  0.20142847591E+03  0.00000000000E+00 0. -1.
</event>
<event>
 8    1  0.7136454E-009  0.1161429E+03  0.7561462E-02  0.1249599E+00
         -1   -1    0    0    0  501 -0.00000000000E+00  0.00000000000E+00  0.16157475537E+03  0.16157475537E+03  0.00000000000E+00 0.  1.
          1   -1    0    0  501    0  0.00000000000E+00 -0.00000000000E+00 -0.84509230483E+02  0.84509230483E+02  0.00000000000E+00 0. -1.
         25    2    1    2    0    0  0.19272239897E+02  0.36626605295E+02  0.32853617989E+02  0.13580520356E+03  0.12510302016E+03 0.  0.
         23    2    1    2    0    0 -0.19272239897E+02 -0.36626605295E+02  0.44211906895E+02  0.11027878229E+03  0.92161758148E+02 0.  0.
          5    1    3    3  502    0 -0.52265053786E+02  0.26954965177E+02  0.20691223690E+02  0.62480438000E+02  0.41800000000E+01 0. -1.
         -5    1    3    3    0  502  0.71537293682E+02  0.96716401179E+01  0.12162394300E+02  0.73324765564E+02  0.41800000000E+01 0. -1.
        -11    1    4    4    0    0 -0.53907393384E+02 -0.38644345569E+02  0.28433110275E+02  0.72165325925E+02  0.00000000000E+00 0. -1.
         11    1    4    4    0    0  0.34635153488E+02  0.20177402746E+01  0.15778796620E+02  0.38113456360E+02  0.00000000000E+00 0.  1.
</event>
<event>
 8    1  0.7136454E-009  0.8605704E+02  0.7561462E-02  0.1312691E+00
         -1   -1    0    0    0  501 -0.00000000000E+00  0.00000000000E+00  0.35008301032E+02  0.35008301032E+02  0.00000000000E+00 0.  1.
          1   -1    0    0  501    0  0.00000000000E+00 -0.00000000000E+00 -0.56475298519E+03  0.56475298519E+03  0.00000000000E+00 0. -1.
         25    2    1    2    0    0  0.43569331791E+02 -0.71667162476E+02 -0.25399349207E+03  0.29529365768E+03  0.12510468177E+03 0.  0.
         23    2    1    2    0    0 -0.43569331791E+02  0.71667162476E+02 -0.27575119209E+03  0.30446762854E+03  0.98119050360E+02 0.  0.
          5    1    3    3  502    0  0.16081359374E+02 -0.50047259696E+02 -0.16575006862E+02  0.55276953379E+02  0.41800000000E+01 0. -1.
         -5    1    3    3    0  502  0.27487972417E+02 -0.21619902780E+02 -0.23741848521E+03  0.24001670430E+03  0.41800000000E+01 0. -1.
        -11    1    4    4    0    0 -0.19781589298E+02  0.26008086744E+02 -0.10582298103E+02  0.34347006920E+02  0.00000000000E+00 0.  1.
         11    1    4    4    0    0 -0.23787742494E+02  0.45659075732E+02 -0.26516889398E+03  0.27012062162E+03  0.00000000000E+00 0. -1.
</event>
<event>
 8    1  0.7136454E-009  0.7874472E+02  0.7561462E-02  0.1332652E+00
          3   -1    0    0  501    0  0.00000000000E+00  0.00000000000E+00  0.32443145611E+03  0.32443145611E+03  0.00000000000E+00 0. -1.
         -3   -1    0    0    0  501 -0.00000000000E+00 -0.00000000000E+00 -0.39237318297E+02  0.39237318297E+02  0.00000000000E+00 0.  1.
         25    2    1    2    0    0 -0.22614296270E+02 -0.24315073496E+01  0.15633671341E+03  0.20150679304E+03  0.12508597465E+03 0.  0.
         23    2    1    2    0    0  0.22614296270E+02  0.24315073496E+01  0.12885742440E+03  0.16216198137E+03  0.95785978910E+02 0.  0.
          5    1    3    3  502    0 -0.43822920616E+01 -0.36462190232E+02  0.15836516062E+03  0.16262131563E+03  0.41800000000E+01 0.  1.
         -5    1    3    3    0  502 -0.18232004209E+02  0.34030682882E+02 -0.20284472044E+01  0.38885477404E+02  0.41800000000E+01 0.  1.
        -11    1    4    4    0    0  0.25147035388E+02 -0.35596422715E+02  0.11257557391E+03  0.12071759831E+03  0.00000000000E+00 0. -1.
         11    1    4    4    0    0 -0.25327391174E+01  0.38027930064E+02  0.16281850487E+02  0.41444383066E+02  0.00000000000E+00 0.  1.
</event>
<event>
 8    1  0.7136454E-009  0.1768532E+03  0.7561462E-02  0.1170884E+00
         -2   -1    0    0    0  501 -0.00000000000E+00  0.00000000000E+00  0.24173465758E+02  0.24173465758E+02  0.00000000000E+00 0.  1.
          2   -1    0    0  501    0  0.00000000000E+00 -0.00000000000E+00 -0.27547692446E+04  0.27547692446E+04  0.00000000000E+00 0. -1.
         25    2    1    2    0    0  0.53033453002E+02 -0.14592471143E+03 -0.23475378767E+04  0.23559897241E+04  0.12508768522E+03 0.  0.
         23    2    1    2    0    0 -0.53033453002E+02  0.14592471143E+03 -0.38305790216E+03  0.42295298628E+03  0.89717911506E+02 0.  0.
          5    1    3    3  502    0 -0.33002017322E+02 -0.87827174805E+01 -0.27711679287E+03  0.27924444232E+03  0.41800000000E+01 0.  1.
         -5    1    3    3    0  502  0.86035470324E+02 -0.13714199395E+03 -0.20704210838E+04  0.20767452818E+04  0.41800000000E+01 0.  1.
        -11    1    4    4    0    0 -0.22732634663E+02  0.98380659929E+02 -0.13508641676E+03  0.16865309638E+03  0.00000000000E+00 0.  1.
         11    1    4    4    0    0 -0.30300818339E+02  0.47544051505E+02 -0.24797148541E+03  0.25429988989E+03  0.00000000000E+00 0. -1.
</event>
<event>
 8    1  0.7136454E-009  0.9966150E+02  0.7561462E-02  0.1281009E+00
          2   -1    0    0  501    0  0.00000000000E+00  0.00000000000E+00  0.13438402280E+04  0.13438402280E+04  0.00000000000E+00 0. -1.
         -2   -1    0    0    0  501 -0.00000000000E+00 -0.00000000000E+00 -0.16431348671E+02  0.16431348671E+02  0.00000000000E+00 0.  1.
         25    2    1    2    0    0 -0.26349143023E+02 -0.47193812007E+02  0.11111881056E+04  0.11195125748E+04  0.12509143053E+03 0.  0.
         23    2    1    2    0    0  0.26349143023E+02  0.47193812007E+02  0.21622077378E+03  0.24075900187E+03  0.91060094101E+02 0.  0.
          5    1    3    3  502    0 -0.51583618210E+02 -0.17838466888E+02  0.19611517899E+03  0.20361168041E+03  0.41800000000E+01 0. -1.
         -5    1    3    3    0  502  0.25234475188E+02 -0.29355345119E+02  0.91507292659E+03  0.91590089442E+03  0.41800000000E+01 0. -1.
        -11    1    4    4    0    0  0.37015605305E+02  0.70716526358E+02  0.17017331638E+03  0.18796260199E+03  0.00000000000E+00 0. -1.
         11    1    4    4    0    0 -0.10666462282E+02 -0.23522714351E+02  0.46047457392E+02  0.52796399880E+02  0.00000000000E+00 0.  1.
</event>
<event>
 8    1  0.7136454E-009  0.1132754E+03  0.7561462E-02  0.1254622E+00
          2   -1    0    0  501    0  0.00000000000E+00  0.00000000000E+00  0.65485198152E+02  0.65485198152E+02  0.00000000000E+00 0. -1.
         -2   -1    0    0    0  501 -0.00000000000E+00 -0.00000000000E+00 -0.21317044059E+03  0.21317044059E+03  0.00000000000E+00 0.  1.
         25    2    1    2    0    0  0.46932518908E+02  0.28288628883E+01 -0.10258516955E+03  0.16847793763E+03  0.12510169728E+03 0.  0.
         23    2    1    2    0    0 -0.46932518908E+02 -0.28288628883E+01 -0.45100072888E+02  0.11017770111E+03  0.88850691898E+02 0.  0.
          5    1    3    3  502    0  0.87690295617E+02  0.17955551077E+02 -0.63043700109E+02  0.10956263178E+03  0.41800000000E+01 0.  1.
         -5    1    3    3    0  502 -0.40757776709E+02 -0.15126688188E+02 -0.39541469441E+02  0.58915305850E+02  0.41800000000E+01 0.  1.
        -11    1    4    4    0    0 -0.21029710227E+02  0.38861528392E+02 -0.42055922535E+02  0.61001374751E+02  0.00000000000E+00 0.  1.
         11    1    4    4    0    0 -0.25902808681E+02 -0.41690391280E+02 -0.30441503524E+01  0.49176326358E+02  0.00000000000E+00 0. -1.
</event>
<event>
 7    1  0.7136454E-009  0.1901790E+03  0.7561462E-02  0.1158300E+00
         -2   -1    0    0    0  501 -0.00000000000E+00  0.00000000000E+00  0.19342864965E+03  0.19342864965E+03  0.00000000000E+00 0. -1.
          2   -1    0    0  501    0  0.00000000000E+00 -0.00000000000E+00 -0.20635605181E+03  0.20635605181E+03  0.00000000000E+00 0.  1.
         25    2    1    2    0    0  0.48238286596E+02 -0.12875272271E+03 -0.39826903522E+02  0.19009852059E+03  0.12508824640E+03 0.  0.
          5    1    3    3  502    0 -0.39880285166E+02 -0.66472541553E+02 -0.21644849870E+02  0.80591611544E+02  0.41800000000E+01 0. -1.
         -5    1    3    3    0  502  0.88118571762E+02 -0.62280181159E+02 -0.18182053651E+02  0.10950690905E+03  0.41800000000E+01 0. -1.
        -11    1    1    2    0    0 -0.89906308267E+02  0.43558790995E+02 -0.23008626678E+02  0.10251784938E+03  0.00000000000E+00 0.  1.
         11    1    1    2    0    0  0.41668021671E+02  0.85193931717E+02  0.49908128038E+02  0.10716833150E+03  0.00000000000E+00 0. -1.
</event>
<event>
 8    1  0.7136454E-009  0.1366171E+03  0.7561462E-02  0.1217955E+00
         -1   -1    0    0    0  501 -0.00000000000E+00  0.00000000000E+00  0.28388571273E+03  0.28388571273E+03  0.00000000000E+00 0.  1.
          1   -1    0    0  501    0  0.00000000000E+00 -0.00000000000E+00 -0.72962815471E+02  0.72962815471E+02  0.00000000000E+00 0. -1.
         25    2    1    2    0    0  0.54481504111E+02  0.63646674062E+02  0.14245311548E+03  0.20726829823E+03  0.12509246154E+03 0.  0.
         23    2    1    2    0    0 -0.54481504111E+02 -0.63646674062E+02  0.68469781775E+02  0.14958022996E+03  0.10328117336E+03 0.  0.
          5    1    3    3  502    0 -0.28503159731E+02 -0.17944799000E+02  0.36284132472E+02  0.49683564637E+02  0.41800000000E+01 0. -1.
         -5    1    3    3    0  502  0.82984663842E+02  0.81591473062E+02  0.10616898301E+03  0.15758473360E+03  0.41800000000E+01 0. -1.
        -11    1    4    4    0    0 -0.99279893658E+01  0.23199454417E+02 -0.70130800128E+01  0.26190894398E+02  0.00000000000E+00 0. -1.
         11    1    4    4    0    0 -0.44553514745E+02 -0.86846128479E+02  0.75482861787E+02  0.12338933557E+03  0.00000000000E+00 0.  1.
</event>
<event>
 8    1  0.7136454E-009  0.1070087E+03  0.7561462E-02  0.1266212E+00
          1   -1    0    0  501    0  0.00000000000E+00  0.00000000000E+00  0.76546947735E+02  0.76546947735E+02  0.00000000000E+00 0. -1.
         -1   -1    0    0    0  501 -0.00000000000E+00 -0.00000000000E+00 -0.16391744599E+03  0.16391744599E+03  0.00000000000E+00 0.  1.
         25    2    1    2    0    0 -0.49920781328E+01 -0.50851322133E+01 -0.84491023719E+02  0.15111849302E+03  0.12508911396E+03 0.  0.
         23    2    1    2    0    0  0.49920781328E+01  0.50851322133E+01 -0.28794745385E+01  0.89345900705E+02  0.89014713308E+02 0.  0.
          5    1    3    3  502    0  0.49992107521E+02  0.31342108482E+02 -0.42061903536E+02  0.72582468320E+02  0.41800000000E+01 0.  1.
         -5    1    3    3    0  502 -0.54984185653E+02 -0.36427240695E+02 -0.42429120184E+02  0.78536024703E+02  0.41800000000E+01 0.  1.
        -11    1    4    4    0    0 -0.31447399611E+02  0.30924776049E+02 -0.62578046694E+01  0.44547063150E+02  0.00000000000E+00 0. -1.
         11    1    4    4    0    0  0.36439477744E+02 -0.25839643835E+02  0.33783301309E+01  0.44798837555E+02  0.00000000000E+00 0.  1.
</event>
<event>
 8    1  0.7136454E-009  0.1074220E+03  0.7561462E-02  0.1265420E+00
         -1   -1    0    0    0  501 -0.00000000000E+00  0.00000000000E+00  0.50075993406E+02  0.50075993406E+02  0.00000000000E+00 0.  1.
          1   -1    0    0  501    0  0.00000000000E+00 -0.00000000000E+00 -0.31183445844E+03  0.31183445844E+03  0.00000000000E+00 0. -1.
         25    2    1    2    0    0 -0.30646066198E+00 -0.91553480745E+01 -0.23489867520E+03  0.26628727058E+03  0.12509040150E+03 0.  0.
         23    2    1    2    0    0  0.30646066198E+00  0.91553480745E+01 -0.26859789838E+02  0.95623181265E+02  0.91315005167E+02 0.  0.
          5    1    3    3  502    0  0.39489124395E+02 -0.51364237872E+02 -0.14922397050E+03  0.16273580322E+03  0.41800000000E+01 0. -1.
         -5    1    3    3    0  502 -0.39795585057E+02  0.42208889798E+02 -0.85674704704E+02  0.10355146737E+03  0.41800000000E+01 0. -1.
        -11    1    4    4    0    0 -0.39288926035E+02 -0.18534639872E+02 -0.13579353186E+02  0.45514299040E+02  0.00000000000E+00 0.  1.
         11    1    4    4    0    0  0.39595386697E+02  0.27689987946E+02 -0.13280436653E+02  0.50108882225E+02  0.00000000000E+00 0. -1.
</event>
<event>
 8    1  0.7136454E-009  0.1031774E+03  0.7561462E-02  0.1273753E+00
          1   -1    0    0  501    0  0.00000000000E+00  0.00000000000E+00  0.11294015935E+04  0.11294015935E+04  0.00000000000E+00 0. -1.
         -1   -1    0    0    0  501 -0.00000000000E+00 -0.00000000000E+00 -0.20829429134E+02  0.20829429134E+02  0.00000000000E+00 0.  1.
         25    2    1    2    0    0 -0.36962519416E+02 -0.80205407040E+02  0.87423133041E+03  0.88754029204E+03  0.12509282857E+03 0.  0.
         23    2    1    2    0    0  0.36962519416E+02  0.80205407040E+02  0.23434083395E+03  0.26269073059E+03  0.79319974291E+02 0.  0.
          5    1    3    3  502    0 -0.60425258044E+02 -0.60566593972E+02  0.82493432330E+03  0.82936941966E+03  0.41800000000E+01 0.  1.
         -5    1    3    3    0  502  0.23462738628E+02 -0.19638813068E+02  0.49297007111E+02  0.58170872374E+02  0.41800000000E+01 0.  1.
        -11    1    4    4    0    0  0.10574342189E+02  0.42495855983E+02  0.20136397141E+03  0.20607077297E+03  0.00000000000E+00 0. -1.
         11    1    4    4    0    0  0.26388177227E+02  0.37709551057E+02  0.32976862535E+02  0.56619957620E+02  0.00000000000E+00 0.  1.
</event>
<event>
 8    1  0.7136454E-009  0.9459957E+02  0.7561462E-02  0.1292081E+00
         -4   -1    0    0    0  501 -0.00000000000E+00  0.00000000000E+00  0.45010760742E+02  0.45010760742E+02  0.00000000000E+00 0.  1.
          4   -1    0    0  501    0  0.00000000000E+00 -0.00000000000E+00 -0.37376762756E+03  0.37376762756E+03  0.00000000000E+00 0. -1.
         25    2    1    2    0    0  0.25141508612E+02 -0.59328449789E+02 -0.22556981165E+03  0.26586009470E+03  0.12509152496E+03 0.  0.
         23    2    1    2    0    0 -0.25141508612E+02  0.59328449789E+02 -0.10318705517E+03  0.15291829360E+03  0.92652446022E+02 0.  0.
          5    1    3    3  502    0  0.57528681218E+02 -0.44045120025E+02 -0.53783470129E+02  0.90330813235E+02  0.41800000000E+01 0.  1.
         -5    1    3    3    0  502 -0.32387172606E+02 -0.15283329764E+02 -0.17178634152E+03  0.17552928147E+03  0.41800000000E+01 0.  1.
        -11    1    4    4    0    0 -0.14649172677E+01  0.56732424199E+02 -0.11133401344E+02  0.57833092288E+02  0.00000000000E+00 0.  1.
         11    1    4    4    0    0 -0.23676591344E+02  0.25960255903E+01 -0.92053653821E+02  0.95085201311E+02  0.00000000000E+00 0. -1.
</event>
<event>
 8    1  0.7136454E-009  0.9429689E+02  0.7561462E-02  0.1292768E+00
          1   -1    0    0  501    0  0.00000000000E+00  0.00000000000E+00  0.12340471516E+03  0.12340471516E+03  0.00000000000E+00 0. -1.
         -1   -1    0    0    0  501 -0.00000000000E+00 -0.00000000000E+00 -0.12922937562E+03  0.12922937562E+03  0.00000000000E+00 0.  1.
         25    2    1    2    0    0  0.59104696580E+02  0.25171650111E+02 -0.17464190007E+02  0.14169910970E+03  0.12508662051E+03 0.  0.
         23    2    1    2    0    0 -0.59104696580E+02 -0.25171650111E+02  0.11639529548E+02  0.11093498108E+03  0.89688986242E+02 0.  0.
          5    1    3    3  502    0  0.52811245836E+02 -0.10200221464E+01 -0.66842365380E+02  0.85296203559E+02  0.41800000000E+01 0. -1.
         -5    1    3    3    0  502  0.62934507439E+01  0.26191672257E+02  0.49378175373E+02  0.56402906140E+02  0.41800000000E+01 0. -1.
        -11    1    4    4    0    0 -0.48433293743E+02  0.26757932064E+02  0.16385197803E+02  0.57708279980E+02  0.00000000000E+00 0.  1.
         11    1    4    4    0    0 -0.10671402837E+02 -0.51929582175E+02 -0.47456682551E+01  0.53226701105E+02  0.00000000000E+00 0. -1.
</event>
<event>
 8    1  0.7136454E-009  0.1177831E+03  0.7561462E-02  0.1246800E+00
          2   -1    0    0  501    0  0.00000000000E+00  0.00000000000E+00  0.87363593675E+02  0.87363593675E+02  0.00000000000E+00 0.  1.
         -2   -1    0    0    0  501 -0.00000000000E+00 -0.00000000000E+00 -0.22378576337E+03  0.22378576337E+03  0.00000000000E+00 0. -1.
         25    2    1    2    0    0  0.56507580278E+01 -0.88133002884E+02 -0.69545177379E+02  0.16817389438E+03  0.12508624941E+03 0.  0.
         23    2    1    2    0    0 -0.56507580278E+01  0.88133002884E+02 -0.66876992311E+02  0.14297546266E+03  0.90388569840E+02 0.  0.
          5    1    3    3  502    0  0.42720574926E+02  0.84186250437E+01 -0.42951636491E+02  0.61304455359E+02  0.41800000000E+01 0. -1.
         -5    1    3    3    0  502 -0.37069816898E+02 -0.96551627928E+02 -0.26593540888E+02  0.10686943902E+03  0.41800000000E+01 0. -1.
        -11    1    4    4    0    0 -0.38157215664E+01  0.54808733057E+02 -0.87808245033E+02  0.10358013732E+03  0.00000000000E+00 0. -1.
         11    1    4    4    0    0 -0.18350364614E+01  0.33324269827E+02  0.20931252722E+02  0.39395325342E+02  0.00000000000E+00 0.  1.
</event>
<event>
 8    1  0.7136454E-009  0.9812879E+02  0.7561462E-02  0.1284281E+00
          2   -1    0    0  501    0  0.00000000000E+00  0.00000000000E+00  0.50566011117E+03  0.50566011117E+03  0.00000000000E+00 0.  1.
         -2   -1    0    0    0  501 -0.00000000000E+00 -0.00000000000E+00 -0.30333762539E+02  0.30333762539E+02  0.00000000000E+00 0. -1.
         25    2    1    2    0    0  0.20653827356E+01 -0.23053892050E+02  0.38067389524E+03  0.40136765296E+03  0.12509048957E+03 0.  0.
         23    2    1    2    0    0 -0.20653827356E+01  0.23053892050E+02  0.94652453399E+02  0.13462622076E+03  0.92894481193E+02 0.  0.
          5    1    3    3  502    0  0.43280035333E+02 -0.57995857943E+02  0.19941612094E+03  0.21218139100E+03  0.41800000000E+01 0. -1.
         -5    1    3    3    0  502 -0.41214652597E+02  0.34941965893E+02  0.18125777430E+03  0.18918626196E+03  0.41800000000E+01 0. -1.
        -11    1    4    4    0    0  0.18964748581E+02  0.38879250484E+02  0.98918336788E+02  0.10796339731E+03  0.00000000000E+00 0.  1.
         11    1    4    4    0    0 -0.21030131317E+02 -0.15825358434E+02 -0.42658833893E+01  0.26662823441E+02  0.00000000000E+00 0. -1.
</event>
<event>
 8    1  0.7136454E-009  0.1022198E+03  0.7561462E-02  0.1275696E+00
          1   -1    0    0  501    0  0.00000000000E+00  0.00000000000E+00  0.85638805956E+03  0.85638805956E+03  0.00000000000E+00 0. -1.
         -1   -1    0    0    0  501 -0.00000000000E+00 -0.00000000000E+00 -0.19985085379E+02  0.19985085379E+02  0.00000000000E+00 0.  1.
         25    2    1    2    0    0  0.61299095783E+02 -0.41821518466E+02  0.35728458638E+03  0.38575444821E+03  0.12509036774E+03 0.  0.
         23    2    1    2    0    0 -0.61299095783E+02  0.41821518466E+02  0.47911838781E+03  0.49061869673E+03  0.75137590434E+02 0.  0.
          5    1    3    3  502    0 -0.17096252071E+02 -0.70441704482E+01  0.69209294037E+00  0.18969806663E+02  0.41800000000E+01 0. -1.
         -5    1    3    3    0  502  0.78395347854E+02 -0.34777348018E+02  0.35659249344E+03  0.36678464155E+03  0.41800000000E+01 0. -1.
        -11    1    4    4    0    0  0.11349025034E+02 -0.58072272814E+01  0.22954619712E+02  0.26257167098E+02  0.00000000000E+00 0.  1.
         11    1    4    4    0    0 -0.72648120817E+02  0.47628745747E+02  0.45616376810E+03  0.46436152963E+03  0.00000000000E+00 0. -1.
</event>
<event>
 8    1  0.7136454E-009  0.1619318E+03  0.7561462E-02  0.1186533E+00
          1   -1    0    0  501    0  0.00000000000E+00  0.00000000000E+00  0.70271874864E+03  0.70271874864E+03  0.00000000000E+00 0. -1.
         -1   -1    0    0    0  501 -0.00000000000E+00 -0.00000000000E+00 -0.48449721500E+02  0.48449721500E+02  0.00000000000E+00 0.  1.
         25    2    1    2    0    0 -0.16983660036E+02  0.14123487899E+03  0.42976832181E+03  0.46966369489E+03  0.12508972827E+03 0.  0.
         23    2    1    2    0    0  0.16983660036E+02 -0.14123487899E+03  0.22450070534E+03  0.28150477525E+03  0.92782735674E+02 0.  0.
          5    1    3    3  502    0  0.17729074458E+02 -0.21499085312E+00  0.17677737517E+03  0.17771347466E+03  0.41800000000E+01 0.  1.
         -5    1    3    3    0  502 -0.34712734494E+02  0.14144986985E+03  0.25299094664E+03  0.29195022024E+03  0.41800000000E+01 0.  1.
        -11    1    4    4    0    0  0.39640281502E+02 -0.12732823336E+03  0.21552554841E+03  0.25344643013E+03  0.00000000000E+00 0.  1.
         11    1    4    4    0    0 -0.22656621465E+02 -0.13906645631E+02  0.89751569267E+01  0.28058345119E+02  0.00000000000E+00 0. -1.
</event>
<event>
 8    1  0.7136454E-009  0.1899069E+03  0.7561462E-02  0.1158545E+00
          1   -1    0    0  501    0  0.00000000000E+00  0.00000000000E+00  0.24810204674E+03  0.24810204674E+03  0.00000000000E+00 0. -1.
         -1   -1    0    0    0  501 -0.00000000000E+00 -0.00000000000E+00 -0.23862526069E+03  0.23862526069E+03  0.00000000000E+00 0.  1.
         25    2    1    2    0    0  0.15633037749E+03  0.46157985777E+02 -0.13669855489E+03  0.24678761855E+03  0.12509151524E+03 0.  0.
         23    2    1    2    0    0 -0.15633037749E+03 -0.46157985777E+02  0.14617534095E+03  0.23993968887E+03  0.98153336263E+02 0.  0.
          5    1    3    3  502    0 -0.43773183275E+01 -0.25146129112E+02 -0.33444901869E+01  0.26079623073E+02  0.41800000000E+01 0. -1.
         -5    1    3    3    0  502  0.16070769581E+03  0.71304114889E+02 -0.13335406471E+03  0.22070799548E+03  0.41800000000E+01 0. -1.
        -11    1    4    4    0    0 -0.13019655579E+03 -0.65333730132E+02  0.14775388945E+03  0.20748699062E+03  0.00000000000E+00 0.  1.
         11    1    4    4    0    0 -0.26133821702E+02  0.19175744355E+02 -0.15785485008E+01  0.32452698250E+02  0.00000000000E+00 0. -1.
</event>
<event>
 8    1  0.7136454E-009  0.6793332E+02  0.7561462E-02  0.1367265E+00
          4   -1    0    0  501    0  0.00000000000E+00  0.00000000000E+00  0.10605161357E+03  0.10605161357E+03  0.00000000000E+00 0. -1.
         -4   -1    0    0    0  501 -0.00000000000E+00 -0.00000000000E+00 -0.22639635676E+03  0.22639635676E+03  0.00000000000E+00 0.  1.
         25    2    1    2    0    0 -0.50419194372E+01 -0.45348689942E+02 -0.17024060281E+03  0.21613153058E+03  0.12509616715E+03 0.  0.
         23    2    1    2    0    0  0.50419194372E+01  0.45348689942E+02  0.49895859630E+02  0.11631643974E+03  0.94646673028E+02 0.  0.
          5    1    3    3  502    0  0.21031245502E+02 -0.20779657702E+02  0.10633537622E+02  0.31696245581E+02  0.41800000000E+01 0. -1.
         -5    1    3    3    0  502 -0.26073164939E+02 -0.24569032240E+02 -0.18087414044E+03  0.18443528500E+03  0.41800000000E+01 0. -1.
        -11    1    4    4    0    0  0.63631721838E+01 -0.11463694797E+02 -0.21428401034E+02  0.25121358035E+02  0.00000000000E+00 0.  1.
         11    1    4    4    0    0 -0.13212527466E+01  0.56812384739E+02  0.71324260664E+02  0.91195081709E+02  0.00000000000E+00 0. -1.
</event>
<event>
 8    1  0.7136454E-009  0.9767958E+02  0.7561462E-02  0.1285253E+00
          1   -1    0    0  501    0  0.00000000000E+00  0.00000000000E+00  0.19627198966E+03  0.19627198966E+03  0.00000000000E+00 0. -1.
         -1   -1    0    0    0  501 -0.00000000000E+00 -0.00000000000E+00 -0.91131442981E+02  0.91131442981E+02  0.00000000000E+00 0.  1.
         25    2    1    2    0    0  0.19038026102E+02 -0.66684601734E+02  0.23960095535E+02  0.14501858794E+03  0.12508805748E+03 0.  0.
         23    2    1    2    0    0 -0.19038026102E+02  0.66684601734E+02  0.81180451141E+02  0.14238484470E+03  0.94201357770E+02 0.  0.
          5    1    3    3  502    0 -0.19676587403E+02 -0.38266282896E+02  0.67435623356E+02  0.80103134744E+02  0.41800000000E+01 0. -1.
         -5    1    3    3    0  502  0.38714613505E+02 -0.28418318838E+02 -0.43475527820E+02  0.64915453196E+02  0.41800000000E+01 0. -1.
        -11    1    4    4    0    0  0.30321433093E+02  0.26597994249E+02  0.65451700408E+02  0.76881517215E+02  0.00000000000E+00 0.  1.
         11    1    4    4    0    0 -0.49359459195E+02  0.40086607485E+02  0.15728750733E+02  0.65503327483E+02  0.00000000000E+00 0. -1.
</event>
<event>
 8    1  0.7136454E-009  0.1325601E+03  0.7561462E-02  0.1223706E+00
          4   -1    0    0  501    0  0.00000000000E+00  0.00000000000E+00  0.92524424662E+02  0.92524424662E+02  0.00000000000E+00 0. -1.
         -4   -1    0    0    0  501 -0.00000000000E+00 -0.00000000000E+00 -0.21621804526E+03  0.21621804526E+03  0.00000000000E+00 0.  1.
         25    2    1    2    0    0 -0.50551787260E+02 -0.67841886936E+02 -0.59030194216E+02  0.16214194146E+03  0.12508972993E+03 0.  0.
         23    2    1    2    0    0  0.50551787260E+02  0.67841886936E+02 -0.64663426378E+02  0.14660052845E+03  0.10075887759E+03 0.  0.
          5    1    3    3  502    0 -0.26867621967E+02 -0.10132986779E+03 -0.60079527168E+02  0.12089926882E+03  0.41800000000E+01 0.  1.
         -5    1    3    3    0  502 -0.23684165293E+02  0.33487980854E+02  0.10493329519E+01  0.41242672645E+02  0.41800000000E+01 0.  1.
        -11    1    4    4    0    0  0.73795029550E+02  0.57422958917E+02 -0.74235061840E+02  0.11938989490E+03  0.00000000000E+00 0.  1.
         11    1    4    4    0    0 -0.23243242289E+02  0.10418928019E+02  0.95716354623E+01  0.27210633558E+02  0.00000000000E+00 0. -1.
</event>
<event>
 8    1  0.7136454E-009  0.1108774E+03  0.7561462E-02  0.1258954E+00
         -1   -1    0    0    0  501 -0.00000000000E+00  0.00000000000E+00  0.55668565980E+02  0.55668565980E+02  0.00000000000E+00 0.  1.
          1   -1    0    0  501    0  0.00000000000E+00 -0.00000000000E+00 -0.29096718242E+03  0.29096718242E+03  0.00000000000E+00 0. -1.
         25    2    1    2    0    0  0.24159826052E+02 -0.57671551705E+02 -0.77654860362E+02  0.15995943995E+03  0.12508812901E+03 0.  0.
         23    2    1    2    0    0 -0.24159826052E+02  0.57671551705E+02 -0.15764375608E+03  0.18667630845E+03  0.78017852035E+02 0.  0.
          5    1    3    3  502    0 -0.43129000366E+02 -0.22319448016E+02 -0.67354476777E+02  0.83140642133E+02  0.41800000000E+01 0. -1.
         -5    1    3    3    0  502  0.67288826417E+02 -0.35352103689E+02 -0.10300383584E+02  0.76818797816E+02  0.41800000000E+01 0. -1.
        -11    1    4    4    0    0  0.25583991930E+02  0.85409890714E+01 -0.25206550432E+02  0.36916924601E+02  0.00000000000E+00 0. -1.
         11    1    4    4    0    0 -0.49743817981E+02  0.49130562633E+02 -0.13243720565E+03  0.14975938385E+03  0.00000000000E+00 0.  1.
</event>
<event>
 8    1  0.7136454E-009  0.1573609E+03  0.7561462E-02  0.1191709E+00
          2   -1    0    0  501    0  0.00000000000E+00  0.00000000000E+00  0.81322556400E+02  0.81322556400E+02  0.00000000000E+00 0. -1.
         -2   -1    0    0    0  501 -0.00000000000E+00 -0.00000000000E+00 -0.42086289644E+03  0.42086289644E+03  0.00000000000E+00 0.  1.
         25    2    1    2    0    0  0.13245952689E+03  0.64376604393E+02 -0.20976747695E+03  0.28520163490E+03  0.12509078587E+03 0.  0.
         23    2    1    2    0    0 -0.13245952689E+03 -0.64376604393E+02 -0.12977286309E+03  0.21698381793E+03  0.92472200119E+02 0.  0.
          5    1    3    3  502    0  0.33027055523E+01  0.24982793237E+02 -0.12073258963E+03  0.12340534194E+03  0.41800000000E+01 0. -1.
         -5    1    3    3    0  502  0.12915682134E+03  0.39393811156E+02 -0.89034887325E+02  0.16179629296E+03  0.41800000000E+01 0. -1.
        -11    1    4    4    0    0 -0.71155758384E+02 -0.94682748901E+01 -0.11203956406E+02  0.72652039337E+02  0.00000000000E+00 0. -1.
         11    1    4    4    0    0 -0.61303768504E+02 -0.54908329503E+02 -0.11856890668E+03  0.14433177860E+03  0.00000000000E+00 0.  1.
</event>
<event>
 8    1  0.7136454E-009  0.1370739E+03  0.7561462E-02  0.1217321E+00
         -2   -1    0    0    0  501 -0.00000000000E+00  0.00000000000E+00  0.15182470193E+04  0.15182470193E+04  0.00000000000E+00 0.  1.
          2   -1    0    0  501    0  0.00000000000E+00 -0.00000000000E+00 -0.22107983101E+02  0.22107983101E+02  0.00000000000E+00 0. -1.
         25    2    1    2    0    0  0.13142855070E+03 -0.36291340364E+02  0.10358660986E+04  0.10522628729E+04  0.12509218245E+03 0.  0.
         23    2    1    2    0    0 -0.13142855070E+03  0.36291340364E+02  0.46027293759E+03  0.48809212950E+03  0.88273577471E+02 0.  0.
          5    1    3    3  502    0  0.11839101148E+03 -0.33406485489E+02  0.10296015504E+04  0.10369326159E+04  0.41800000000E+01 0.  1.
         -5    1    3    3    0  502  0.13037539214E+02 -0.28848548750E+01  0.62645482172E+01  0.15330257035E+02  0.41800000000E+01 0.  1.
        -11    1    4    4    0    0 -0.11026243613E+03  0.24918813007E+02  0.44609085335E+03  0.46019104892E+03  0.00000000000E+00 0.  1.
         11    1    4    4    0    0 -0.21166114565E+02  0.11372527358E+02  0.14182084242E+02  0.27901080584E+02  0.00000000000E+00 0. -1.
</event>
<event>
 8    1  0.7136454E-009  0.1285054E+03  0.7561462E-02  0.1229690E+00
         -2   -1    0    0    0  501 -0.00000000000E+00  0.00000000000E+00  0.11321513336E+03  0.11321513336E+03  0.00000000000E+00 0.  1.
          2   -1    0    0  501    0  0.00000000000E+00 -0.00000000000E+00 -0.15848050176E+03  0.15848050176E+03  0.00000000000E+00 0. -1.
         25    2    1    2    0    0 -0.60724188377E+02 -0.31808697647E+02 -0.85356882538E+01  0.14289762629E+03  0.12509058048E+03 0.  0.
         23    2    1    2    0    0  0.60724188377E+02  0.31808697647E+02 -0.36729680153E+02  0.12879800883E+03  0.10266760626E+03 0.  0.
          5    1    3    3  502    0 -0.61058456147E+02  0.33143289566E+02  0.19120945902E+02  0.72178221663E+02  0.41800000000E+01 0. -1.
         -5    1    3    3    0  502  0.33426776981E+00 -0.64951987213E+02 -0.27656634156E+02  0.70719404626E+02  0.41800000000E+01 0. -1.
        -11    1    4    4    0    0 -0.11421924983E+02  0.47193459552E+02 -0.23142095582E+02  0.53788842548E+02  0.00000000000E+00 0. -1.
         11    1    4    4    0    0  0.72146113361E+02 -0.15384761905E+02 -0.13587584571E+02  0.75009166282E+02  0.00000000000E+00 0.  1.
</event>
<event>
 8    1  0.7136454E-009  0.9813716E+02  0.7561462E-02  0.1284263E+00
          1   -1    0    0  501    0  0.00000000000E+00  0.00000000000E+00  0.43148639596E+03  0.43148639596E+03  0.00000000000E+00 0. -1.
         -1   -1    0    0    0  501 -0.00000000000E+00 -0.00000000000E+00 -0.40285879967E+02  0.40285879967E+02  0.00000000000E+00 0.  1.
         25    2    1    2    0    0  0.10429206345E+02  0.68151788654E+02  0.31102046434E+03  0.34224670869E+03  0.12508255564E+03 0.  0.
         23    2    1    2    0    0 -0.10429206345E+02 -0.68151788654E+02  0.80180051652E+02  0.12952556724E+03  0.74797040349E+02 0.  0.
          5    1    3    3  502    0  0.38990485815E+02  0.50872420267E+02  0.30006939382E+03  0.30686703087E+03  0.41800000000E+01 0. -1.
         -5    1    3    3    0  502 -0.28561279469E+02  0.17279368387E+02  0.10951070523E+02  0.35379677816E+02  0.41800000000E+01 0. -1.
        -11    1    4    4    0    0 -0.40370153762E+02 -0.45693822017E+02  0.33089200736E+02  0.69372688362E+02  0.00000000000E+00 0. -1.
         11    1    4    4    0    0  0.29940947416E+02 -0.22457966637E+02  0.47090850917E+02  0.60152878881E+02  0.00000000000E+00 0.  1.
</event>
<event>
 8    1  0.7136454E-009  0.9645814E+02  0.7561462E-02  0.1287925E+00
          2   -1    0    0  501    0  0.00000000000E+00  0.00000000000E+00  0.47266566378E+02  0.47266566378E+02  0.00000000000E+00 0. -1.
         -2   -1    0    0    0  501 -0.00000000000E+00 -0.00000000000E+00 -0.37765101983E+03  0.37765101983E+03  0.00000000000E+00 0.  1.
         25    2    1    2    0    0 -0.52882954982E+01  0.81931937368E+01 -0.30853610877E+03  0.33307347173E+03  0.12509321590E+03 0.  0.
         23    2    1    2    0    0  0.52882954982E+01 -0.81931937368E+01 -0.21848344689E+02  0.91844114481E+02  0.88672976189E+02 0.  0.
          5    1    3    3  502    0  0.49244931816E+02  0.35494214859E+02 -0.19297599742E+03  0.20234156909E+03  0.41800000000E+01 0. -1.
         -5    1    3    3    0  502 -0.54533227314E+02 -0.27301021122E+02 -0.11556011134E+03  0.13073190265E+03  0.41800000000E+01 0. -1.
        -11    1    4    4    0    0  0.37057554693E+01  0.31248380360E+02  0.17585940145E+02  0.36048012282E+02  0.00000000000E+00 0. -1.
         11    1    4    4    0    0  0.15825400289E+01 -0.39441574097E+02 -0.39434284834E+02  0.55796102199E+02  0.00000000000E+00 0.  1.
</event>
<event>
 8    1  0.7136454E-009  0.1011739E+03  0.7561462E-02  0.1277847E+00
          1   -1    0    0  501    0  0.00000000000E+00  0.00000000000E+00  0.15955180787E+04  0.15955180787E+04  0.00000000000E+00 0. -1.
         -1   -1    0    0    0  501 -0.00000000000E+00 -0.00000000000E+00 -0.81254101356E+01  0.81254101356E+01  0.00000000000E+00 0.  1.
         25    2    1    2    0    0 -0.16302168666E+01 -0.48997989727E-01  0.11957620180E+04  0.12022894504E+04  0.12510179433E+03 0.  0.
         23    2    1    2    0    0  0.16302168666E+01  0.48997989727E-01  0.39163065061E+03  0.40135403844E+03  0.87794291763E+02 0.  0.
          5    1    3    3  502    0  0.50000959041E+02 -0.29089183602E+02  0.79966973798E+03  0.80177019074E+03  0.41800000000E+01 0. -1.
         -5    1    3    3    0  502 -0.51631175908E+02  0.29040185612E+02  0.39609227998E+03  0.40051925967E+03  0.41800000000E+01 0. -1.
        -11    1    4    4    0    0  0.41775304883E+02 -0.11243207228E+02  0.14852210534E+03  0.15469454283E+03  0.00000000000E+00 0.  1.
         11    1    4    4    0    0 -0.40145088016E+02  0.11292205218E+02  0.24310854528E+03  0.24665949561E+03  0.00000000000E+00 0. -1.
</event>
<event>
 8    1  0.7136454E-009  0.1680072E+03  0.7561462E-02  0.1179942E+00
         -1   -1    0    0    0  501 -0.00000000000E+00  0.00000000000E+00  0.25856322457E+02  0.25856322457E+02  0.00000000000E+00 0.  1.
          1   -1    0    0  501    0  0.00000000000E+00 -0.00000000000E+00 -0.12006665356E+04  0.12006665356E+04  0.00000000000E+00 0. -1.
         25    2    1    2    0    0 -0.82924017295E+02  0.10925821524E+03 -0.59654007581E+03  0.62475842292E+03  0.12509706124E+03 0.  0.
         23    2    1    2    0    0  0.82924017295E+02 -0.10925821524E+03 -0.57827013736E+03  0.60176443515E+03  0.94394562421E+02 0.  0.
          5    1    3    3  502    0 -0.41137029584E+00  0.10205130047E+03 -0.35341036611E+03  0.36787361475E+03  0.41800000000E+01 0.  1.
         -5    1    3    3    0  502 -0.82512646999E+02  0.72069147713E+01 -0.24312970969E+03  0.25688480817E+03  0.41800000000E+01 0.  1.
        -11    1    4    4    0    0  0.70276917342E+02 -0.40663162488E+02 -0.18044096296E+03  0.19786682140E+03  0.00000000000E+00 0.  1.
         11    1    4    4    0    0  0.12647099953E+02 -0.68595052752E+02 -0.39782917439E+03  0.40389761376E+03  0.00000000000E+00 0. -1.
</event>
<event>
 8    1  0.7136454E-009  0.1408061E+03  0.7561462E-02  0.1212248E+00
         -2   -1    0    0    0  501 -0.00000000000E+00  0.00000000000E+00  0.34266468135E+02  0.34266468135E+02  0.00000000000E+00 0.  1.
          2   -1    0    0  501    0  0.00000000000E+00 -0.00000000000E+00 -0.10300429826E+04  0.10300429826E+04  0.00000000000E+00 0. -1.
         25    2    1    2    0    0  0.80010324122E+01  0.11821247379E+03 -0.83368661803E+03  0.85130433237E+03  0.12508990269E+03 0.  0.
         23    2    1    2    0    0 -0.80010324122E+01 -0.11821247379E+03 -0.16208989645E+03  0.21300511838E+03  0.71132555456E+02 0.  0.
          5    1    3    3  502    0 -0.21356737905E+02  0.12952331760E+03 -0.75700835645E+03  0.76831733300E+03  0.41800000000E+01 0.  1.
         -5    1    3    3    0  502  0.29357770317E+02 -0.11310843809E+02 -0.76678261581E+02  0.82986999372E+02  0.41800000000E+01 0.  1.
        -11    1    4    4    0    0  0.88735664485E-01 -0.17033348902E+02 -0.81889258065E+02  0.83642055422E+02  0.00000000000E+00 0. -1.
         11    1    4    4    0    0 -0.80897680767E+01 -0.10117912489E+03 -0.80200638385E+02  0.12936306296E+03  0.00000000000E+00 0.  1.
</event>
<event>
 8    1  0.7136454E-009  0.9419791E+02  0.7561462E-02  0.1292993E+00
         -1   -1    0    0    0  501 -0.00000000000E+00  0.00000000000E+00  0.33667591788E+02  0.33667591788E+02  0.00000000000E+00 0.  1.
          1   -1    0    0  501    0  0.00000000000E+00 -0.00000000000E+00 -0.47504708266E+03  0.47504708266E+03  0.00000000000E+00 0. -1.
         25    2    1    2    0    0 -0.57398652233E+02 -0.88064009049E+00 -0.30191684405E+03  0.33180860802E+03  0.12509113009E+03 0.  0.
         23    2    1    2    0    0  0.57398652233E+02  0.88064009049E+00 -0.13946264682E+03  0.17690606643E+03  0.92469160676E+02 0.  0.
          5    1    3    3  502    0 -0.73207600635E+02 -0.43419393709E+02 -0.24175054093E+03  0.25633063216E+03  0.41800000000E+01 0.  1.
         -5    1    3    3    0  502  0.15808948402E+02  0.42538753619E+02 -0.60166303117E+02  0.75477975859E+02  0.41800000000E+01 0.  1.
        -11    1    4    4    0    0  0.17021379004E+02  0.24501143307E+01  0.11461449125E+02  0.20666282189E+02  0.00000000000E+00 0.  1.
         11    1    4    4    0    0  0.40377273228E+02 -0.15694742402E+01 -0.15092409594E+03  0.15623978424E+03  0.00000000000E+00 0. -1.
</event>
<event>
 8    1  0.7136454E-009  0.1082058E+03  0.7561462E-02  0.1263929E+00
          2   -1    0    0  501    0  0.00000000000E+00  0.00000000000E+00  0.25717776128E+03  0.25717776128E+03  0.00000000000E+00 0. -1.
         -2   -1    0    0    0  501 -0.00000000000E+00 -0.00000000000E+00 -0.91287566800E+02  0.91287566800E+02  0.00000000000E+00 0.  1.
         25    2    1    2    0    0 -0.40952418449E+02 -0.52030581313E+02 -0.72361913690E+01  0.14171874618E+03  0.12509020179E+03 0.  0.
         23    2    1    2    0    0  0.40952418449E+02  0.52030581313E+02  0.17312638585E+03  0.20674658190E+03  0.91581229967E+02 0.  0.
          5    1    3    3  502    0  0.41477003567E+02 -0.21597551170E+02 -0.23112436518E+02  0.52330231829E+02  0.41800000000E+01 0. -1.
         -5    1    3    3    0  502 -0.82429422016E+02 -0.30433030143E+02  0.15876245149E+02  0.89388514350E+02  0.41800000000E+01 0. -1.
        -11    1    4    4    0    0  0.49489302705E+01 -0.92096146974E+01 -0.73579612880E+01  0.12784698198E+02  0.00000000000E+00 0.  1.
         11    1    4    4    0    0  0.36003488178E+02  0.61240196011E+02  0.18048434714E+03  0.19396188370E+03  0.00000000000E+00 0. -1.
</event>
<event>
 8    1  0.7136454E-009  0.1347272E+03  0.7561462E-02  0.1220605E+00
          2   -1    0    0  501    0  0.00000000000E+00  0.00000000000E+00  0.13710279618E+04  0.13710279618E+04  0.00000000000E+00 0.  1.
         -2   -1    0    0    0  501 -0.00000000000E+00 -0.00000000000E+00 -0.28575510817E+02  0.28575510817E+02  0.00000000000E+00 0. -1.
         25    2    1    2    0    0  0.85115788127E+02 -0.16030351541E+02  0.11962585231E+04  0.12058955975E+04  0.12509224044E+03 0.  0.
         23    2    1    2    0    0 -0.85115788127E+02  0.16030351541E+02  0.14619392792E+03  0.19370787507E+03  0.92996810402E+02 0.  0.
          5    1    3    3  502    0  0.48237511197E+02 -0.69301492313E+02  0.78570964365E+03  0.79024469049E+03  0.41800000000E+01 0.  1.
         -5    1    3    3    0  502  0.36878276931E+02  0.53271140772E+02  0.41054887941E+03  0.41565090705E+03  0.41800000000E+01 0.  1.
        -11    1    4    4    0    0 -0.59332695622E+00  0.33645309316E+02  0.15447524572E+02  0.37026813140E+02  0.00000000000E+00 0. -1.
         11    1    4    4    0    0 -0.84522461171E+02 -0.17614957775E+02  0.13074640335E+03  0.15668106193E+03  0.00000000000E+00 0.  1.
</event>
<event>
 8    1  0.7136454E-009  0.8459446E+02  0.7561462E-02  0.1316496E+00
          2   -1    0    0  501    0  0.00000000000E+00  0.00000000000E+00  0.13893222660E+03  0.13893222660E+03  0.00000000000E+00 0.  1.
         -2   -1    0    0    0  501 -0.00000000000E+00 -0.00000000000E+00 -0.97163439941E+02  0.97163439941E+02  0.00000000000E+00 0. -1.
         25    2    1    2    0    0  0.24653982130E+01  0.34363072086E+02  0.47010432356E+02  0.13800155020E+03  0.12509016026E+03 0.  0.
         23    2    1    2    0    0 -0.24653982130E+01 -0.34363072086E+02 -0.52416456993E+01  0.98094116343E+02  0.91695593678E+02 0.  0.
          5    1    3    3  502    0  0.34710659190E+02  0.54146519542E+02  0.68694708434E+02  0.94197191077E+02  0.41800000000E+01 0.  1.
         -5    1    3    3    0  502 -0.32245260977E+02 -0.19783447456E+02 -0.21684276078E+02  0.43804359118E+02  0.41800000000E+01 0.  1.
        -11    1    4    4    0    0  0.24669007994E+02 -0.30562517070E+02  0.32828585452E+02  0.51189290168E+02  0.00000000000E+00 0.  1.
         11    1    4    4    0    0 -0.27134406207E+02 -0.38005550159E+01 -0.38070231152E+02  0.46904826175E+02  0.00000000000E+00 0. -1.
</event>
<event>
 8    1  0.7136454E-009  0.1880901E+03  0.7561462E-02  0.1160195E+00
         -2   -1    0    0    0  501 -0.00000000000E+00  0.00000000000E+00  0.53394859139E+02  0.53394859139E+02  0.00000000000E+00 0.  1.
          2   -1    0    0  501    0  0.00000000000E+00 -0.00000000000E+00 -0.10865827262E+04  0.10865827262E+04  0.00000000000E+00 0. -1.
         25    2    1    2    0    0  0.15819249402E+03  0.19266042253E+02 -0.87195523097E+03  0.89517854626E+03  0.12507061731E+03 0.  0.
         23    2    1    2    0    0 -0.15819249402E+03 -0.19266042253E+02 -0.16123263605E+03  0.24479903904E+03  0.92382687979E+02 0.  0.
          5    1    3    3  502    0  0.54918603971E+02 -0.50560089628E+02 -0.40542922785E+03  0.41226533558E+03  0.41800000000E+01 0. -1.
         -5    1    3    3    0  502  0.10327389005E+03  0.69826131881E+02 -0.46652600312E+03  0.48291321068E+03  0.41800000000E+01 0. -1.
        -11    1    4    4    0    0 -0.74156866209E+02  0.29167463971E+02 -0.38883635001E+02  0.88667462077E+02  0.00000000000E+00 0.  1.
         11    1    4    4    0    0 -0.84035627815E+02 -0.48433506224E+02 -0.12234900105E+03  0.15613157696E+03  0.00000000000E+00 0. -1.
</event>
<event>
 7    1  0.7136454E-009  0.1103956E+03  0.7561462E-02  0.1259839E+00
         -1   -1    0    0    0  501 -0.00000000000E+00  0.00000000000E+00  0.41441778021E+03  0.41441778021E+03  0.00000000000E+00 0.  1.
          1   -1    0    0  501    0  0.00000000000E+00 -0.00000000000E+00 -0.41928996746E+02  0.41928996746E+02  0.00000000000E+00 0. -1.
         23    2    1    2    0    0 -0.43868448924E+02  0.61484482342E+01  0.27031920380E+03  0.28899665548E+03  0.92110535262E+02 0.  0.
          5    1    1    2  502    0 -0.37588041336E+02  0.19160949986E+02  0.56092662320E+02  0.70312602156E+02  0.41800000000E+01 0.  1.
         -5    1    1    2    0  502  0.81456490260E+02 -0.25309398220E+02  0.46076917336E+02  0.97037519316E+02  0.41800000000E+01 0.  1.
        -11    1    3    3    0    0 -0.64408446777E+02  0.20890332147E+02  0.13166065021E+03  0.14805195307E+03  0.00000000000E+00 0. -1.
         11    1    3    3    0    0  0.20539997853E+02 -0.14741883913E+02  0.13865855359E+03  0.14094470241E+03  0.00000000000E+00 0.  1.
</event>
<event>
 8    1  0.7136454E-009  0.1158228E+03  0.7561462E-02  0.1250152E+00
          1   -1    0    0  501    0  0.00000000000E+00  0.00000000000E+00  0.11473837346E+03  0.11473837346E+03  0.00000000000E+00 0. -1.
         -1   -1    0    0    0  501 -0.00000000000E+00 -0.00000000000E+00 -0.13612771931E+03  0.13612771931E+03  0.00000000000E+00 0.  1.
         25    2    1    2    0    0  0.28403811561E+02  0.35281958702E+02  0.30729087351E+02  0.13654673066E+03  0.12509652162E+03 0.  0.
         23    2    1    2    0    0 -0.28403811561E+02 -0.35281958702E+02 -0.52118433200E+02  0.11431936212E+03  0.91109781886E+02 0.  0.
          5    1    3    3  502    0 -0.30534271819E+02 -0.29439139192E+02  0.23359418592E+02  0.48601846764E+02  0.41800000000E+01 0.  1.
         -5    1    3    3    0  502  0.58938083381E+02  0.64721097894E+02  0.73696687590E+01  0.87944883893E+02  0.41800000000E+01 0.  1.
        -11    1    4    4    0    0 -0.58161313666E+02 -0.41279796561E+01 -0.34680412879E+02  0.67841798774E+02  0.00000000000E+00 0. -1.
         11    1    4    4    0    0  0.29757502105E+02 -0.31153979046E+02 -0.17438020321E+02  0.46477563347E+02  0.00000000000E+00 0.  1.
</event>
<event>
 8    1  0.7136454E-009  0.8654220E+02  0.7561462E-02  0.1311448E+00
         -1   -1    0    0    0  501 -0.00000000000E+00  0.00000000000E+00  0.17101388514E+03  0.17101388514E+03  0.00000000000E+00 0.  1.
          1   -1    0    0  501    0  0.00000000000E+00 -0.00000000000E+00 -0.77356328100E+02  0.77356328100E+02  0.00000000000E+00 0. -1.
         25    2    1    2    0    0 -0.28131864547E+02 -0.26043039638E+02  0.66485559625E+02  0.14673706358E+03  0.12506715985E+03 0.  0.
         23    2    1    2    0    0  0.28131864547E+02  0.26043039638E+02  0.27171997417E+02  0.10163314966E+03  0.90118466197E+02 0.  0.
          5    1    3    3  502    0 -0.65938942019E+02 -0.47674860730E+02  0.62713043370E+02  0.10281650952E+03  0.41800000000E+01 0.  1.
         -5    1    3    3    0  502  0.37807077472E+02  0.21631821092E+02  0.37725162556E+01  0.43920554068E+02  0.41800000000E+01 0.  1.
        -11    1    4    4    0    0  0.59198980128E+01  0.24916218487E+02 -0.30497232690E+02  0.39823916657E+02  0.00000000000E+00 0. -1.
         11    1    4    4    0    0  0.22211966534E+02  0.11268211514E+01  0.57669230107E+02  0.61809233003E+02  0.00000000000E+00 0.  1.
</event>
<event>
 8    1  0.7136454E-009  0.1459508E+03  0.7561462E-02  0.1205539E+00
         -1   -1    0    0    0  501 -0.00000000000E+00  0.00000000000E+00  0.21587304382E+03  0.21587304382E+03  0.00000000000E+00 0.  1.
          1   -1    0    0  501    0  0.00000000000E+00 -0.00000000000E+00 -0.10090182294E+03  0.10090182294E+03  0.00000000000E+00 0. -1.
         25    2    1    2    0    0  0.82463004415E+02  0.54902818918E+02  0.66687540382E+02  0.17294331274E+03  0.12509074608E+03 0.  0.
         23    2    1    2    0    0 -0.82463004415E+02 -0.54902818918E+02  0.48283680496E+02  0.14383155402E+03  0.92421509984E+02 0.  0.
          5    1    3    3  502    0  0.99885733985E+02 -0.12730927427E+00  0.29825706222E+02  0.10432747104E+03  0.41800000000E+01 0. -1.
         -5    1    3    3    0  502 -0.17422729570E+02  0.55030128193E+02  0.36861834160E+02  0.68615841700E+02  0.41800000000E+01 0. -1.
        -11    1    4    4    0    0 -0.81405888823E+02 -0.76928417406E+02  0.32208186802E+02  0.11654298536E+03  0.00000000000E+00 0. -1.
         11    1    4    4    0    0 -0.10571155927E+01  0.22025598487E+02  0.16075493694E+02  0.27288568662E+02  0.00000000000E+00 0.  1.
</event>
<event>
 8    1  0.7136454E-009  0.8750195E+02  0.7561462E-02  0.1309016E+00
         -2   -1    0    0    0  501 -0.00000000000E+00  0.00000000000E+00  0.33410885523E+02  0.33410885523E+02  0.00000000000E+00 0.  1.
          2   -1    0    0  501    0  0.00000000000E+00 -0.00000000000E+00 -0.39475133666E+03  0.39475133666E+03  0.00000000000E+00 0. -1.
         25    2    1    2    0    0  0.13215334747E+02  0.28047845521E+02 -0.25536192316E+03  0.28603930868E+03  0.12508975818E+03 0.  0.
         23    2    1    2    0    0 -0.13215334747E+02 -0.28047845521E+02 -0.10597852797E+03  0.14212291350E+03  0.89477077727E+02 0.  0.
          5    1    3    3  502    0  0.23943883183E+02  0.50318832194E+02 -0.38799904554E+02  0.68030870997E+02  0.41800000000E+01 0.  1.
         -5    1    3    3    0  502 -0.10728548436E+02 -0.22270986673E+02 -0.21656201861E+03  0.21800843768E+03  0.41800000000E+01 0.  1.
        -11    1    4    4    0    0 -0.50732206247E+02 -0.75242066488E+01 -0.49474256774E+02  0.71260595842E+02  0.00000000000E+00 0.  1.
         11    1    4    4    0    0  0.37516871499E+02 -0.20523638872E+02 -0.56504271199E+02  0.70862317655E+02  0.00000000000E+00 0. -1.
</event>
<event>
 8    1  0.7136454E-009  0.1366368E+03  0.7561462E-02  0.1217927E+00
          1   -1    0    0  501    0  0.00000000000E+00  0.00000000000E+00  0.23302224482E+03  0.23302224482E+03  0.00000000000E+00 0. -1.
         -1   -1    0    0    0  501 -0.00000000000E+00 -0.00000000000E+00 -0.11208117261E+03  0.11208117261E+03  0.00000000000E+00 0.  1.
         25    2    1    2    0    0 -0.58266089935E+02 -0.97333829705E+02  0.25568734000E+02  0.17079066749E+03  0.12508749058E+03 0.  0.
         23    2    1    2    0    0  0.58266089935E+02  0.97333829705E+02  0.95372338207E+02  0.17431274994E+03  0.91761867111E+02 0.  0.
          5    1    3    3  502    0 -0.68453495334E+02 -0.95941523187E+02 -0.23697115351E+02  0.12028999364E+03  0.41800000000E+01 0. -1.
         -5    1    3    3    0  502  0.10187405399E+02 -0.13923065177E+01  0.49265849351E+02  0.50500673842E+02  0.41800000000E+01 0. -1.
        -11    1    4    4    0    0 -0.31982437151E-01 -0.16419448154E+02  0.32111779127E+01  0.16730539864E+02  0.00000000000E+00 0.  1.
         11    1    4    4    0    0  0.58298072372E+02  0.11375327786E+03  0.92161160294E+02  0.15758221008E+03  0.00000000000E+00 0. -1.
</event>
<event>
 8    1  0.7136454E-009  0.9102472E+02  0.7561462E-02  0.1300389E+00
         -2   -1    0    0    0  501 -0.00000000000E+00  0.00000000000E+00  0.11584682234E+03  0.11584682234E+03  0.00000000000E+00 0.  1.
          2   -1    0    0  501    0  0.00000000000E+00 -0.00000000000E+00 -0.13452971513E+03  0.13452971513E+03  0.00000000000E+00 0. -1.
         25    2    1    2    0    0 -0.15479098363E+02  0.29759639718E+02 -0.63556109699E+02  0.14426014851E+03  0.12508546168E+03 0.  0.
         23    2    1    2    0    0  0.15479098363E+02 -0.29759639718E+02  0.44873216910E+02  0.10611638897E+03  0.90121272568E+02 0.  0.
          5    1    3    3  502    0  0.86523807733E+01 -0.45901845877E+02 -0.88243312847E+01  0.47719853002E+02  0.41800000000E+01 0.  1.
         -5    1    3    3    0  502 -0.24131479136E+02  0.75661485595E+02 -0.54731778414E+02  0.96540295504E+02  0.41800000000E+01 0.  1.
        -11    1    4    4    0    0 -0.63399245289E+01  0.90818015141E+01 -0.22654434043E+02  0.25217001082E+02  0.00000000000E+00 0. -1.
         11    1    4    4    0    0  0.21819022891E+02 -0.38841441232E+02  0.67527650953E+02  0.80899387885E+02  0.00000000000E+00 0.  1.
</event>
<event>
 8    1  0.7136454E-009  0.9167242E+02  0.7561462E-02  0.1298851E+00
          2   -1    0    0  501    0  0.00000000000E+00  0.00000000000E+00  0.10320230547E+03  0.10320230547E+03  0.00000000000E+00 0.  1.
         -2   -1    0    0    0  501 -0.00000000000E+00 -0.00000000000E+00 -0.13771637388E+03  0.13771637388E+03  0.00000000000E+00 0. -1.
         25    2    1    2    0    0  0.14961017154E+02  0.15898391478E+01 -0.65855019837E+02  0.14216216892E+03  0.12508732554E+03 0.  0.
         23    2    1    2    0    0 -0.14961017154E+02 -0.15898391478E+01  0.31340951428E+02  0.98756510430E+02  0.92435023088E+02 0.  0.
          5    1    3    3  502    0  0.18108650316E+02 -0.47390557273E+02 -0.76382404687E+02  0.91790698225E+02  0.41800000000E+01 0.  1.
         -5    1    3    3    0  502 -0.31476331628E+01  0.48980396421E+02  0.10527384850E+02  0.50371470694E+02  0.41800000000E+01 0.  1.
        -11    1    4    4    0    0 -0.45314933583E+02 -0.17900839107E+02  0.40212758322E+02  0.63173959653E+02  0.00000000000E+00 0.  1.
         11    1    4    4    0    0  0.30353916429E+02  0.16310999959E+02 -0.88718068942E+01  0.35582550778E+02  0.00000000000E+00 0. -1.
</event>
<event>
 8    1  0.7136454E-009  0.1131969E+03  0.7561462E-02  0.1254762E+00
          1   -1    0    0  501    0  0.00000000000E+00  0.00000000000E+00  0.43430880270E+03  0.43430880270E+03  0.00000000000E+00 0. -1.
         -1   -1    0    0    0  501 -0.00000000000E+00 -0.00000000000E+00 -0.33367735882E+02  0.33367735882E+02  0.00000000000E+00 0.  1.
         25    2    1    2    0    0 -0.38700548824E+02  0.28470312640E+02  0.20404083322E+03  0.24410811418E+03  0.12509124114E+03 0.  0.
         23    2    1    2    0    0  0.38700548824E+02 -0.28470312640E+02  0.19690023361E+03  0.22356842440E+03  0.94365498010E+02 0.  0.
          5    1    3    3  502    0 -0.78883998825E+02  0.13103465717E+02  0.17378953696E+03  0.19134957968E+03  0.41800000000E+01 0.  1.
         -5    1    3    3    0  502  0.40183450001E+02  0.15366846923E+02  0.30251296252E+02  0.52758534507E+02  0.41800000000E+01 0.  1.
        -11    1    4    4    0    0 -0.24004690055E+02 -0.32335027666E+02  0.10297096036E+03  0.11056580772E+03  0.00000000000E+00 0.  1.
         11    1    4    4    0    0  0.62705238879E+02  0.38647150257E+01  0.93929273246E+02  0.11300261668E+03  0.00000000000E+00 0. -1.
</event>
<event>
 8    1  0.7136454E-009  0.8986833E+02  0.7561462E-02  0.1303171E+00
         -2   -1    0    0    0  501 -0.00000000000E+00  0.00000000000E+00  0.10527213332E+03  0.10527213332E+03  0.00000000000E+00 0.  1.
          2   -1    0    0  501    0  0.00000000000E+00 -0.00000000000E+00 -0.11805542278E+03  0.11805542278E+03  0.00000000000E+00 0. -1.
         25    2    1    2    0    0  0.14167956740E+01  0.86477235782E+01 -0.30144301434E+02  0.12896686267E+03  0.12508789839E+03 0.  0.
         23    2    1    2    0    0 -0.14167956740E+01 -0.86477235782E+01  0.17361011982E+02  0.94360693431E+02  0.92334962472E+02 0.  0.
          5    1    3    3  502    0 -0.18277813559E+02 -0.43726833951E+02 -0.50402473797E+02  0.69310866686E+02  0.41800000000E+01 0.  1.
         -5    1    3    3    0  502  0.19694609233E+02  0.52374557529E+02  0.20258172363E+02  0.59655995983E+02  0.41800000000E+01 0.  1.
        -11    1    4    4    0    0  0.36395697715E+02  0.29025696003E+01  0.35442877889E+02  0.50884863324E+02  0.00000000000E+00 0.  1.
         11    1    4    4    0    0 -0.37812493389E+02 -0.11550293179E+02 -0.18081865907E+02  0.43475830107E+02  0.00000000000E+00 0. -1.
</event>
<event>
 8    1  0.7136454E-009  0.9728221E+02  0.7561462E-02  0.1286117E+00
         -4   -1    0    0    0  501 -0.00000000000E+00  0.00000000000E+00  0.11979481035E+03  0.11979481035E+03  0.00000000000E+00 0.  1.
          4   -1    0    0  501    0  0.00000000000E+00 -0.00000000000E+00 -0.19587628709E+03  0.19587628709E+03  0.00000000000E+00 0. -1.
         25    2    1    2    0    0  0.42307411508E+02 -0.26814649863E+02  0.58137382340E+02  0.14678901395E+03  0.12513239739E+03 0.  0.
         23    2    1    2    0    0 -0.42307411508E+02  0.26814649863E+02 -0.13421885907E+03  0.16888208349E+03  0.89428817928E+02 0.  0.
          5    1    3    3  502    0  0.48126398247E+02 -0.49594234006E+02 -0.14145857789E+02  0.70663398923E+02  0.41800000000E+01 0. -1.
         -5    1    3    3    0  502 -0.58189867395E+01  0.22779584142E+02  0.72283240129E+02  0.76125615031E+02  0.41800000000E+01 0. -1.
        -11    1    4    4    0    0  0.16530248147E+02  0.38109091266E+02 -0.67060570179E+02  0.78883914797E+02  0.00000000000E+00 0.  1.
         11    1    4    4    0    0 -0.58837659655E+02 -0.11294441403E+02 -0.67158288893E+02  0.89998168689E+02  0.00000000000E+00 0. -1.
</event>
<event>
 8    1  0.7136454E-009  0.1727986E+03  0.7561462E-02  0.1174960E+00
          1   -1    0    0  501    0  0.00000000000E+00  0.00000000000E+00  0.21467621275E+03  0.21467621275E+03  0.00000000000E+00 0. -1.
         -1   -1    0    0    0  501 -0.00000000000E+00 -0.00000000000E+00 -0.25615605901E+03  0.25615605901E+03  0.00000000000E+00 0.  1.
         25    2    1    2    0    0  0.10237348129E+03  0.12575105583E+03 -0.15061029275E+03  0.25421395445E+03  0.12509043386E+03 0.  0.
         23    2    1    2    0    0 -0.10237348129E+03 -0.12575105583E+03  0.10913044649E+03  0.21661831731E+03  0.93382992728E+02 0.  0.
          5    1    3    3  502    0  0.81953405798E+02  0.10646921853E+03 -0.17226408840E+03  0.21850502001E+03  0.41800000000E+01 0.  1.
         -5    1    3    3    0  502  0.20420075493E+02  0.19281837300E+02  0.21653795653E+02  0.35708934443E+02  0.41800000000E+01 0.  1.
        -11    1    4    4    0    0 -0.87614014713E+02 -0.40963430720E+02  0.34444694778E+02  0.10266769321E+03  0.00000000000E+00 0.  1.
         11    1    4    4    0    0 -0.14759466579E+02 -0.84787625108E+02  0.74685751708E+02  0.11395062410E+03  0.00000000000E+00 0. -1.
</event>
<event>
 8    1  0.7136454E-009  0.1159065E+03  0.7561462E-02  0.1250007E+00
         -1   -1    0    0    0  501 -0.00000000000E+00  0.00000000000E+00  0.47254456781E+03  0.47254456781E+03  0.00000000000E+00 0.  1.
          1   -1    0    0  501    0  0.00000000000E+00 -0.00000000000E+00 -0.77631986652E+02  0.77631986652E+02  0.00000000000E+00 0. -1.
         25    2    1    2    0    0  0.66646149277E+02  0.69870300489E+02  0.28528214651E+02  0.16057470663E+03  0.12508720667E+03 0.  0.
         23    2    1    2    0    0 -0.66646149277E+02 -0.69870300489E+02  0.36638436650E+03  0.38960184783E+03  0.90711232551E+02 0.  0.
          5    1    3    3  502    0  0.54606388450E+02  0.67162202970E+02  0.73575290564E+02  0.11368119875E+03  0.41800000000E+01 0.  1.
         -5    1    3    3    0  502  0.12039760827E+02  0.27080975189E+01 -0.45047075913E+02  0.46893507879E+02  0.41800000000E+01 0.  1.
        -11    1    4    4    0    0 -0.78750148506E+02 -0.20617155834E+02  0.21151833095E+03  0.22664213495E+03  0.00000000000E+00 0. -1.
         11    1    4    4    0    0  0.12103999229E+02 -0.49253144656E+02  0.15486603555E+03  0.16295971289E+03  0.00000000000E+00 0.  1.
</event>
<event>
 8    1  0.7136454E-009  0.1275685E+03  0.7561462E-02  0.1231109E+00
          1   -1    0    0  501    0  0.00000000000E+00  0.00000000000E+00  0.30687794618E+03  0.30687794618E+03  0.00000000000E+00 0. -1.
         -1   -1    0    0    0  501 -0.00000000000E+00 -0.00000000000E+00 -0.62019395427E+02  0.62019395427E+02  0.00000000000E+00 0.  1.
         25    2    1    2    0    0  0.26087867577E+02  0.68336318893E+02  0.77647665953E+02  0.16440327206E+03  0.12509534972E+03 0.  0.
         23    2    1    2    0    0 -0.26087867577E+02 -0.68336318893E+02  0.16721088480E+03  0.20449406955E+03  0.92238360616E+02 0.  0.
          5    1    3    3  502    0 -0.48276225388E+02  0.87202086944E+01  0.21690167381E+02  0.53801224321E+02  0.41800000000E+01 0.  1.
         -5    1    3    3    0  502  0.74364092966E+02  0.59616110199E+02  0.55957498572E+02  0.11060204774E+03  0.41800000000E+01 0.  1.
        -11    1    4    4    0    0  0.26485747972E+02 -0.46618235009E+02  0.11667582282E+03  0.12840561636E+03  0.00000000000E+00 0. -1.
         11    1    4    4    0    0 -0.52573615549E+02 -0.21718083884E+02  0.50535061982E+02  0.76088453192E+02  0.00000000000E+00 0.  1.
</event>
<event>
 8    1  0.7136454E-009  0.1171812E+03  0.7561462E-02  0.1247821E+00
          1   -1    0    0  501    0  0.00000000000E+00  0.00000000000E+00  0.34682219079E+03  0.34682219079E+03  0.00000000000E+00 0. -1.
         -1   -1    0    0    0  501 -0.00000000000E+00 -0.00000000000E+00 -0.53512139914E+02  0.53512139914E+02  0.00000000000E+00 0.  1.
         25    2    1    2    0    0 -0.67834596400E+02 -0.21494971670E+02  0.10829223877E+03  0.18010226638E+03  0.12508417606E+03 0.  0.
         23    2    1    2    0    0  0.67834596400E+02  0.21494971670E+02  0.18501781211E+03  0.22023206433E+03  0.95953140045E+02 0.  0.
          5    1    3    3  502    0 -0.78739183920E+02  0.20879836407E+02  0.23978737759E+02  0.85019285561E+02  0.41800000000E+01 0. -1.
         -5    1    3    3    0  502  0.10904587519E+02 -0.42374808077E+02  0.84313501011E+02  0.95082980819E+02  0.41800000000E+01 0. -1.
        -11    1    4    4    0    0  0.71357485751E+02 -0.14380460631E+02  0.75247122060E+02  0.10469392437E+03  0.00000000000E+00 0.  1.
         11    1    4    4    0    0 -0.35228893509E+01  0.35875432301E+02  0.10977069005E+03  0.11553813996E+03  0.00000000000E+00 0. -1.
</event>
<event>
 8    1  0.7136454E-009  0.8492147E+02  0.7561462E-02  0.1315638E+00
         -2   -1    0    0    0  501 -0.00000000000E+00  0.00000000000E+00  0.28617576561E+02  0.28617576561E+02  0.00000000000E+00 0.  1.
          2   -1    0    0  501    0  0.00000000000E+00 -0.00000000000E+00 -0.53455165505E+03  0.53455165505E+03  0.00000000000E+00 0. -1.
         25    2    1    2    0    0  0.11709762171E+01 -0.86424453590E+01 -0.34800730745E+03  0.36990909888E+03  0.12509033674E+03 0.  0.
         23    2    1    2    0    0 -0.11709762171E+01  0.86424453590E+01 -0.15792677103E+03  0.19326013273E+03  0.11105201865E+03 0.  0.
          5    1    3    3  502    0 -0.11605187131E+02  0.22916607112E+02 -0.33026641074E+03  0.33129024391E+03  0.41800000000E+01 0.  1.
         -5    1    3    3    0  502  0.12776163348E+02 -0.31559052471E+02 -0.17740896715E+02  0.38618854967E+02  0.41800000000E+01 0.  1.
        -11    1    4    4    0    0 -0.41420224618E+02  0.40691751766E+02 -0.65929419398E+02  0.87852956759E+02  0.00000000000E+00 0.  1.
         11    1    4    4    0    0  0.40249248401E+02 -0.32049306407E+02 -0.91997351634E+02  0.10540717597E+03  0.00000000000E+00 0. -1.
</event>
<event>
 8    1  0.7136454E-009  0.8618163E+02  0.7561462E-02  0.1312371E+00
          3   -1    0    0  501    0  0.00000000000E+00  0.00000000000E+00  0.52409045154E+02  0.52409045154E+02  0.00000000000E+00 0. -1.
         -3   -1    0    0    0  501 -0.00000000000E+00 -0.00000000000E+00 -0.30213073149E+03  0.30213073149E+03  0.00000000000E+00 0.  1.
         25    2    1    2    0    0  0.15819692155E+02  0.26605329779E+02 -0.21848183165E+03  0.25365347590E+03  0.12509064249E+03 0.  0.
         23    2    1    2    0    0 -0.15819692155E+02 -0.26605329779E+02 -0.31239854685E+02  0.10088630075E+03  0.90796535869E+02 0.  0.
          5    1    3    3  502    0  0.31048016684E+02  0.67682696586E+02 -0.84885383173E+02  0.11299525403E+03  0.41800000000E+01 0. -1.
         -5    1    3    3    0  502 -0.15228324530E+02 -0.41077366807E+02 -0.13359644848E+03  0.14065822187E+03  0.41800000000E+01 0. -1.
        -11    1    4    4    0    0 -0.26457850335E+02 -0.14919560110E+01 -0.57320497428E+02  0.63149688855E+02  0.00000000000E+00 0.  1.
         11    1    4    4    0    0  0.10638158180E+02 -0.25113373768E+02  0.26080642742E+02  0.37736611895E+02  0.00000000000E+00 0. -1.
</event>
<event>
 8    1  0.7136454E-009  0.1351518E+03  0.7561462E-02  0.1220006E+00
         -2   -1    0    0    0  501 -0.00000000000E+00  0.00000000000E+00  0.40133744402E+02  0.40133744402E+02  0.00000000000E+00 0.  1.
          2   -1    0    0  501    0  0.00000000000E+00 -0.00000000000E+00 -0.86800015464E+03  0.86800015464E+03  0.00000000000E+00 0. -1.
         25    2    1    2    0    0  0.11740582695E+03 -0.16985728021E+02 -0.20609116418E+03  0.26868886796E+03  0.12508995426E+03 0.  0.
         23    2    1    2    0    0 -0.11740582695E+03  0.16985728021E+02 -0.62177524606E+03  0.63944503108E+03  0.90624764860E+02 0.  0.
          5    1    3    3  502    0  0.26714259453E+02  0.55869851704E+01  0.12957147762E+02  0.30499608842E+02  0.41800000000E+01 0. -1.
         -5    1    3    3    0  502  0.90691567495E+02 -0.22572713191E+02 -0.21904831194E+03  0.23818925912E+03  0.41800000000E+01 0. -1.
        -11    1    4    4    0    0 -0.76461779802E+02 -0.34058958660E+02 -0.36273705980E+03  0.37226951391E+03  0.00000000000E+00 0. -1.
         11    1    4    4    0    0 -0.40944047146E+02  0.51044686681E+02 -0.25903818626E+03  0.26717551717E+03  0.00000000000E+00 0.  1.
</event>
<event>
 8    1  0.7136454E-009  0.1771042E+03  0.7561462E-02  0.1170635E+00
         -1   -1    0    0    0  501 -0.00000000000E+00  0.00000000000E+00  0.31226279537E+02  0.31226279537E+02  0.00000000000E+00 0.  1.
          1   -1    0    0  501    0  0.00000000000E+00 -0.00000000000E+00 -0.12148349342E+04  0.12148349342E+04  0.00000000000E+00 0. -1.
         25    2    1    2    0    0 -0.51525742525E+02  0.14895987474E+03 -0.73353533599E+03  0.76063397741E+03  0.12508401979E+03 0.  0.
         23    2    1    2    0    0  0.51525742525E+02 -0.14895987474E+03 -0.45007331869E+03  0.48542723635E+03  0.90717490978E+02 0.  0.
          5    1    3    3  502    0 -0.72224000859E+02  0.46763811108E+02 -0.21334842339E+03  0.23008299044E+03  0.41800000000E+01 0.  1.
         -5    1    3    3    0  502  0.20698258334E+02  0.10219606364E+03 -0.52018691261E+03  0.53055098697E+03  0.41800000000E+01 0.  1.
        -11    1    4    4    0    0  0.24552983520E+02 -0.12575529446E+03 -0.23713850636E+03  0.26954019048E+03  0.00000000000E+00 0.  1.
         11    1    4    4    0    0  0.26972759005E+02 -0.23204580287E+02 -0.21293481233E+03  0.21588704588E+03  0.00000000000E+00 0. -1.
</event>
<event>
 8    1  0.7136454E-009  0.1463874E+03  0.7561462E-02  0.1204984E+00
         -3   -1    0    0    0  501 -0.00000000000E+00  0.00000000000E+00  0.85336418763E+03  0.85336418763E+03  0.00000000000E+00 0.  1.
          3   -1    0    0  501    0  0.00000000000E+00 -0.00000000000E+00 -0.26264457135E+02  0.26264457135E+02  0.00000000000E+00 0. -1.
         25    2    1    2    0    0  0.30631228654E+01  0.10249351868E+03  0.41696274654E+03  0.44723992714E+03  0.12510522106E+03 0.  0.
         23    2    1    2    0    0 -0.30631228654E+01 -0.10249351868E+03  0.41013698396E+03  0.43238871763E+03  0.90737827982E+02 0.  0.
          5    1    3    3  502    0  0.52434539217E+02  0.90819306166E+02  0.21919099111E+03  0.24302199542E+03  0.41800000000E+01 0.  1.
         -5    1    3    3    0  502 -0.49371416351E+02  0.11674212511E+02  0.19777175542E+03  0.20421793171E+03  0.41800000000E+01 0.  1.
        -11    1    4    4    0    0 -0.33310038761E+02 -0.36024505759E+01  0.10187107742E+03  0.10723923138E+03  0.00000000000E+00 0.  1.
         11    1    4    4    0    0  0.30246915896E+02 -0.98891068100E+02  0.30826590654E+03  0.32514948625E+03  0.00000000000E+00 0. -1.
</event>
<event>
 8    1  0.7136454E-009  0.1506723E+03  0.7561462E-02  0.1199649E+00
          2   -1    0    0  501    0  0.00000000000E+00  0.00000000000E+00  0.15894074922E+03  0.15894074922E+03  0.00000000000E+00 0. -1.
         -2   -1    0    0    0  501 -0.00000000000E+00 -0.00000000000E+00 -0.16229308218E+03  0.16229308218E+03  0.00000000000E+00 0.  1.
         25    2    1    2    0    0 -0.95085526031E+02 -0.72127857775E+02 -0.26034099006E+02  0.17484237802E+03  0.12509355584E+03 0.  0.
         23    2    1    2    0    0  0.95085526031E+02  0.72127857775E+02  0.22681766046E+02  0.14639145338E+03  0.81684208903E+02 0.  0.
          5    1    3    3  502    0  0.16632712247E+02 -0.54411527670E+02  0.55702691965E+01  0.57321564520E+02  0.41800000000E+01 0.  1.
         -5    1    3    3    0  502 -0.11171823828E+03 -0.17716330104E+02 -0.31604368203E+02  0.11752081350E+03  0.41800000000E+01 0.  1.
        -11    1    4    4    0    0  0.25499539875E+02  0.53189170912E+02  0.41181772406E+02  0.71939230011E+02  0.00000000000E+00 0. -1.
         11    1    4    4    0    0  0.69585986156E+02  0.18938686863E+02 -0.18500006359E+02  0.74452223370E+02  0.00000000000E+00 0.  1.
</event>
<event>
 8    1  0.7136454E-009  0.1036220E+03  0.7561462E-02  0.1272859E+00
         -2   -1    0    0    0  501 -0.00000000000E+00  0.00000000000E+00  0.52460708781E+02  0.52460708781E+02  0.00000000000E+00 0.  1.
          2   -1    0    0  501    0  0.00000000000E+00 -0.00000000000E+00 -0.23593477603E+03  0.23593477603E+03  0.00000000000E+00 0. -1.
         25    2    1    2    0    0  0.89784307092E+01  0.11370001142E+02 -0.75775103857E+02  0.14696646881E+03  0.12508951773E+03 0.  0.
         23    2    1    2    0    0 -0.89784307092E+01 -0.11370001142E+02 -0.10769896339E+03  0.14142901600E+03  0.90516356024E+02 0.  0.
          5    1    3    3  502    0 -0.51977690052E+02 -0.20861029860E+02 -0.41624395938E+02  0.69906548815E+02  0.41800000000E+01 0. -1.
         -5    1    3    3    0  502  0.60956120762E+02  0.32231031002E+02 -0.34150707919E+02  0.77059919991E+02  0.41800000000E+01 0. -1.
        -11    1    4    4    0    0  0.32786439075E+02 -0.21266730324E+02 -0.20250076690E+02  0.44014656784E+02  0.00000000000E+00 0.  1.
         11    1    4    4    0    0 -0.41764869784E+02  0.98967291824E+01 -0.87448886699E+02  0.97414359216E+02  0.00000000000E+00 0. -1.
</event>
<event>
 8    1  0.7136454E-009  0.1850299E+03  0.7561462E-02  0.1163022E+00
          2   -1    0    0  501    0  0.00000000000E+00  0.00000000000E+00  0.14714633144E+03  0.14714633144E+03  0.00000000000E+00 0. -1.
         -2   -1    0    0    0  501 -0.00000000000E+00 -0.00000000000E+00 -0.31399524008E+03  0.31399524008E+03  0.00000000000E+00 0.  1.
         25    2    1    2    0    0 -0.78598592807E+02 -0.16374039581E+03 -0.12571437835E+03  0.25384993008E+03  0.12508807325E+03 0.  0.
         23    2    1    2    0    0  0.78598592807E+02  0.16374039581E+03 -0.41134530285E+02  0.20729164143E+03  0.91044599038E+02 0.  0.
          5    1    3    3  502    0 -0.60652733659E+02 -0.14148692691E+03 -0.15083841652E+03  0.21556206736E+03  0.41800000000E+01 0.  1.
         -5    1    3    3    0  502 -0.17945859148E+02 -0.22253468891E+02  0.25124038163E+02  0.38287862723E+02  0.41800000000E+01 0.  1.
        -11    1    4    4    0    0  0.61661361092E+01  0.61865727751E+02  0.23628793597E+02  0.66510971963E+02  0.00000000000E+00 0. -1.
         11    1    4    4    0    0  0.72432456698E+02  0.10187466806E+03 -0.64763323882E+02  0.14078066946E+03  0.00000000000E+00 0.  1.
</event>
<event>
 6    1  0.7136454E-009  0.1258598E+03  0.7561462E-02  0.1233732E+00
          2   -1    0    0  501    0  0.00000000000E+00  0.00000000000E+00  0.42796726276E+03  0.42796726276E+03  0.00000000000E+00 0. -1.
         -2   -1    0    0    0  501 -0.00000000000E+00 -0.00000000000E+00 -0.44831482156E+02  0.44831482156E+02  0.00000000000E+00 0.  1.
          5    1    1    2  502    0  0.37912228447E+02  0.96514085185E+00  0.12689706477E+03  0.13250889030E+03  0.41800000000E+01 0.  1.
         -5    1    1    2    0  502 -0.71601260482E+02  0.87849424700E+02  0.18112807099E+03  0.21370332806E+03  0.41800000000E+01 0.  1.
        -11    1    1    2    0    0 -0.63020418626E+01 -0.12340851169E+02  0.31229734764E+01  0.14204411377E+02  0.00000000000E+00 0.  1.
         11    1    1    2    0    0  0.39991073898E+02 -0.76473714383E+02  0.71987671374E+02  0.11238211518E+03  0.00000000000E+00 0. -1.
</event>
<event>
 8    1  0.7136454E-009  0.1602510E+03  0.7561462E-02  0.1188414E+00
         -1   -1    0    0    0  501 -0.00000000000E+00  0.00000000000E+00  0.69622598908E+02  0.69622598908E+02  0.00000000000E+00 0.  1.
          1   -1    0    0  501    0  0.00000000000E+00 -0.00000000000E+00 -0.44389122085E+03  0.44389122085E+03  0.00000000000E+00 0. -1.
         25    2    1    2    0    0 -0.13326170298E+03 -0.34970912913E+02 -0.20108706507E+03  0.27398130879E+03  0.12509238025E+03 0.  0.
         23    2    1    2    0    0  0.13326170298E+03  0.34970912913E+02 -0.17318155688E+03  0.23953251097E+03  0.91664202062E+02 0.  0.
          5    1    3    3  502    0  0.14907977782E+02  0.19323725287E+02 -0.48374426321E+02  0.54343460346E+02  0.41800000000E+01 0.  1.
         -5    1    3    3    0  502 -0.14816968076E+03 -0.54294638200E+02 -0.15271263875E+03  0.21963784844E+03  0.41800000000E+01 0.  1.
        -11    1    4    4    0    0  0.52845547696E+02  0.11125804498E+02 -0.13870331199E+03  0.14884570600E+03  0.00000000000E+00 0. -1.
         11    1    4    4    0    0  0.80416155285E+02  0.23845108415E+02 -0.34478244886E+02  0.90686804975E+02  0.00000000000E+00 0.  1.
</event>
<event>
 8    1  0.7136454E-009  0.9321429E+02  0.7561462E-02  0.1295249E+00
          1   -1    0    0  501    0  0.00000000000E+00  0.00000000000E+00  0.92532462950E+02  0.92532462950E+02  0.00000000000E+00 0. -1.
         -1   -1    0    0    0  501 -0.00000000000E+00 -0.00000000000E+00 -0.20309189038E+03  0.20309189038E+03  0.00000000000E+00 0.  1.
         25    2    1    2    0    0 -0.22747760762E+02  0.35228583278E+02 -0.11251792750E+03  0.17337783821E+03  0.12506429176E+03 0.  0.
         23    2    1    2    0    0  0.22747760762E+02 -0.35228583278E+02  0.19585000668E+01  0.12224651512E+03  0.11481228609E+03 0.  0.
          5    1    3    3  502    0  0.19119066515E+02 -0.19502371739E+02 -0.99322120302E+02  0.10309334212E+03  0.41800000000E+01 0. -1.
         -5    1    3    3    0  502 -0.41866827278E+02  0.54730955017E+02 -0.13195807196E+02  0.70284496092E+02  0.41800000000E+01 0. -1.
        -11    1    4    4    0    0 -0.28701907511E+02 -0.25507536651E+01  0.40816838582E+02  0.49963187957E+02  0.00000000000E+00 0. -1.
         11    1    4    4    0    0  0.51449668273E+02 -0.32677829613E+02 -0.38858338515E+02  0.72283327163E+02  0.00000000000E+00 0.  1.
</event>
<event>
 8    1  0.7136454E-009  0.7168193E+02  0.7561462E-02  0.1354465E+00
         -2   -1    0    0    0  501 -0.00000000000E+00  0.00000000000E+00  0.54805806812E+02  0.54805806812E+02  0.00000000000E+00 0.  1.
          2   -1    0    0  501    0  0.00000000000E+00 -0.00000000000E+00 -0.33546788124E+03  0.33546788124E+03  0.00000000000E+00 0. -1.
         25    2    1    2    0    0 -0.81584953473E+01  0.14511914797E+02 -0.26804898944E+03  0.29626903245E+03  0.12509165492E+03 0.  0.
         23    2    1    2    0    0  0.81584953473E+01 -0.14511914797E+02 -0.12613084992E+02  0.94004655607E+02  0.91654943376E+02 0.  0.
          5    1    3    3  502    0 -0.53061370906E+02  0.29845950917E+02 -0.22118188412E+03  0.22944539248E+03  0.41800000000E+01 0. -1.
         -5    1    3    3    0  502  0.44902875559E+02 -0.15334036120E+02 -0.46867105315E+02  0.66823639963E+02  0.41800000000E+01 0. -1.
        -11    1    4    4    0    0  0.42980433453E+01 -0.24043605680E+02  0.36449243283E+02  0.43876138009E+02  0.00000000000E+00 0.  1.
         11    1    4    4    0    0  0.38604520020E+01  0.95316908834E+01 -0.49062328275E+02  0.50128517598E+02  0.00000000000E+00 0. -1.
</event>
<event>
 8    1  0.7136454E-009  0.1261246E+03  0.7561462E-02  0.1233322E+00
          1   -1    0    0  501    0  0.00000000000E+00  0.00000000000E+00  0.19276671503E+03  0.19276671503E+03  0.00000000000E+00 0. -1.
         -1   -1    0    0    0  501 -0.00000000000E+00 -0.00000000000E+00 -0.12600876185E+03  0.12600876185E+03  0.00000000000E+00 0.  1.
         25    2    1    2    0    0 -0.73040428880E+02  0.82405908011E+02  0.55682463464E+02  0.17570987805E+03  0.12509111312E+03 0.  0.
         23    2    1    2    0    0  0.73040428880E+02 -0.82405908011E+02  0.11075489712E+02  0.14306559883E+03  0.90661244042E+02 0.  0.
          5    1    3    3  502    0 -0.49678487404E+02  0.64353819342E+02 -0.28619563538E+02  0.86289732829E+02  0.41800000000E+01 0.  1.
         -5    1    3    3    0  502 -0.23361941476E+02  0.18052088669E+02  0.84302027002E+02  0.89420145222E+02  0.41800000000E+01 0.  1.
        -11    1    4    4    0    0  0.22747672439E+02  0.17814971126E+02 -0.63628268187E+01  0.29585729038E+02  0.00000000000E+00 0. -1.
         11    1    4    4    0    0  0.50292756441E+02 -0.10022087914E+03  0.17438316531E+02  0.11347986980E+03  0.00000000000E+00 0.  1.
</event>
<event>
 8    1  0.7136454E-009  0.1816083E+03  0.7561462E-02  0.1166256E+00
         -1   -1    0    0    0  501 -0.00000000000E+00  0.00000000000E+00  0.34056856848E+02  0.34056856848E+02  0.00000000000E+00 0.  1.
          1   -1    0    0  501    0  0.00000000000E+00 -0.00000000000E+00 -0.10337235081E+04  0.10337235081E+04  0.00000000000E+00 0. -1.
         25    2    1    2    0    0 -0.10767154202E+03  0.10363122105E+03 -0.43171490936E+03  0.47366425176E+03  0.12508984567E+03 0.  0.
         23    2    1    2    0    0  0.10767154202E+03 -0.10363122105E+03 -0.56795174193E+03  0.59411611323E+03  0.89845333220E+02 0.  0.
          5    1    3    3  502    0 -0.10725435671E+03  0.12716086898E+03 -0.40479813463E+03  0.43766698052E+03  0.41800000000E+01 0. -1.
         -5    1    3    3    0  502 -0.41718530892E+00 -0.23529647922E+02 -0.26916774732E+02  0.35997271242E+02  0.41800000000E+01 0. -1.
        -11    1    4    4    0    0  0.62565095855E+02 -0.30067618438E+01 -0.17014056944E+03  0.18130428899E+03  0.00000000000E+00 0.  1.
         11    1    4    4    0    0  0.45106446166E+02 -0.10062445921E+03 -0.39781117249E+03  0.41281182424E+03  0.00000000000E+00 0. -1.
</event>
<event>
 8    1  0.7136454E-009  0.8199727E+02  0.7561462E-02  0.1323477E+00
         -3   -1    0    0    0  501 -0.00000000000E+00  0.00000000000E+00  0.73816143069E+02  0.73816143069E+02  0.00000000000E+00 0.  1.
          3   -1    0    0  501    0  0.00000000000E+00 -0.00000000000E+00 -0.17083965994E+03  0.17083965994E+03  0.00000000000E+00 0. -1.
         25    2    1    2    0    0  0.84204455487E+00  0.14017156419E+02 -0.28376641601E+02  0.12903252327E+03  0.12508784337E+03 0.  0.
         23    2    1    2    0    0 -0.84204455487E+00 -0.14017156419E+02 -0.68646875266E+02  0.11562327974E+03  0.91973689829E+02 0.  0.
          5    1    3    3  502    0  0.13579873230E+00 -0.28851388314E+02  0.39225032805E+02  0.48872248234E+02  0.41800000000E+01 0.  1.
         -5    1    3    3    0  502  0.70624582257E+00  0.42868544732E+02 -0.67601674406E+02  0.80160275032E+02  0.41800000000E+01 0.  1.
        -11    1    4    4    0    0  0.38256037801E+01  0.38675870988E+02 -0.19785987296E+02  0.43611277604E+02  0.00000000000E+00 0.  1.
         11    1    4    4    0    0 -0.46676483350E+01 -0.52693027407E+02 -0.48860887970E+02  0.72012002135E+02  0.00000000000E+00 0. -1.
</event>
<event>
 8    1  0.7136454E-009  0.1001096E+03  0.7561462E-02  0.1280066E+00
          1   -1    0    0  501    0  0.00000000000E+00  0.00000000000E+00  0.78843252239E+02  0.78843252239E+02  0.00000000000E+00 0. -1.
         -1   -1    0    0    0  501 -0.00000000000E+00 -0.00000000000E+00 -0.16208053513E+03  0.16208053513E+03  0.00000000000E+00 0.  1.
         25    2    1    2    0    0 -0.78739092507E+01 -0.27333527394E+02 -0.32917369878E+02  0.13244589680E+03  0.12509693111E+03 0.  0.
         23    2    1    2    0    0  0.78739092507E+01  0.27333527394E+02 -0.50319913015E+02  0.10847789057E+03  0.91794547387E+02 0.  0.
          5    1    3    3  502    0  0.49788616960E+01 -0.66646071574E+02 -0.53825135600E+02  0.85913360674E+02  0.41800000000E+01 0.  1.
         -5    1    3    3    0  502 -0.12852770947E+02  0.39312544180E+02  0.20907765722E+02  0.46532536127E+02  0.41800000000E+01 0.  1.
        -11    1    4    4    0    0  0.47161813820E+02  0.21989531724E+02 -0.44369034909E+02  0.68384116921E+02  0.00000000000E+00 0.  1.
         11    1    4    4    0    0 -0.39287904569E+02  0.53439956692E+01 -0.59508781062E+01  0.40093773649E+02  0.00000000000E+00 0. -1.
</event>
<event>
 8    1  0.7136454E-009  0.5890159E+02  0.7561462E-02  0.1402500E+00
         -1   -1    0    0    0  501 -0.00000000000E+00  0.00000000000E+00  0.11505083622E+03  0.11505083622E+03  0.00000000000E+00 0.  1.
          1   -1    0    0  501    0  0.00000000000E+00 -0.00000000000E+00 -0.12291447571E+03  0.12291447571E+03  0.00000000000E+00 0. -1.
         25    2    1    2    0    0  0.47181877233E+01  0.13927175423E+01 -0.50047686837E+02  0.13481944671E+03  0.12508921335E+03 0.  0.
         23    2    1    2    0    0 -0.47181877233E+01 -0.13927175423E+01  0.42184047349E+02  0.10314586522E+03  0.93996673895E+02 0.  0.
          5    1    3    3  502    0  0.14237963944E+02 -0.56587064781E+01 -0.90798119619E+02  0.92176523598E+02  0.41800000000E+01 0.  1.
         -5    1    3    3    0  502 -0.95197762209E+01  0.70514240204E+01  0.40750432782E+02  0.42642923116E+02  0.41800000000E+01 0.  1.
        -11    1    4    4    0    0 -0.28321705859E+02 -0.37026996815E+02  0.57269934713E+01  0.46967179713E+02  0.00000000000E+00 0. -1.
         11    1    4    4    0    0  0.23603518136E+02  0.35634279273E+02  0.36457053877E+02  0.56178685505E+02  0.00000000000E+00 0.  1.
</event>
<event>
 8    1  0.7136454E-009  0.6604847E+02  0.7561462E-02  0.1374070E+00
         -3   -1    0    0    0  501 -0.00000000000E+00  0.00000000000E+00  0.30844567115E+03  0.30844567115E+03  0.00000000000E+00 0.  1.
          3   -1    0    0  501    0  0.00000000000E+00 -0.00000000000E+00 -0.53331893322E+02  0.53331893322E+02  0.00000000000E+00 0. -1.
         25    2    1    2    0    0  0.36148451965E+02 -0.94640926523E+01  0.22204660479E+03  0.25758425373E+03  0.12509465792E+03 0.  0.
         23    2    1    2    0    0 -0.36148451965E+02  0.94640926523E+01  0.33067173042E+02  0.10419331075E+03  0.91468729316E+02 0.  0.
          5    1    3    3  502    0  0.26290479312E+02 -0.48346094029E+01 -0.72344328954E+01  0.28006645102E+02  0.41800000000E+01 0.  1.
         -5    1    3    3    0  502  0.98579726530E+01 -0.46294832494E+01  0.22928103768E+03  0.22957760862E+03  0.41800000000E+01 0.  1.
        -11    1    4    4    0    0 -0.51088077509E+02  0.36293070749E+02  0.37706764491E+02  0.73136712644E+02  0.00000000000E+00 0. -1.
         11    1    4    4    0    0  0.14939625544E+02 -0.26828978097E+02 -0.46395914493E+01  0.31056598106E+02  0.00000000000E+00 0.  1.
</event>
<event>
 8    1  0.7136454E-009  0.9285732E+02  0.7561462E-02  0.1296076E+00
          1   -1    0    0  501    0  0.00000000000E+00  0.00000000000E+00  0.38314302452E+02  0.38314302452E+02  0.00000000000E+00 0. -1.
         -1   -1    0    0    0  501 -0.00000000000E+00 -0.00000000000E+00 -0.35253671470E+03  0.35253671470E+03  0.00000000000E+00 0.  1.
         25    2    1    2    0    0 -0.36904312772E+02 -0.53246252065E+01 -0.14648341257E+03  0.19619252791E+03  0.12507532896E+03 0.  0.
         23    2    1    2    0    0  0.36904312772E+02  0.53246252065E+01 -0.16773899968E+03  0.19465848924E+03  0.91461879960E+02 0.  0.
          5    1    3    3  502    0  0.16923310100E+02 -0.42183133455E+02 -0.12835462681E+02  0.47413465124E+02  0.41800000000E+01 0.  1.
         -5    1    3    3    0  502 -0.53827622872E+02  0.36858508248E+02 -0.13364794988E+03  0.14877906278E+03  0.41800000000E+01 0.  1.
        -11    1    4    4    0    0  0.54594039678E+02 -0.39308288323E+01 -0.16579832789E+03  0.17459967386E+03  0.00000000000E+00 0. -1.
         11    1    4    4    0    0 -0.17689726906E+02  0.92554540388E+01 -0.19406717973E+01  0.20058815381E+02  0.00000000000E+00 0.  1.
</event>
<event>
 8    1  0.7136454E-009  0.9055788E+02  0.7561462E-02  0.1301506E+00
         -1   -1    0    0    0  501 -0.00000000000E+00  0.00000000000E+00  0.57104449352E+02  0.57104449352E+02  0.00000000000E+00 0.  1.
          1   -1    0    0  501    0  0.00000000000E+00 -0.00000000000E+00 -0.27162943912E+03  0.27162943912E+03  0.00000000000E+00 0. -1.
         25    2    1    2    0    0 -0.11526923936E+02 -0.62763709150E+02 -0.10877376277E+03  0.17762407700E+03  0.12508568304E+03 0.  0.
         23    2    1    2    0    0  0.11526923936E+02  0.62763709150E+02 -0.10575122701E+03  0.15110981148E+03  0.87055728994E+02 0.  0.
          5    1    3    3  502    0 -0.35905455166E+02 -0.32685077663E+02  0.12449873934E+02  0.50298983822E+02  0.41800000000E+01 0. -1.
         -5    1    3    3    0  502  0.24378531230E+02 -0.30078631487E+02 -0.12122363670E+03  0.12732509317E+03  0.41800000000E+01 0. -1.
        -11    1    4    4    0    0  0.11584319339E+02  0.77672006780E+02 -0.49300540667E+02  0.92723677676E+02  0.00000000000E+00 0.  1.
         11    1    4    4    0    0 -0.57395402563E-01 -0.14908297630E+02 -0.56450686340E+02  0.58386133805E+02  0.00000000000E+00 0. -1.
</event>
<event>
 8    1  0.7136454E-009  0.9446498E+02  0.7561462E-02  0.1292386E+00
          1   -1    0    0  501    0  0.00000000000E+00  0.00000000000E+00  0.43092427071E+03  0.43092427071E+03  0.00000000000E+00 0. -1.
         -1   -1    0    0    0  501 -0.00000000000E+00 -0.00000000000E+00 -0.28767114164E+02  0.28767114164E+02  0.00000000000E+00 0.  1.
         25    2    1    2    0    0 -0.18757116967E+02  0.34900858071E+01  0.26021530493E+03  0.28935074658E+03  0.12509132462E+03 0.  0.
         23    2    1    2    0    0  0.18757116967E+02 -0.34900858071E+01  0.14194185162E+03  0.17034063829E+03  0.92219486419E+02 0.  0.
          5    1    3    3  502    0  0.40901008825E+02 -0.27732420170E+02  0.58714063771E+02  0.76855665607E+02  0.41800000000E+01 0. -1.
         -5    1    3    3    0  502 -0.59658125792E+02  0.31222505977E+02  0.20150124115E+03  0.21249508098E+03  0.41800000000E+01 0. -1.
        -11    1    4    4    0    0  0.37873606534E+02  0.18986641401E+02  0.23849710868E+02  0.48618014481E+02  0.00000000000E+00 0.  1.
         11    1    4    4    0    0 -0.19116489568E+02 -0.22476727208E+02  0.11809214075E+03  0.12172262381E+03  0.00000000000E+00 0. -1.
</event>
<event>
 7    1  0.7136454E-009  0.2498449E+03  0.7561462E-02  0.1113403E+00
         -2   -1    0    0    0  501 -0.00000000000E+00  0.00000000000E+00  0.11685915468E+03  0.11685915468E+03  0.00000000000E+00 0.  1.
          2   -1    0    0  501    0  0.00000000000E+00 -0.00000000000E+00 -0.63155269698E+03  0.63155269698E+03  0.00000000000E+00 0. -1.
         25    2    1    2    0    0 -0.16254155499E+03  0.13604594865E+03 -0.11886916245E+03  0.27332362046E+03  0.12509063307E+03 0.  0.
          5    1    3    3  502    0 -0.10307118035E+03  0.14365804767E+03 -0.54059574405E+02  0.18493569927E+03  0.41800000000E+01 0. -1.
         -5    1    3    3    0  502 -0.59470374632E+02 -0.76120990223E+01 -0.64809588043E+02  0.88387921192E+02  0.41800000000E+01 0. -1.
        -11    1    1    2    0    0 -0.20431124315E+02  0.15098507439E+02 -0.37153435693E+02  0.45008594195E+02  0.00000000000E+00 0. -1.
         11    1    1    2    0    0  0.18297267930E+03 -0.15114445609E+03 -0.35867094416E+03  0.43007963700E+03  0.00000000000E+00 0.  1.
</event>
<event>
 8    1  0.7136454E-009  0.3195419E+03  0.7561462E-02  0.1075860E+00
          1   -1    0    0  501    0  0.00000000000E+00  0.00000000000E+00  0.59837441313E+03  0.59837441313E+03  0.00000000000E+00 0. -1.
         -1   -1    0    0    0  501 -0.00000000000E+00 -0.00000000000E+00 -0.19006360501E+03  0.19006360501E+03  0.00000000000E+00 0.  1.
         25    2    1    2    0    0  0.87699601219E+02  0.30001168312E+03  0.13373985149E+03  0.36225936197E+03  0.12508903787E+03 0.  0.
         23    2    1    2    0    0 -0.87699601219E+02 -0.30001168312E+03  0.27457095664E+03  0.42617865616E+03  0.92416484875E+02 0.  0.
          5    1    3    3  502    0  0.37724309631E+01  0.13474255344E+03  0.11253456069E+03  0.17564534349E+03  0.41800000000E+01 0.  1.
         -5    1    3    3    0  502  0.83927170256E+02  0.16526912969E+03  0.21205290803E+02  0.18661401848E+03  0.41800000000E+01 0.  1.
        -11    1    4    4    0    0 -0.45707642121E+02 -0.61428087569E+02  0.10718504016E+03  0.13172407269E+03  0.00000000000E+00 0. -1.
         11    1    4    4    0    0 -0.41991959098E+02 -0.23858359556E+03  0.16738591648E+03  0.29445458348E+03  0.00000000000E+00 0.  1.
</event>
<event>
 8    1  0.7136454E-009  0.1217653E+03  0.7561462E-02  0.1240213E+00
          1   -1    0    0  501    0  0.00000000000E+00  0.00000000000E+00  0.36852214069E+03  0.36852214069E+03  0.00000000000E+00 0. -1.
         -1   -1    0    0    0  501 -0.00000000000E+00 -0.00000000000E+00 -0.57059168937E+02  0.57059168937E+02  0.00000000000E+00 0.  1.
         25    2    1    2    0    0  0.69471295516E+02  0.11183036530E+02  0.26435096129E+03  0.30080035277E+03  0.12509236700E+03 0.  0.
         23    2    1    2    0    0 -0.69471295516E+02 -0.11183036530E+02  0.47112010457E+02  0.12478095686E+03  0.91648374008E+02 0.  0.
          5    1    3    3  502    0 -0.17519941597E+02  0.38129452195E+02  0.37941394603E+02  0.56725878597E+02  0.41800000000E+01 0.  1.
         -5    1    3    3    0  502  0.86991237114E+02 -0.26946415664E+02  0.22640956669E+03  0.24407447417E+03  0.41800000000E+01 0.  1.
        -11    1    4    4    0    0 -0.74210738041E+02 -0.37714623859E+02  0.50887528211E+02  0.97566218646E+02  0.00000000000E+00 0.  1.
         11    1    4    4    0    0  0.47394425251E+01  0.26531587328E+02 -0.37755177544E+01  0.27214738212E+02  0.00000000000E+00 0. -1.
</event>
<event>
 8    1  0.7136454E-009  0.1354911E+03  0.7561462E-02  0.1219528E+00
          2   -1    0    0  501    0  0.00000000000E+00  0.00000000000E+00  0.37538960724E+03  0.37538960724E+03  0.00000000000E+00 0.  1.
         -2   -1    0    0    0  501 -0.00000000000E+00 -0.00000000000E+00 -0.62964844868E+02  0.62964844868E+02  0.00000000000E+00 0. -1.
         25    2    1    2    0    0 -0.76565144715E+02 -0.64432474794E+02  0.23243442796E+03  0.28228860507E+03  0.12508928035E+03 0.  0.
         23    2    1    2    0    0  0.76565144715E+02  0.64432474794E+02  0.79990334416E+02  0.15606584704E+03  0.89130970037E+02 0.  0.
          5    1    3    3  502    0 -0.48415320942E+02  0.32381655554E+02  0.71261661529E+02  0.92132034180E+02  0.41800000000E+01 0. -1.
         -5    1    3    3    0  502 -0.28149823774E+02 -0.96814130347E+02  0.16117276643E+03  0.19015657089E+03  0.41800000000E+01 0. -1.
        -11    1    4    4    0    0  0.41122583418E+02  0.64189992184E+02  0.91225411549E+02  0.11888438786E+03  0.00000000000E+00 0.  1.
         11    1    4    4    0    0  0.35442561297E+02  0.24248260918E+00 -0.11235077132E+02  0.37181459187E+02  0.00000000000E+00 0. -1.
</event>
<event>
 8    1  0.7136454E-009  0.1043033E+03  0.7561462E-02  0.1271498E+00
          1   -1    0    0  501    0  0.00000000000E+00  0.00000000000E+00  0.24584691628E+02  0.24584691628E+02  0.00000000000E+00 0. -1.
         -1   -1    0    0    0  501 -0.00000000000E+00 -0.00000000000E+00 -0.55785182617E+03  0.55785182617E+03  0.00000000000E+00 0.  1.
         25    2    1    2    0    0 -0.94078999125E+01  0.70247496891E+01 -0.40692122100E+03  0.42587604909E+03  0.12509066072E+03 0.  0.
         23    2    1    2    0    0  0.94078999125E+01 -0.70247496891E+01 -0.12634591354E+03  0.15656046871E+03  0.91706241904E+02 0.  0.
          5    1    3    3  502    0  0.50841308458E+02  0.23538431284E+02 -0.12436752022E+03  0.13646849042E+03  0.41800000000E+01 0.  1.
         -5    1    3    3    0  502 -0.60249208370E+02 -0.16513681595E+02 -0.28255370078E+03  0.28940755867E+03  0.41800000000E+01 0.  1.
        -11    1    4    4    0    0  0.28211064402E+02 -0.41713082648E+02 -0.88854543906E+02  0.10213214671E+03  0.00000000000E+00 0. -1.
         11    1    4    4    0    0 -0.18803164490E+02  0.34688332959E+02 -0.37491369636E+02  0.54428321997E+02  0.00000000000E+00 0.  1.
</event>
<event>
 8    1  0.7136454E-009  0.1528347E+03  0.7561462E-02  0.1197032E+00
         -1   -1    0    0    0  501 -0.00000000000E+00  0.00000000000E+00  0.98033827951E+02  0.98033827951E+02  0.00000000000E+00 0.  1.
          1   -1    0    0  501    0  0.00000000000E+00 -0.00000000000E+00 -0.37514956804E+03  0.37514956804E+03  0.00000000000E+00 0. -1.
         25    2    1    2    0    0 -0.60386620732E+02  0.95764269288E+02 -0.97043431234E+01  0.16899117022E+03  0.12508597883E+03 0.  0.
         23    2    1    2    0    0  0.60386620732E+02 -0.95764269288E+02 -0.26741139696E+03  0.30419222577E+03  0.90590925357E+02 0.  0.
          5    1    3    3  502    0 -0.89641296722E+02  0.97705990959E+02  0.10596627442E+02  0.13308562530E+03  0.41800000000E+01 0.  1.
         -5    1    3    3    0  502  0.29254675990E+02 -0.19417216706E+01 -0.20300970566E+02  0.35905544924E+02  0.41800000000E+01 0.  1.
        -11    1    4    4    0    0 -0.16201144452E+02 -0.53534089337E+02 -0.12698930043E+03  0.13876115532E+03  0.00000000000E+00 0.  1.
         11    1    4    4    0    0  0.76587765184E+02 -0.42230179951E+02 -0.14042209653E+03  0.16543107045E+03  0.00000000000E+00 0. -1.
</event>
<event>
 8    1  0.7136454E-009  0.6363880E+02  0.7561462E-02  0.1383166E+00
         -1   -1    0    0    0  501 -0.00000000000E+00  0.00000000000E+00  0.30594839113E+03  0.30594839113E+03  0.00000000000E+00 0.  1.
          1   -1    0    0  501    0  0.00000000000E+00 -0.00000000000E+00 -0.55735525182E+02  0.55735525182E+02  0.00000000000E+00 0. -1.
         25    2    1    2    0    0  0.18348018794E+01 -0.41386038189E+02  0.57122487745E+02  0.14364541478E+03  0.12511936671E+03 0.  0.
         23    2    1    2    0    0 -0.18348018794E+01  0.41386038189E+02  0.19309037820E+03  0.21803850154E+03  0.92416034015E+02 0.  0.
          5    1    3    3  502    0 -0.89350862580E+01 -0.10742112040E+02 -0.39243899711E+02  0.41866272847E+02  0.41800000000E+01 0.  1.
         -5    1    3    3    0  502  0.10769888137E+02 -0.30643926149E+02  0.96366387456E+02  0.10177914193E+03  0.41800000000E+01 0.  1.
        -11    1    4    4    0    0  0.30455095481E+02  0.36089767492E+02  0.17369708605E+03  0.18000183850E+03  0.00000000000E+00 0.  1.
         11    1    4    4    0    0 -0.32289897361E+02  0.52962706971E+01  0.19393292147E+02  0.38036663039E+02  0.00000000000E+00 0. -1.
</event>
<event>
 8    1  0.7136454E-009  0.1604836E+03  0.7561462E-02  0.1188152E+00
         -2   -1    0    0    0  501 -0.00000000000E+00  0.00000000000E+00  0.18488512298E+03  0.18488512298E+03  0.00000000000E+00 0.  1.
          2   -1    0    0  501    0  0.00000000000E+00 -0.00000000000E+00 -0.23617343510E+03  0.23617343510E+03  0.00000000000E+00 0. -1.
         25    2    1    2    0    0 -0.46351762325E+02 -0.14299587418E+03 -0.12258555930E+03  0.23080525869E+03  0.12509013625E+03 0.  0.
         23    2    1    2    0    0  0.46351762325E+02  0.14299587418E+03  0.71297247185E+02  0.19025329939E+03  0.92286047532E+02 0.  0.
          5    1    3    3  502    0  0.41326896505E+00 -0.98986007591E+02 -0.13275936041E+03  0.16565301285E+03  0.41800000000E+01 0.  1.
         -5    1    3    3    0  502 -0.46765031290E+02 -0.44009866588E+02  0.10173801109E+02  0.65152245838E+02  0.41800000000E+01 0.  1.
        -11    1    4    4    0    0  0.95395704633E+01  0.10198363044E+03  0.85408371074E+02  0.13336511588E+03  0.00000000000E+00 0.  1.
         11    1    4    4    0    0  0.36812191862E+02  0.41012243735E+02 -0.14111123889E+02  0.56888183512E+02  0.00000000000E+00 0. -1.
</event>
<event>
 8    1  0.7136454E-009  0.1061798E+03  0.7561462E-02  0.1267812E+00
          2   -1    0    0  501    0  0.00000000000E+00  0.00000000000E+00  0.24166329557E+03  0.24166329557E+03  0.00000000000E+00 0. -1.
         -2   -1    0    0    0  501 -0.00000000000E+00 -0.00000000000E+00 -0.64800287632E+02  0.64800287632E+02  0.00000000000E+00 0.  1.
         25    2    1    2    0    0  0.44688282299E+02  0.41852318504E+02  0.14436521820E+03  0.20059309176E+03  0.12509041968E+03 0.  0.
         23    2    1    2    0    0 -0.44688282299E+02 -0.41852318504E+02  0.32497789743E+02  0.10587049145E+03  0.80023718246E+02 0.  0.
          5    1    3    3  502    0  0.30454443192E+02  0.72388686255E+02  0.35003562955E+02  0.86083197126E+02  0.41800000000E+01 0.  1.
         -5    1    3    3    0  502  0.14233839107E+02 -0.30536367751E+02  0.10936165524E+03  0.11450989463E+03  0.41800000000E+01 0.  1.
        -11    1    4    4    0    0  0.93276356830E+01 -0.44711194448E+02  0.22296291996E+02  0.50825390635E+02  0.00000000000E+00 0.  1.
         11    1    4    4    0    0 -0.54015917982E+02  0.28588759436E+01  0.10201497747E+02  0.55045100812E+02  0.00000000000E+00 0. -1.
</event>
<event>
 8    1  0.7136454E-009  0.2589494E+03  0.7561462E-02  0.1107776E+00
         -1   -1    0    0    0  501 -0.00000000000E+00  0.00000000000E+00  0.54610655905E+02  0.54610655905E+02  0.00000000000E+00 0.  1.
          1   -1    0    0  501    0  0.00000000000E+00 -0.00000000000E+00 -0.17042374332E+04  0.17042374332E+04  0.00000000000E+00 0. -1.
         25    2    1    2    0    0 -0.25327957868E+03  0.23794398538E+02 -0.12193768492E+04  0.12518961767E+04  0.12508964159E+03 0.  0.
         23    2    1    2    0    0  0.25327957868E+03 -0.23794398538E+02 -0.43024992812E+03  0.50695191245E+03  0.84667127708E+02 0.  0.
          5    1    3    3  502    0 -0.49293170075E+02 -0.30048971669E+01 -0.80168897625E+02  0.94251634307E+02  0.41800000000E+01 0. -1.
         -5    1    3    3    0  502 -0.20398640860E+03  0.26799295705E+02 -0.11392079516E+04  0.11576445424E+04  0.41800000000E+01 0. -1.
        -11    1    4    4    0    0  0.53274632089E+02 -0.32422096990E+02 -0.62788965988E+02  0.88497644304E+02  0.00000000000E+00 0.  1.
         11    1    4    4    0    0  0.20000494659E+03  0.86276984522E+01 -0.36746096213E+03  0.41845426815E+03  0.00000000000E+00 0. -1.
</event>
<event>
 8    1  0.7136454E-009  0.2219154E+03  0.7561462E-02  0.1132463E+00
         -2   -1    0    0    0  501 -0.00000000000E+00  0.00000000000E+00  0.59348784841E+02  0.59348784841E+02  0.00000000000E+00 0.  1.
          2   -1    0    0  501    0  0.00000000000E+00 -0.00000000000E+00 -0.94265244030E+03  0.94265244030E+03  0.00000000000E+00 0. -1.
         25    2    1    2    0    0 -0.19810908292E+03  0.55231050782E+02 -0.36840266835E+03  0.44006241993E+03  0.12504690991E+03 0.  0.
         23    2    1    2    0    0  0.19810908292E+03 -0.55231050782E+02 -0.51490098710E+03  0.56193880521E+03  0.91403044654E+02 0.  0.
          5    1    3    3  502    0 -0.16718718888E+03  0.21421313535E+01 -0.19978848911E+03  0.26055528709E+03  0.41800000000E+01 0.  1.
         -5    1    3    3    0  502 -0.30921894046E+02  0.53088919428E+02 -0.16861417925E+03  0.17950713284E+03  0.41800000000E+01 0.  1.
        -11    1    4    4    0    0  0.72650656553E+02  0.10430044858E+02 -0.26208437577E+03  0.27216745536E+03  0.00000000000E+00 0. -1.
         11    1    4    4    0    0  0.12545842637E+03 -0.65661095640E+02 -0.25281661133E+03  0.28977134985E+03  0.00000000000E+00 0.  1.
</event>
<event>
 8    1  0.7136454E-009  0.8479317E+02  0.7561462E-02  0.1315974E+00
          4   -1    0    0  501    0  0.00000000000E+00  0.00000000000E+00  0.17954942456E+03  0.17954942456E+03  0.00000000000E+00 0.  1.
         -4   -1    0    0    0  501 -0.00000000000E+00 -0.00000000000E+00 -0.79296997900E+02  0.79296997900E+02  0.00000000000E+00 0. -1.
         25    2    1    2    0    0  0.18807135019E+02  0.63667519481E+01  0.10612114598E+03  0.16523837349E+03  0.12509108119E+03 0.  0.
         23    2    1    2    0    0 -0.18807135019E+02 -0.63667519481E+01 -0.58687193211E+01  0.93608048966E+02  0.91289545441E+02 0.  0.
          5    1    3    3  502    0 -0.26707963064E+02  0.12971079303E+02  0.11444960444E+03  0.11831208114E+03  0.41800000000E+01 0. -1.
         -5    1    3    3    0  502  0.45515098083E+02 -0.66043273547E+01 -0.83284584552E+01  0.46926292349E+02  0.41800000000E+01 0. -1.
        -11    1    4    4    0    0 -0.20379713410E+02  0.41127959396E+02 -0.25202129915E+01  0.45969481575E+02  0.00000000000E+00 0. -1.
         11    1    4    4    0    0  0.15725783907E+01 -0.47494711344E+02 -0.33485063296E+01  0.47638567391E+02  0.00000000000E+00 0.  1.
</event>
<event>
 8    1  0.7136454E-009  0.1005919E+03  0.7561462E-02  0.1279056E+00
          2   -1    0    0  501    0  0.00000000000E+00  0.00000000000E+00  0.16427854314E+02  0.16427854314E+02  0.00000000000E+00 0. -1.
         -2   -1    0    0    0  501 -0.00000000000E+00 -0.00000000000E+00 -0.10730150876E+04  0.10730150876E+04  0.00000000000E+00 0.  1.
         25    2    1    2    0    0 -0.23314685243E+02 -0.57241958888E+02 -0.76803164654E+03  0.78060246541E+03  0.12508949797E+03 0.  0.
         23    2    1    2    0    0  0.23314685243E+02  0.57241958888E+02 -0.28855558670E+03  0.30884047646E+03  0.91092792698E+02 0.  0.
          5    1    3    3  502    0  0.25863823521E+02 -0.12223348576E+02 -0.58578653995E+03  0.58649952293E+03  0.41800000000E+01 0.  1.
         -5    1    3    3    0  502 -0.49178508764E+02 -0.45018610312E+02 -0.18224510659E+03  0.19410294247E+03  0.41800000000E+01 0.  1.
        -11    1    4    4    0    0  0.55917675862E+02  0.38085796819E+02 -0.22432471644E+03  0.23430512756E+03  0.00000000000E+00 0.  1.
         11    1    4    4    0    0 -0.32602990618E+02  0.19156162069E+02 -0.64230870256E+02  0.74535348904E+02  0.00000000000E+00 0. -1.
</event>
<event>
 8    1  0.7136454E-009  0.1624996E+03  0.7561462E-02  0.1185903E+00
         -2   -1    0    0    0  501 -0.00000000000E+00  0.00000000000E+00  0.57952107284E+03  0.57952107284E+03  0.00000000000E+00 0.  1.
          2   -1    0    0  501    0  0.00000000000E+00 -0.00000000000E+00 -0.55752787570E+02  0.55752787570E+02  0.00000000000E+00 0. -1.
         25    2    1    2    0    0  0.99231807300E+02  0.97643044511E+02  0.24215870896E+03  0.30605434371E+03  0.12508918923E+03 0.  0.
         23    2    1    2    0    0 -0.99231807300E+02 -0.97643044511E+02  0.28160957631E+03  0.32921951669E+03  0.98490715204E+02 0.  0.
          5    1    3    3  502    0  0.12772131769E+03  0.86056946633E+02  0.21684086858E+03  0.26599993936E+03  0.41800000000E+01 0. -1.
         -5    1    3    3    0  502 -0.28489510391E+02  0.11586097878E+02  0.25317840382E+02  0.40054404351E+02  0.41800000000E+01 0. -1.
        -11    1    4    4    0    0 -0.70198272821E+02 -0.59920716431E+02  0.80232546746E+02  0.12229289154E+03  0.00000000000E+00 0. -1.
         11    1    4    4    0    0 -0.29033534479E+02 -0.37722328080E+02  0.20137702957E+03  0.20692662515E+03  0.00000000000E+00 0.  1.
</event>
<event>
 8    1  0.7136454E-009  0.7765787E+02  0.7561462E-02  0.1335833E+00
         -2   -1    0    0    0  501 -0.00000000000E+00  0.00000000000E+00  0.15932559981E+03  0.15932559981E+03  0.00000000000E+00 0. -1.
          2   -1    0    0  501    0  0.00000000000E+00 -0.00000000000E+00 -0.73953985065E+02  0.73953985065E+02  0.00000000000E+00 0.  1.
         25    2    1    2    0    0 -0.56149382113E+01  0.41281157151E+01  0.31980430131E+02  0.12930561637E+03  0.12509446687E+03 0.  0.
         23    2    1    2    0    0  0.56149382113E+01 -0.41281157151E+01  0.53391184615E+02  0.10397396851E+03  0.88946043546E+02 0.  0.
          5    1    3    3  502    0 -0.25002916301E+01 -0.34788559191E+02  0.67670450409E+02  0.76244721571E+02  0.41800000000E+01 0. -1.
         -5    1    3    3    0  502 -0.31146465812E+01  0.38916674906E+02 -0.35690020279E+02  0.53060894796E+02  0.41800000000E+01 0. -1.
        -11    1    4    4    0    0 -0.74233271024E+01  0.37021189701E+02  0.47078220950E+02  0.60349259813E+02  0.00000000000E+00 0. -1.
         11    1    4    4    0    0  0.13038265314E+02 -0.41149305416E+02  0.63129636649E+01  0.43624708696E+02  0.00000000000E+00 0.  1.
</event>
<event>
 8    1  0.7136454E-009  0.2741491E+03  0.7561462E-02  0.1098928E+00
         -2   -1    0    0    0  501 -0.00000000000E+00  0.00000000000E+00  0.59440709339E+02  0.59440709339E+02  0.00000000000E+00 0.  1.
          2   -1    0    0  501    0  0.00000000000E+00 -0.00000000000E+00 -0.16954521208E+04  0.16954521208E+04  0.00000000000E+00 0. -1.
         25    2    1    2    0    0 -0.23577505398E+03 -0.10948368408E+03 -0.41715276306E+03  0.50718891885E+03  0.12509044134E+03 0.  0.
         23    2    1    2    0    0  0.23577505398E+03  0.10948368408E+03 -0.12188586484E+04  0.12477039113E+04  0.59766983391E+02 0.  0.
          5    1    3    3  502    0 -0.14424226825E+03  0.16005979581E+01 -0.21766599671E+03  0.26115963009E+03  0.41800000000E+01 0. -1.
         -5    1    3    3    0  502 -0.91532785734E+02 -0.11108428204E+03 -0.19948676635E+03  0.24602928876E+03  0.41800000000E+01 0. -1.
        -11    1    4    4    0    0  0.13022829876E+03  0.58179695194E+02 -0.80453793205E+03  0.81708357641E+03  0.00000000000E+00 0. -1.
         11    1    4    4    0    0  0.10554675523E+03  0.51303988886E+02 -0.41432071633E+03  0.43062033486E+03  0.00000000000E+00 0.  1.
</event>
<event>
 8    1  0.7136454E-009  0.1114956E+03  0.7561462E-02  0.1257825E+00
         -1   -1    0    0    0  501 -0.00000000000E+00  0.00000000000E+00  0.12862738526E+02  0.12862738526E+02  0.00000000000E+00 0.  1.
          1   -1    0    0  501    0  0.00000000000E+00 -0.00000000000E+00 -0.12253521883E+04  0.12253521883E+04  0.00000000000E+00 0. -1.
         25    2    1    2    0    0 -0.39599951299E+02 -0.18442075925E+02 -0.90411115869E+03  0.91376994929E+03  0.12510102574E+03 0.  0.
         23    2    1    2    0    0  0.39599951299E+02  0.18442075925E+02 -0.30837829105E+03  0.32444497751E+03  0.90879627701E+02 0.  0.
          5    1    3    3  502    0 -0.83117858109E+02 -0.25920511771E+02 -0.54428464455E+03  0.55122019009E+03  0.41800000000E+01 0. -1.
         -5    1    3    3    0  502  0.43517906810E+02  0.74784358462E+01 -0.35982651414E+03  0.36254975920E+03  0.41800000000E+01 0. -1.
        -11    1    4    4    0    0  0.45606761289E+02 -0.21965204433E+02 -0.23568102182E+03  0.24105599127E+03  0.00000000000E+00 0. -1.
         11    1    4    4    0    0 -0.60068099907E+01  0.40407280357E+02 -0.72697269235E+02  0.83388986241E+02  0.00000000000E+00 0.  1.
</event>
<event>
 8    1  0.7136454E-009  0.9272266E+02  0.7561462E-02  0.1296389E+00
         -2   -1    0    0    0  501 -0.00000000000E+00  0.00000000000E+00  0.63703688034E+02  0.63703688034E+02  0.00000000000E+00 0.  1.
          2   -1    0    0  501    0  0.00000000000E+00 -0.00000000000E+00 -0.22186942808E+03  0.22186942808E+03  0.00000000000E+00 0. -1.
         25    2    1    2    0    0 -0.35304384596E+02 -0.11123703752E+02 -0.12906403528E+03  0.18350723928E+03  0.12508894959E+03 0.  0.
         23    2    1    2    0    0  0.35304384596E+02  0.11123703752E+02 -0.29101704768E+02  0.10206587683E+03  0.90556046931E+02 0.  0.
          5    1    3    3  502    0 -0.81485817710E+01 -0.49751793508E+02 -0.51661010413E+01  0.50850775237E+02  0.41800000000E+01 0. -1.
         -5    1    3    3    0  502 -0.27155802825E+02  0.38628089757E+02 -0.12389793423E+03  0.13265646404E+03  0.41800000000E+01 0. -1.
        -11    1    4    4    0    0 -0.24911044115E+02 -0.43378577584E+01  0.11536451567E+02  0.27793287744E+02  0.00000000000E+00 0.  1.
         11    1    4    4    0    0  0.60215428711E+02  0.15461561510E+02 -0.40638156336E+02  0.74272589086E+02  0.00000000000E+00 0. -1.
</event>
<event>
 8    1  0.7136454E-009  0.1415119E+03  0.7561462E-02  0.1211309E+00
          3   -1    0    0  501    0  0.00000000000E+00  0.00000000000E+00  0.29282113160E+02  0.29282113160E+02  0.00000000000E+00 0. -1.
         -3   -1    0    0    0  501 -0.00000000000E+00 -0.00000000000E+00 -0.10085794660E+04  0.10085794660E+04  0.00000000000E+00 0.  1.
         25    2    1    2    0    0  0.12021933038E+03 -0.20594068217E+01 -0.45388884420E+03  0.48592149721E+03  0.12509072711E+03 0.  0.
         23    2    1    2    0    0 -0.12021933038E+03  0.20594068217E+01 -0.52540850867E+03  0.55194008198E+03  0.11885631897E+03 0.  0.
          5    1    3    3  502    0  0.64247773983E+02  0.47950432355E+02 -0.34079222546E+03  0.35011974203E+03  0.41800000000E+01 0. -1.
         -5    1    3    3    0  502  0.55971556396E+02 -0.50009839177E+02 -0.11309661874E+03  0.13580175518E+03  0.41800000000E+01 0. -1.
        -11    1    4    4    0    0 -0.85365429722E+02 -0.18161965518E+02 -0.49175568731E+03  0.49944045650E+03  0.00000000000E+00 0.  1.
         11    1    4    4    0    0 -0.34853900657E+02  0.20221372340E+02 -0.33652821359E+02  0.52499625481E+02  0.00000000000E+00 0. -1.
</event>
<event>
 8    1  0.7136454E-009  0.1052178E+03  0.7561462E-02  0.1269691E+00
         -3   -1    0    0    0  501 -0.00000000000E+00  0.00000000000E+00  0.23615290739E+03  0.23615290739E+03  0.00000000000E+00 0.  1.
          3   -1    0    0  501    0  0.00000000000E+00 -0.00000000000E+00 -0.10481383042E+03  0.10481383042E+03  0.00000000000E+00 0. -1.
         25    2    1    2    0    0 -0.32495189331E+02  0.91742363155E+01  0.18789704839E+03  0.22823916048E+03  0.12509080557E+03 0.  0.
         23    2    1    2    0    0  0.32495189331E+02 -0.91742363155E+01 -0.56557971421E+02  0.11272757733E+03  0.91480044916E+02 0.  0.
          5    1    3    3  502    0 -0.59820239782E+02 -0.40153366202E+02  0.92211105998E+02  0.11709446774E+03  0.41800000000E+01 0.  1.
         -5    1    3    3    0  502  0.27325050451E+02  0.49327602518E+02  0.95685942397E+02  0.11114469274E+03  0.41800000000E+01 0.  1.
        -11    1    4    4    0    0  0.37093103249E+01  0.31596618746E+02 -0.54096921224E+02  0.62758124455E+02  0.00000000000E+00 0. -1.
         11    1    4    4    0    0  0.28785879006E+02 -0.40770855061E+02 -0.24610501973E+01  0.49969452875E+02  0.00000000000E+00 0.  1.
</event>
<event>
 8    1  0.7136454E-009  0.8603200E+02  0.7561462E-02  0.1312756E+00
         -1   -1    0    0    0  501 -0.00000000000E+00  0.00000000000E+00  0.19577166009E+03  0.19577166009E+03  0.00000000000E+00 0.  1.
          1   -1    0    0  501    0  0.00000000000E+00 -0.00000000000E+00 -0.67154017312E+02  0.67154017312E+02  0.00000000000E+00 0. -1.
         25    2    1    2    0    0  0.15809595258E+02 -0.33897243520E+02  0.69190271987E+02  0.14775263141E+03  0.12507829520E+03 0.  0.
         23    2    1    2    0    0 -0.15809595258E+02  0.33897243520E+02  0.59427370794E+02  0.11517304600E+03  0.91292122901E+02 0.  0.
          5    1    3    3  502    0  0.16830307842E+02  0.32037203218E+02  0.72982339857E+02  0.81569209773E+02  0.41800000000E+01 0.  1.
         -5    1    3    3    0  502 -0.10207125836E+01 -0.65934446738E+02 -0.37920678692E+01  0.66183421637E+02  0.41800000000E+01 0.  1.
        -11    1    4    4    0    0  0.17432951342E+02  0.31782932871E+02 -0.10480818378E+02  0.37734734242E+02  0.00000000000E+00 0. -1.
         11    1    4    4    0    0 -0.33242546600E+02  0.21143106489E+01  0.69908189171E+02  0.77438311753E+02  0.00000000000E+00 0.  1.
</event>
<event>
 8    1  0.7136454E-009  0.1560010E+03  0.7561462E-02  0.1193287E+00
         -2   -1    0    0    0  501 -0.00000000000E+00  0.00000000000E+00  0.34282178361E+02  0.34282178361E+02  0.00000000000E+00 0.  1.
          2   -1    0    0  501    0  0.00000000000E+00 -0.00000000000E+00 -0.93238653048E+03  0.93238653048E+03  0.00000000000E+00 0. -1.
         25    2    1    2    0    0  0.99692964043E+02 -0.59532672069E+02 -0.25543980689E+03  0.30721476649E+03  0.12509433112E+03 0.  0.
         23    2    1    2    0    0 -0.99692964043E+02  0.59532672069E+02 -0.64266454522E+03  0.65945394235E+03  0.91536649885E+02 0.  0.
          5    1    3    3  502    0  0.11910670851E+03 -0.73973909711E+02 -0.18202363445E+03  0.22980126899E+03  0.41800000000E+01 0.  1.
         -5    1    3    3    0  502 -0.19413744465E+02  0.14441237642E+02 -0.73416172447E+02  0.77413497502E+02  0.41800000000E+01 0.  1.
        -11    1    4    4    0    0 -0.96945370005E+02  0.98795839394E+01 -0.45447284855E+03  0.46480273344E+03  0.00000000000E+00 0. -1.
         11    1    4    4    0    0 -0.27475940381E+01  0.49653088130E+02 -0.18819169668E+03  0.19465120891E+03  0.00000000000E+00 0.  1.
</event>
<event>
 8    1  0.7136454E-009  0.1014271E+03  0.7561462E-02  0.1277323E+00
          1   -1    0    0  501    0  0.00000000000E+00  0.00000000000E+00  0.22484613692E+03  0.22484613692E+03  0.00000000000E+00 0. -1.
         -1   -1    0    0    0  501 -0.00000000000E+00 -0.00000000000E+00 -0.72828676870E+02  0.72828676870E+02  0.00000000000E+00 0.  1.
         25    2    1    2    0    0  0.63843061502E+02  0.20345626381E+02  0.92122396064E+02  0.16918690756E+03  0.12509113805E+03 0.  0.
         23    2    1    2    0    0 -0.63843061502E+02 -0.20345626381E+02  0.59895063986E+02  0.12848790623E+03  0.91825063807E+02 0.  0.
          5    1    3    3  502    0  0.92866168552E+02  0.26074720234E+02  0.31422541151E+02  0.10153257994E+03  0.41800000000E+01 0.  1.
         -5    1    3    3    0  502 -0.29023107050E+02 -0.57290938528E+01  0.60699854913E+02  0.67654327620E+02  0.41800000000E+01 0.  1.
        -11    1    4    4    0    0 -0.49649310555E+02 -0.31131612222E+02 -0.72201935278E+01  0.59045427534E+02  0.00000000000E+00 0.  1.
         11    1    4    4    0    0 -0.14193750947E+02  0.10785985841E+02  0.67115257514E+02  0.69442478698E+02  0.00000000000E+00 0. -1.
</event>
<event>
 8    1  0.7136454E-009  0.1180579E+03  0.7561462E-02  0.1246336E+00
         -1   -1    0    0    0  501 -0.00000000000E+00  0.00000000000E+00  0.52362640286E+02  0.52362640286E+02  0.00000000000E+00 0.  1.
          1   -1    0    0  501    0  0.00000000000E+00 -0.00000000000E+00 -0.39503553575E+03  0.39503553575E+03  0.00000000000E+00 0. -1.
         25    2    1    2    0    0  0.46519057612E+02 -0.29590027359E+02 -0.68027897995E+02  0.15269292757E+03  0.12509093806E+03 0.  0.
         23    2    1    2    0    0 -0.46519057612E+02  0.29590027359E+02 -0.27464499747E+03  0.29470524846E+03  0.91551714326E+02 0.  0.
          5    1    3    3  502    0  0.67397508312E+02  0.24645958041E+02 -0.60475784040E+02  0.93939556257E+02  0.41800000000E+01 0.  1.
         -5    1    3    3    0  502 -0.20878450700E+02 -0.54235985400E+02 -0.75521139541E+01  0.58753371317E+02  0.41800000000E+01 0.  1.
        -11    1    4    4    0    0 -0.54683113392E+02  0.56031398308E+02 -0.18496517743E+03  0.20085287488E+03  0.00000000000E+00 0.  1.
         11    1    4    4    0    0  0.81640557798E+01 -0.26441370949E+02 -0.89679820039E+02  0.93852373580E+02  0.00000000000E+00 0. -1.
</event>
<event>
 8    1  0.7136454E-009  0.8001598E+02  0.7561462E-02  0.1329006E+00
         -1   -1    0    0    0  501 -0.00000000000E+00  0.00000000000E+00  0.32012973987E+02  0.32012973987E+02  0.00000000000E+00 0.  1.
          1   -1    0    0  501    0  0.00000000000E+00 -0.00000000000E+00 -0.46793832739E+03  0.46793832739E+03  0.00000000000E+00 0. -1.
         25    2    1    2    0    0  0.46614762369E+02  0.34150052849E+02 -0.24086930840E+03  0.27749555183E+03  0.12508635169E+03 0.  0.
         23    2    1    2    0    0 -0.46614762369E+02 -0.34150052849E+02 -0.19505604501E+03  0.22245574954E+03  0.90002986794E+02 0.  0.
          5    1    3    3  502    0  0.29971853361E+02  0.30631192581E+02 -0.77885200769E+01  0.43757461053E+02  0.41800000000E+01 0. -1.
         -5    1    3    3    0  502  0.16642909009E+02  0.35188602683E+01 -0.23308078832E+03  0.23373809078E+03  0.41800000000E+01 0. -1.
        -11    1    4    4    0    0 -0.34253999761E+02 -0.60965319527E+02 -0.16967134081E+03  0.18351694902E+03  0.00000000000E+00 0. -1.
         11    1    4    4    0    0 -0.12360762608E+02  0.26815266678E+02 -0.25384704192E+02  0.38938800523E+02  0.00000000000E+00 0.  1.
</event>
<event>
 8    1  0.7136454E-009  0.1393472E+03  0.7561462E-02  0.1214210E+00
         -1   -1    0    0    0  501 -0.00000000000E+00  0.00000000000E+00  0.17287087981E+02  0.17287087981E+02  0.00000000000E+00 0.  1.
          1   -1    0    0  501    0  0.00000000000E+00 -0.00000000000E+00 -0.12774316892E+04  0.12774316892E+04  0.00000000000E+00 0. -1.
         25    2    1    2    0    0 -0.92820761211E+02  0.33745987528E+02 -0.76560202456E+03  0.78201571378E+03  0.12509049207E+03 0.  0.
         23    2    1    2    0    0  0.92820761211E+02 -0.33745987528E+02 -0.49454257669E+03  0.51270306342E+03  0.92399056832E+02 0.  0.
          5    1    3    3  502    0 -0.98629063106E+02  0.67994023998E+02 -0.50258310083E+03  0.51667990577E+03  0.41800000000E+01 0. -1.
         -5    1    3    3    0  502  0.58083018948E+01 -0.34248036470E+02 -0.26301892372E+03  0.26533580801E+03  0.41800000000E+01 0. -1.
        -11    1    4    4    0    0  0.11942356494E+02 -0.40934937913E+02 -0.83950185050E+02  0.94159028194E+02  0.00000000000E+00 0.  1.
         11    1    4    4    0    0  0.80878404717E+02  0.71889503852E+01 -0.41059239164E+03  0.41854403523E+03  0.00000000000E+00 0. -1.
</event>
<event>
 8    1  0.7136454E-009  0.8808297E+02  0.7561462E-02  0.1307562E+00
          2   -1    0    0  501    0  0.00000000000E+00  0.00000000000E+00  0.25226835725E+03  0.25226835725E+03  0.00000000000E+00 0. -1.
         -2   -1    0    0    0  501 -0.00000000000E+00 -0.00000000000E+00 -0.91679241043E+02  0.91679241043E+02  0.00000000000E+00 0.  1.
         25    2    1    2    0    0  0.36581206269E+02  0.40512323047E+02 -0.15627568292E+02  0.13737124008E+03  0.12508878343E+03 0.  0.
         23    2    1    2    0    0 -0.36581206269E+02 -0.40512323047E+02  0.17621668450E+03  0.20657635821E+03  0.92962567227E+02 0.  0.
          5    1    3    3  502    0  0.67857910693E+01 -0.33937858835E+02  0.29139373503E+02  0.45435676631E+02  0.41800000000E+01 0.  1.
         -5    1    3    3    0  502  0.29795415200E+02  0.74450181882E+02 -0.44766941795E+02  0.91935563450E+02  0.41800000000E+01 0.  1.
        -11    1    4    4    0    0 -0.13479218924E+02  0.98001206730E+00 -0.84246086632E+01  0.15925570558E+02  0.00000000000E+00 0.  1.
         11    1    4    4    0    0 -0.23101987345E+02 -0.41492335114E+02  0.18464129316E+03  0.19065078765E+03  0.00000000000E+00 0. -1.
</event>
<event>
 8    1  0.7136454E-009  0.2365860E+03  0.7561462E-02  0.1122088E+00
          2   -1    0    0  501    0  0.00000000000E+00  0.00000000000E+00  0.21868366416E+03  0.21868366416E+03  0.00000000000E+00 0. -1.
         -2   -1    0    0    0  501 -0.00000000000E+00 -0.00000000000E+00 -0.26853153716E+03  0.26853153716E+03  0.00000000000E+00 0.  1.
         25    2    1    2    0    0  0.16686629397E+03 -0.13374518114E+03 -0.57308578188E+01  0.24781609868E+03  0.12509133660E+03 0.  0.
         23    2    1    2    0    0 -0.16686629397E+03  0.13374518114E+03 -0.44117015187E+02  0.23939910264E+03  0.98150322346E+02 0.  0.
          5    1    3    3  502    0 -0.20435469609E+02 -0.17811365900E+02 -0.24211378655E+00  0.27429622535E+02  0.41800000000E+01 0. -1.
         -5    1    3    3    0  502  0.18730176358E+03 -0.11593381524E+03 -0.54887440323E+01  0.22038647614E+03  0.41800000000E+01 0. -1.
        -11    1    4    4    0    0 -0.34124298938E+02  0.70632193409E+02 -0.48725891534E+02  0.92344935051E+02  0.00000000000E+00 0.  1.
         11    1    4    4    0    0 -0.13274199503E+03  0.63112987728E+02  0.46088763476E+01  0.14705416759E+03  0.00000000000E+00 0. -1.
</event>
<event>
 8    1  0.7136454E-009  0.1097799E+03  0.7561462E-02  0.1260978E+00
         -1   -1    0    0    0  501 -0.00000000000E+00  0.00000000000E+00  0.69707288933E+02  0.69707288933E+02  0.00000000000E+00 0.  1.
          1   -1    0    0  501    0  0.00000000000E+00 -0.00000000000E+00 -0.25094562193E+03  0.25094562193E+03  0.00000000000E+00 0. -1.
         25    2    1    2    0    0 -0.51081362658E+02  0.33368980135E+02 -0.47904363877E+02  0.14716265541E+03  0.12505688554E+03 0.  0.
         23    2    1    2    0    0  0.51081362658E+02 -0.33368980135E+02 -0.13333396912E+03  0.17349025545E+03  0.92726085709E+02 0.  0.
          5    1    3    3  502    0  0.21953068740E+01 -0.42184597402E+02 -0.32239677687E+02  0.53303178588E+02  0.41800000000E+01 0. -1.
         -5    1    3    3    0  502 -0.53276669532E+02  0.75553577537E+02 -0.15664686190E+02  0.93859476817E+02  0.41800000000E+01 0. -1.
        -11    1    4    4    0    0  0.62614550005E+02 -0.17616444377E+02 -0.36253913118E+02  0.74466550889E+02  0.00000000000E+00 0.  1.
         11    1    4    4    0    0 -0.11533187348E+02 -0.15752535758E+02 -0.97080055998E+02  0.99023704565E+02  0.00000000000E+00 0. -1.
</event>
<event>
 8    1  0.7136454E-009  0.1242608E+03  0.7561462E-02  0.1236229E+00
         -1   -1    0    0    0  501 -0.00000000000E+00  0.00000000000E+00  0.44106516051E+03  0.44106516051E+03  0.00000000000E+00 0.  1.
          1   -1    0    0  501    0  0.00000000000E+00 -0.00000000000E+00 -0.13860736597E+03  0.13860736597E+03  0.00000000000E+00 0. -1.
         25    2    1    2    0    0 -0.74065226073E+02  0.26472095995E+02  0.39823568418E+03  0.42476945321E+03  0.12510395135E+03 0.  0.
         23    2    1    2    0    0  0.74065226073E+02 -0.26472095995E+02 -0.95777889650E+02  0.15490307327E+03  0.92925391492E+02 0.  0.
          5    1    3    3  502    0  0.29789041999E+02  0.35498708983E+01  0.35127597521E+02  0.46383284858E+02  0.41800000000E+01 0.  1.
         -5    1    3    3    0  502 -0.10385426807E+03  0.22922225096E+02  0.36310808666E+03  0.37838616835E+03  0.41800000000E+01 0.  1.
        -11    1    4    4    0    0  0.35084632260E+02  0.27947994339E+02 -0.97564593326E+01  0.45904360437E+02  0.00000000000E+00 0.  1.
         11    1    4    4    0    0  0.38980593813E+02 -0.54420090334E+02 -0.86021430317E+02  0.10899871284E+03  0.00000000000E+00 0. -1.
</event>
<event>
 8    1  0.7136454E-009  0.9331486E+02  0.7561462E-02  0.1295017E+00
         -2   -1    0    0    0  501 -0.00000000000E+00  0.00000000000E+00  0.33544726821E+02  0.33544726821E+02  0.00000000000E+00 0.  1.
          2   -1    0    0  501    0  0.00000000000E+00 -0.00000000000E+00 -0.45019060998E+03  0.45019060998E+03  0.00000000000E+00 0. -1.
         25    2    1    2    0    0 -0.62049495603E+01  0.23163833797E+02 -0.13149881559E+03  0.18306431931E+03  0.12508214065E+03 0.  0.
         23    2    1    2    0    0  0.62049495603E+01 -0.23163833797E+02 -0.28514706757E+03  0.30067101749E+03  0.92299220033E+02 0.  0.
          5    1    3    3  502    0 -0.10406153335E+02  0.63616342319E+02 -0.25489495891E+02  0.69444321857E+02  0.41800000000E+01 0.  1.
         -5    1    3    3    0  502  0.42012037743E+01 -0.40452508523E+02 -0.10600931970E+03  0.11361999745E+03  0.41800000000E+01 0.  1.
        -11    1    4    4    0    0  0.40346145517E+02 -0.83723792900E+00 -0.63049569853E+02  0.74858270646E+02  0.00000000000E+00 0.  1.
         11    1    4    4    0    0 -0.34141195957E+02 -0.22326595868E+02 -0.22209749772E+03  0.22581274684E+03  0.00000000000E+00 0. -1.
</event>
<event>
 8    1  0.7136454E-009  0.1634019E+03  0.7561462E-02  0.1184909E+00
         -2   -1    0    0    0  501 -0.00000000000E+00  0.00000000000E+00  0.49220071909E+02  0.49220071909E+02  0.00000000000E+00 0.  1.
          2   -1    0    0  501    0  0.00000000000E+00 -0.00000000000E+00 -0.76566872817E+03  0.76566872817E+03  0.00000000000E+00 0. -1.
         25    2    1    2    0    0 -0.91517049425E+02  0.11971334806E+03 -0.25643634378E+03  0.32266734730E+03  0.12509181653E+03 0.  0.
         23    2    1    2    0    0  0.91517049425E+02 -0.11971334806E+03 -0.46001231248E+03  0.49222145278E+03  0.89241105449E+02 0.  0.
          5    1    3    3  502    0 -0.14202773083E+02  0.92932514814E+02 -0.20595486408E+03  0.22643553059E+03  0.41800000000E+01 0.  1.
         -5    1    3    3    0  502 -0.77314276341E+02  0.26780833246E+02 -0.50481479697E+02  0.96231816713E+02  0.41800000000E+01 0.  1.
        -11    1    4    4    0    0  0.35703743610E+02 -0.42699154509E+02 -0.30739005054E+03  0.31238856937E+03  0.00000000000E+00 0. -1.
         11    1    4    4    0    0  0.55813305814E+02 -0.77014193551E+02 -0.15262226194E+03  0.17983288341E+03  0.00000000000E+00 0.  1.
</event>
<event>
 8    1  0.7136454E-009  0.1091862E+03  0.7561462E-02  0.1262084E+00
         -4   -1    0    0    0  501 -0.00000000000E+00  0.00000000000E+00  0.17496818899E+03  0.17496818899E+03  0.00000000000E+00 0.  1.
          4   -1    0    0  501    0  0.00000000000E+00 -0.00000000000E+00 -0.76411125805E+02  0.76411125805E+02  0.00000000000E+00 0. -1.
         25    2    1    2    0    0 -0.22154043849E+02 -0.50112627482E+01  0.90700925642E+02  0.15616912666E+03  0.12508486638E+03 0.  0.
         23    2    1    2    0    0  0.22154043849E+02  0.50112627482E+01  0.78561375409E+01  0.95210188133E+02  0.92126796396E+02 0.  0.
          5    1    3    3  502    0  0.32402853276E+01  0.58313189270E+02  0.46473440137E+02  0.74754133865E+02  0.41800000000E+01 0. -1.
         -5    1    3    3    0  502 -0.25394329176E+02 -0.63324452018E+02  0.44227485506E+02  0.81414992795E+02  0.41800000000E+01 0. -1.
        -11    1    4    4    0    0 -0.10668317397E+02  0.41229445400E+02  0.16315210192E+02  0.45605550623E+02  0.00000000000E+00 0.  1.
         11    1    4    4    0    0  0.32822361246E+02 -0.36218182652E+02 -0.84590726509E+01  0.49604637510E+02  0.00000000000E+00 0. -1.
</event>
<event>
 8    1  0.7136454E-009  0.2943465E+03  0.7561462E-02  0.1088101E+00
         -2   -1    0    0    0  501 -0.00000000000E+00  0.00000000000E+00  0.95059139476E+02  0.95059139476E+02  0.00000000000E+00 0.  1.
          2   -1    0    0  501    0  0.00000000000E+00 -0.00000000000E+00 -0.14652285753E+04  0.14652285753E+04  0.00000000000E+00 0. -1.
         25    2    1    2    0    0 -0.22801678026E+03  0.17997037498E+03 -0.11261734110E+04  0.11697422435E+04  0.12509746853E+03 0.  0.
         23    2    1    2    0    0  0.22801678026E+03 -0.17997037498E+03 -0.24399602482E+03  0.39054547127E+03  0.92793949443E+02 0.  0.
          5    1    3    3  502    0 -0.19216223811E+03  0.16528414540E+03 -0.10798513164E+04  0.11092076057E+04  0.41800000000E+01 0.  1.
         -5    1    3    3    0  502 -0.35854542148E+02  0.14686229578E+02 -0.46322094566E+02  0.60534637827E+02  0.41800000000E+01 0.  1.
        -11    1    4    4    0    0  0.91830094760E+02 -0.10941317973E+03 -0.16424905962E+03  0.21767352570E+03  0.00000000000E+00 0. -1.
         11    1    4    4    0    0  0.13618668550E+03 -0.70557195252E+02 -0.79746965195E+02  0.17287194558E+03  0.00000000000E+00 0.  1.
</event>
<event>
 8    1  0.7136454E-009  0.1213700E+03  0.7561462E-02  0.1240854E+00
          3   -1    0    0  501    0  0.00000000000E+00  0.00000000000E+00  0.98309208461E+02  0.98309208461E+02  0.00000000000E+00 0. -1.
         -3   -1    0    0    0  501 -0.00000000000E+00 -0.00000000000E+00 -0.23718781476E+03  0.23718781476E+03  0.00000000000E+00 0.  1.
         25    2    1    2    0    0  0.81256955753E+02 -0.35823772556E+02 -0.14381777219E+03  0.21027560213E+03  0.12508493800E+03 0.  0.
         23    2    1    2    0    0 -0.81256955753E+02  0.35823772556E+02  0.49391658988E+01  0.12522142109E+03  0.88147452606E+02 0.  0.
          5    1    3    3  502    0 -0.17384661598E+01 -0.49522385943E+02 -0.10771800949E+03  0.11864287144E+03  0.41800000000E+01 0.  1.
         -5    1    3    3    0  502  0.82995421913E+02  0.13698613387E+02 -0.36099762704E+02  0.91632730694E+02  0.41800000000E+01 0.  1.
        -11    1    4    4    0    0 -0.49300626500E+02 -0.12494355046E+02  0.33229945409E+02  0.60752695028E+02  0.00000000000E+00 0. -1.
         11    1    4    4    0    0 -0.31956329253E+02  0.48318127603E+02 -0.28290779510E+02  0.64468726059E+02  0.00000000000E+00 0.  1.
</event>
<event>
 8    1  0.7136454E-009  0.8953075E+02  0.7561462E-02  0.1303992E+00
         -2   -1    0    0    0  501 -0.00000000000E+00  0.00000000000E+00  0.48201229570E+02  0.48201229570E+02  0.00000000000E+00 0.  1.
          2   -1    0    0  501    0  0.00000000000E+00 -0.00000000000E+00 -0.29587457232E+03  0.29587457232E+03  0.00000000000E+00 0. -1.
         25    2    1    2    0    0 -0.12554956834E+02 -0.43727433846E+02 -0.10580560578E+03  0.17003464753E+03  0.12508892731E+03 0.  0.
         23    2    1    2    0    0  0.12554956834E+02  0.43727433846E+02 -0.14186773697E+03  0.17404115436E+03  0.89967511947E+02 0.  0.
          5    1    3    3  502    0  0.23845806134E+02 -0.72772901307E+02 -0.94913111333E+02  0.12202659029E+03  0.41800000000E+01 0. -1.
         -5    1    3    3    0  502 -0.36400762968E+02  0.29045467461E+02 -0.10892494444E+02  0.48008057240E+02  0.41800000000E+01 0. -1.
        -11    1    4    4    0    0  0.22492973865E+02  0.20856525281E+02 -0.69449471676E+00  0.30682419119E+02  0.00000000000E+00 0.  1.
         11    1    4    4    0    0 -0.99380170307E+01  0.22870908564E+02 -0.14117324226E+03  0.14335873524E+03  0.00000000000E+00 0. -1.
</event>
<event>
 8    1  0.7136454E-009  0.1447198E+03  0.7561462E-02  0.1207116E+00
          1   -1    0    0  501    0  0.00000000000E+00  0.00000000000E+00  0.58489822604E+02  0.58489822604E+02  0.00000000000E+00 0. -1.
         -1   -1    0    0    0  501 -0.00000000000E+00 -0.00000000000E+00 -0.36815722883E+03  0.36815722883E+03  0.00000000000E+00 0.  1.
         25    2    1    2    0    0 -0.55337937987E+02 -0.82049293715E+02 -0.15961128723E+03  0.22564883612E+03  0.12508900933E+03 0.  0.
         23    2    1    2    0    0  0.55337937987E+02  0.82049293715E+02 -0.15005611900E+03  0.20099821531E+03  0.89939255771E+02 0.  0.
          5    1    3    3  502    0  0.27206192128E+02 -0.68793727985E+02 -0.91457595297E+02  0.11770606627E+03  0.41800000000E+01 0.  1.
         -5    1    3    3    0  502 -0.82544130115E+02 -0.13255565730E+02 -0.68153691929E+02  0.10794276985E+03  0.41800000000E+01 0.  1.
        -11    1    4    4    0    0  0.72394657324E+02  0.87652944459E+02 -0.11553480426E+03  0.16208737174E+03  0.00000000000E+00 0.  1.
         11    1    4    4    0    0 -0.17056719336E+02 -0.56036507433E+01 -0.34521314741E+02  0.38910843574E+02  0.00000000000E+00 0. -1.
</event>
<event>
 8    1  0.7136454E-009  0.1562414E+03  0.7561462E-02  0.1193007E+00
         -1   -1    0    0    0  501 -0.00000000000E+00  0.00000000000E+00  0.17470195819E+02  0.17470195819E+02  0.00000000000E+00 0.  1.
          1   -1    0    0  501    0  0.00000000000E+00 -0.00000000000E+00 -0.25309992152E+04  0.25309992152E+04  0.00000000000E+00 0. -1.
         25    2    1    2    0    0 -0.10572116315E+03 -0.94135571777E+02 -0.19821799124E+04  0.19911612963E+04  0.12509049661E+03 0.  0.
         23    2    1    2    0    0  0.10572116315E+03  0.94135571777E+02 -0.53134910695E+03  0.55730811474E+03  0.90675195553E+02 0.  0.
          5    1    3    3  502    0 -0.11020009270E+03 -0.81550016753E+02 -0.19608971625E+04  0.19656880780E+04  0.41800000000E+01 0.  1.
         -5    1    3    3    0  502  0.44789295556E+01 -0.12585555024E+02 -0.21282749935E+02  0.25473218289E+02  0.41800000000E+01 0.  1.
        -11    1    4    4    0    0  0.57929836730E+02  0.25053378120E+01 -0.27231121353E+03  0.27841612689E+03  0.00000000000E+00 0. -1.
         11    1    4    4    0    0  0.47791326417E+02  0.91630233965E+02 -0.25903789342E+03  0.27889198785E+03  0.00000000000E+00 0.  1.
</event>
<event>
 8    1  0.7136454E-009  0.1365603E+03  0.7561462E-02  0.1218034E+00
         -2   -1    0    0    0  501 -0.00000000000E+00  0.00000000000E+00  0.30917023939E+02  0.30917023939E+02  0.00000000000E+00 0. -1.
          2   -1    0    0  501    0  0.00000000000E+00 -0.00000000000E+00 -0.69984160156E+03  0.69984160156E+03  0.00000000000E+00 0.  1.
         25    2    1    2    0    0  0.42815217371E+02  0.72780059741E+02 -0.24109638557E+03  0.28442450425E+03  0.12505899228E+03 0.  0.
         23    2    1    2    0    0 -0.42815217371E+02 -0.72780059741E+02 -0.42782819205E+03  0.44633412125E+03  0.95116275900E+02 0.  0.
          5    1    3    3  502    0  0.17470535314E+02 -0.34140107655E+02 -0.86467624573E+02  0.94683098038E+02  0.41800000000E+01 0. -1.
         -5    1    3    3    0  502  0.25344682057E+02  0.10692016740E+03 -0.15462876100E+03  0.18974140622E+03  0.41800000000E+01 0. -1.
        -11    1    4    4    0    0 -0.62028330359E+02 -0.82364993114E+02 -0.38288483981E+03  0.39652529101E+03  0.00000000000E+00 0.  1.
         11    1    4    4    0    0  0.19213112988E+02  0.95849333735E+01 -0.44943352242E+02  0.49808830234E+02  0.00000000000E+00 0. -1.
</event>
<event>
 8    1  0.7136454E-009  0.8904980E+02  0.7561462E-02  0.1305169E+00
          1   -1    0    0  501    0  0.00000000000E+00  0.00000000000E+00  0.25356221320E+02  0.25356221320E+02  0.00000000000E+00 0. -1.
         -1   -1    0    0    0  501 -0.00000000000E+00 -0.00000000000E+00 -0.54244443396E+03  0.54244443396E+03  0.00000000000E+00 0.  1.
         25    2    1    2    0    0  0.34447209575E+02 -0.16950021526E+02 -0.23883316480E+03  0.27232789235E+03  0.12508911570E+03 0.  0.
         23    2    1    2    0    0 -0.34447209575E+02  0.16950021526E+02 -0.27825504784E+03  0.29547276293E+03  0.91675342966E+02 0.  0.
          5    1    3    3  502    0  0.13300459262E+02  0.30053839912E+02 -0.21103322258E+03  0.21361795089E+03  0.41800000000E+01 0.  1.
         -5    1    3    3    0  502  0.21146750314E+02 -0.47003861438E+02 -0.27799942222E+02  0.58709941462E+02  0.41800000000E+01 0.  1.
        -11    1    4    4    0    0 -0.49208833059E+02 -0.20268442659E+02 -0.20707388690E+03  0.21380344631E+03  0.00000000000E+00 0. -1.
         11    1    4    4    0    0  0.14761623484E+02  0.37218464185E+02 -0.71181160939E+02  0.81669316618E+02  0.00000000000E+00 0.  1.
</event>
<event>
 7    1  0.7136454E-009  0.1000696E+03  0.7561462E-02  0.1280150E+00
          4   -1    0    0  501    0  0.00000000000E+00  0.00000000000E+00  0.87948286766E+02  0.87948286766E+02  0.00000000000E+00 0. -1.
         -4   -1    0    0    0  501 -0.00000000000E+00 -0.00000000000E+00 -0.21581180317E+03  0.21581180317E+03  0.00000000000E+00 0.  1.
         25    2    1    2    0    0  0.39824906666E+02 -0.25081626058E+02 -0.36611667746E+02  0.13857622311E+03  0.12509134358E+03 0.  0.
          5    1    3    3  502    0  0.84333586693E+02 -0.99251517258E+01 -0.13734307755E+02  0.86120648458E+02  0.41800000000E+01 0. -1.
         -5    1    3    3    0  502 -0.44508680027E+02 -0.15156474332E+02 -0.22877359991E+02  0.52455574652E+02  0.41800000000E+01 0. -1.
        -11    1    1    2    0    0  0.88882092372E+01  0.16088569996E+02 -0.11051566989E+03  0.11203372546E+03  0.00000000000E+00 0.  1.
         11    1    1    2    0    0 -0.48713115903E+02  0.89930560613E+01  0.19263821239E+02  0.53150141364E+02  0.00000000000E+00 0. -1.
</event>
<event>
 8    1  0.7136454E-009  0.9201010E+02  0.7561462E-02  0.1298056E+00
          2   -1    0    0  501    0  0.00000000000E+00  0.00000000000E+00  0.17194699815E+04  0.17194699815E+04  0.00000000000E+00 0. -1.
         -2   -1    0    0    0  501 -0.00000000000E+00 -0.00000000000E+00 -0.83888818347E+01  0.83888818347E+01  0.00000000000E+00 0.  1.
         25    2    1    2    0    0 -0.21228837815E+02 -0.17102244354E+02  0.12917407090E+04  0.12980711047E+04  0.12510548906E+03 0.  0.
         23    2    1    2    0    0  0.21228837815E+02  0.17102244354E+02  0.41934039066E+03  0.42978775858E+03  0.90155442795E+02 0.  0.
          5    1    3    3  502    0 -0.35580535871E+02  0.27675213033E+02  0.10876634097E+04  0.10886050970E+04  0.41800000000E+01 0.  1.
         -5    1    3    3    0  502  0.14351698056E+02 -0.44777457387E+02  0.20407729928E+03  0.20946600777E+03  0.41800000000E+01 0.  1.
        -11    1    4    4    0    0  0.55362764480E+02  0.61890629562E+01  0.30207876586E+03  0.30717246129E+03  0.00000000000E+00 0. -1.
         11    1    4    4    0    0 -0.34133926665E+02  0.10913181397E+02  0.11726162480E+03  0.12261529729E+03  0.00000000000E+00 0.  1.
</event>
<event>
 8    1  0.7136454E-009  0.1316279E+03  0.7561462E-02  0.1225060E+00
         -1   -1    0    0    0  501 -0.00000000000E+00  0.00000000000E+00  0.57865803479E+02  0.57865803479E+02  0.00000000000E+00 0.  1.
          1   -1    0    0  501    0  0.00000000000E+00 -0.00000000000E+00 -0.40540192602E+03  0.40540192602E+03  0.00000000000E+00 0. -1.
         25    2    1    2    0    0 -0.25219175631E+02 -0.95223860671E+02 -0.15154776461E+03  0.21981484941E+03  0.12509297583E+03 0.  0.
         23    2    1    2    0    0  0.25219175631E+02  0.95223860671E+02 -0.19598835793E+03  0.24345288009E+03  0.10561381500E+03 0.  0.
          5    1    3    3  502    0 -0.21383851277E+01 -0.12282886873E+03 -0.11410156988E+03  0.16771447264E+03  0.41800000000E+01 0.  1.
         -5    1    3    3    0  502 -0.23080790504E+02  0.27605008054E+02 -0.37446194731E+02  0.52100376772E+02  0.41800000000E+01 0.  1.
        -11    1    4    4    0    0  0.21070567164E+01  0.69495569688E+02 -0.33229692235E+02  0.77060277318E+02  0.00000000000E+00 0.  1.
         11    1    4    4    0    0  0.23112118915E+02  0.25728290983E+02 -0.16275866570E+03  0.16639260277E+03  0.00000000000E+00 0. -1.
</event>
<event>
 8    1  0.7136454E-009  0.9728758E+02  0.7561462E-02  0.1286105E+00
          2   -1    0    0  501    0  0.00000000000E+00  0.00000000000E+00  0.41245114846E+03  0.41245114846E+03  0.00000000000E+00 0. -1.
         -2   -1    0    0    0  501 -0.00000000000E+00 -0.00000000000E+00 -0.30892725948E+02  0.30892725948E+02  0.00000000000E+00 0.  1.
         25    2    1    2    0    0  0.13876489403E+02  0.21153222665E+02  0.25587088600E+03  0.28593151058E+03  0.12508757991E+03 0.  0.
         23    2    1    2    0    0 -0.13876489403E+02 -0.21153222665E+02  0.12568753651E+03  0.15741236384E+03  0.91330606409E+02 0.  0.
          5    1    3    3  502    0 -0.49923065352E+02 -0.10426156421E+02  0.68901343646E+02  0.85824732729E+02  0.41800000000E+01 0. -1.
         -5    1    3    3    0  502  0.63799554754E+02  0.31579379085E+02  0.18696954236E+03  0.20010677785E+03  0.41800000000E+01 0. -1.
        -11    1    4    4    0    0  0.17674856833E+02 -0.33768227137E+02  0.13892198112E+02  0.40567066648E+02  0.00000000000E+00 0.  1.
         11    1    4    4    0    0 -0.31551346236E+02  0.12615004472E+02  0.11179533840E+03  0.11684529719E+03  0.00000000000E+00 0. -1.
</event>
<event>
 8    1  0.7136454E-009  0.2056781E+03  0.7561462E-02  0.1145035E+00
          2   -1    0    0  501    0  0.00000000000E+00  0.00000000000E+00  0.14229745902E+04  0.14229745902E+04  0.00000000000E+00 0.  1.
         -2   -1    0    0    0  501 -0.00000000000E+00 -0.00000000000E+00 -0.29877972787E+02  0.29877972787E+02  0.00000000000E+00 0. -1.
         25    2    1    2    0    0  0.16142075211E+03  0.65885099269E+02  0.69172176530E+03  0.72424042301E+03  0.12509070392E+03 0.  0.
         23    2    1    2    0    0 -0.16142075211E+03 -0.65885099269E+02  0.70137485215E+03  0.72861214002E+03  0.92474114413E+02 0.  0.
          5    1    3    3  502    0  0.18132193541E+03  0.49132078879E+02  0.61901253391E+03  0.64690462587E+03  0.41800000000E+01 0.  1.
         -5    1    3    3    0  502 -0.19901183302E+02  0.16753020390E+02  0.72709231393E+02  0.77335797137E+02  0.41800000000E+01 0.  1.
        -11    1    4    4    0    0 -0.11027106739E+03  0.41824700674E+01  0.41089314425E+03  0.42545314354E+03  0.00000000000E+00 0.  1.
         11    1    4    4    0    0 -0.51149684725E+02 -0.70067569336E+02  0.29048170791E+03  0.30315899648E+03  0.00000000000E+00 0. -1.
</event>
<event>
 8    1  0.7136454E-009  0.9572992E+02  0.7561462E-02  0.1289541E+00
         -2   -1    0    0    0  501 -0.00000000000E+00  0.00000000000E+00  0.26404789111E+02  0.26404789111E+02  0.00000000000E+00 0.  1.
          2   -1    0    0  501    0  0.00000000000E+00 -0.00000000000E+00 -0.52796475985E+03  0.52796475985E+03  0.00000000000E+00 0. -1.
         25    2    1    2    0    0 -0.31716420026E+02  0.34020753494E+02 -0.30216672616E+03  0.33032622481E+03  0.12508933380E+03 0.  0.
         23    2    1    2    0    0  0.31716420026E+02 -0.34020753494E+02 -0.19939324458E+03  0.22404332416E+03  0.90963740838E+02 0.  0.
          5    1    3    3  502    0 -0.13870175088E+02  0.68672498926E+02 -0.87795457062E+02  0.11240021595E+03  0.41800000000E+01 0.  1.
         -5    1    3    3    0  502 -0.17846244938E+02 -0.34651745432E+02 -0.21437126910E+03  0.21792600886E+03  0.41800000000E+01 0.  1.
        -11    1    4    4    0    0 -0.21305752823E+02 -0.61574158704E+01 -0.13212182482E+03  0.13397024097E+03  0.00000000000E+00 0. -1.
         11    1    4    4    0    0  0.53022172848E+02 -0.27863337624E+02 -0.67271419765E+02  0.90073083184E+02  0.00000000000E+00 0.  1.
</event>
<event>
 8    1  0.7136454E-009  0.2356058E+03  0.7561462E-02  0.1122755E+00
          2   -1    0    0  501    0  0.00000000000E+00  0.00000000000E+00  0.36929806877E+03  0.36929806877E+03  0.00000000000E+00 0. -1.
         -2   -1    0    0    0  501 -0.00000000000E+00 -0.00000000000E+00 -0.21020820976E+03  0.21020820976E+03  0.00000000000E+00 0.  1.
         25    2    1    2    0    0  0.13196526530E+03  0.16869811955E+03  0.22789544440E+03  0.33683483974E+03  0.12508992325E+03 0.  0.
         23    2    1    2    0    0 -0.13196526530E+03 -0.16869811955E+03 -0.68805585386E+02  0.24267143879E+03  0.91001823283E+02 0.  0.
          5    1    3    3  502    0  0.37775486265E+02  0.13802731576E+03  0.16910807380E+03  0.22157062143E+03  0.41800000000E+01 0.  1.
         -5    1    3    3    0  502  0.94189779032E+02  0.30670803790E+02  0.58787370605E+02  0.11526421831E+03  0.41800000000E+01 0.  1.
        -11    1    4    4    0    0 -0.97210286004E+02 -0.58734207764E+02 -0.56016933350E+02  0.12663902909E+03  0.00000000000E+00 0.  1.
         11    1    4    4    0    0 -0.34754979292E+02 -0.10996391178E+03 -0.12788652036E+02  0.11603240970E+03  0.00000000000E+00 0. -1.
</event>
<event>
 8    1  0.7136454E-009  0.1520197E+03  0.7561462E-02  0.1198013E+00
          1   -1    0    0  501    0  0.00000000000E+00  0.00000000000E+00  0.61606961858E+03  0.61606961858E+03  0.00000000000E+00 0. -1.
         -1   -1    0    0    0  501 -0.00000000000E+00 -0.00000000000E+00 -0.43972916555E+02  0.43972916555E+02  0.00000000000E+00 0.  1.
         25    2    1    2    0    0 -0.90059652539E+02  0.85451751081E+02  0.30558315601E+03  0.35276157480E+03  0.12508765181E+03 0.  0.
         23    2    1    2    0    0  0.90059652539E+02 -0.85451751081E+02  0.26651354601E+03  0.30728096033E+03  0.89327350792E+02 0.  0.
          5    1    3    3  502    0 -0.53525727801E+02 -0.81604638391E+01  0.36329479953E+02  0.65336821321E+02  0.41800000000E+01 0.  1.
         -5    1    3    3    0  502 -0.36533924738E+02  0.93612214920E+02  0.26925367606E+03  0.28742475348E+03  0.41800000000E+01 0.  1.
        -11    1    4    4    0    0  0.10227098672E+03 -0.54502824137E+02  0.17486435109E+03  0.20977953629E+03  0.00000000000E+00 0.  1.
         11    1    4    4    0    0 -0.12211334182E+02 -0.30948926945E+02  0.91649194918E+02  0.97501424044E+02  0.00000000000E+00 0. -1.
</event>
<event>
 8    1  0.7136454E-009  0.1905940E+03  0.7561462E-02  0.1157927E+00
          2   -1    0    0  501    0  0.00000000000E+00  0.00000000000E+00  0.12659908777E+04  0.12659908777E+04  0.00000000000E+00 0. -1.
         -2   -1    0    0    0  501 -0.00000000000E+00 -0.00000000000E+00 -0.69335782387E+02  0.69335782387E+02  0.00000000000E+00 0.  1.
         25    2    1    2    0    0  0.96425090993E+02 -0.12694046451E+03  0.10477289004E+03  0.22812033314E+03  0.12509935333E+03 0.  0.
         23    2    1    2    0    0 -0.96425090993E+02  0.12694046451E+03  0.10918822053E+04  0.11072063269E+04  0.91035270798E+02 0.  0.
          5    1    3    3  502    0  0.95083442081E+02 -0.28881803268E+02  0.27488292070E+02  0.10318962215E+03  0.41800000000E+01 0. -1.
         -5    1    3    3    0  502  0.13416489113E+01 -0.98058661240E+02  0.77284597967E+02  0.12493071099E+03  0.41800000000E+01 0. -1.
        -11    1    4    4    0    0 -0.19013054621E+02 -0.13423745211E+02  0.13631909546E+03  0.13829168076E+03  0.00000000000E+00 0. -1.
         11    1    4    4    0    0 -0.77412036371E+02  0.14036420972E+03  0.95556310980E+03  0.96891464617E+03  0.00000000000E+00 0.  1.
</event>
<event>
 8    1  0.7136454E-009  0.1129033E+03  0.7561462E-02  0.1255286E+00
         -1   -1    0    0    0  501 -0.00000000000E+00  0.00000000000E+00  0.37752406665E+02  0.37752406665E+02  0.00000000000E+00 0.  1.
          1   -1    0    0  501    0  0.00000000000E+00 -0.00000000000E+00 -0.52119229927E+03  0.52119229927E+03  0.00000000000E+00 0. -1.
         25    2    1    2    0    0  0.45744403214E+02  0.75764215114E+02 -0.26045721568E+03  0.30219058646E+03  0.12509365543E+03 0.  0.
         23    2    1    2    0    0 -0.45744403214E+02 -0.75764215114E+02 -0.22298267693E+03  0.25675411948E+03  0.91480254373E+02 0.  0.
          5    1    3    3  502    0  0.24588354327E+02  0.90802458731E+02 -0.25930622841E+03  0.27587472913E+03  0.41800000000E+01 0.  1.
         -5    1    3    3    0  502  0.21156048887E+02 -0.15038243617E+02 -0.11509872722E+01  0.26315857335E+02  0.41800000000E+01 0.  1.
        -11    1    4    4    0    0  0.11721652368E+02 -0.28938046762E+02 -0.14821440432E+03  0.15146721538E+03  0.00000000000E+00 0. -1.
         11    1    4    4    0    0 -0.57466055582E+02 -0.46826168352E+02 -0.74768272608E+02  0.10528690410E+03  0.00000000000E+00 0.  1.
</event>
<event>
 8    1  0.7136454E-009  0.7735348E+02  0.7561462E-02  0.1336734E+00
          1   -1    0    0  501    0  0.00000000000E+00  0.00000000000E+00  0.13875885895E+03  0.13875885895E+03  0.00000000000E+00 0. -1.
         -1   -1    0    0    0  501 -0.00000000000E+00 -0.00000000000E+00 -0.11364487191E+03  0.11364487191E+03  0.00000000000E+00 0.  1.
         25    2    1    2    0    0 -0.63693643402E+02  0.39414565076E+02  0.34378521075E+02  0.14980533092E+03  0.12509742728E+03 0.  0.
         23    2    1    2    0    0  0.63693643402E+02 -0.39414565076E+02 -0.92645340395E+01  0.10259839993E+03  0.69499726101E+02 0.  0.
          5    1    3    3  502    0 -0.67406227884E+01  0.10457244773E+02  0.73572000447E+02  0.74733537409E+02  0.41800000000E+01 0. -1.
         -5    1    3    3    0  502 -0.56953020613E+02  0.28957320303E+02 -0.39193479372E+02  0.75071793514E+02  0.41800000000E+01 0. -1.
        -11    1    4    4    0    0  0.47432440959E+02 -0.38800809069E+02 -0.36166807944E+02  0.71157411677E+02  0.00000000000E+00 0.  1.
         11    1    4    4    0    0  0.16261202443E+02 -0.61375600693E+00  0.26902273905E+02  0.31440988257E+02  0.00000000000E+00 0. -1.
</event>
<event>
 8    1  0.7136454E-009  0.2220987E+03  0.7561462E-02  0.1132328E+00
          2   -1    0    0  501    0  0.00000000000E+00  0.00000000000E+00  0.33231600173E+03  0.33231600173E+03  0.00000000000E+00 0. -1.
         -2   -1    0    0    0  501 -0.00000000000E+00 -0.00000000000E+00 -0.16815404222E+03  0.16815404222E+03  0.00000000000E+00 0.  1.
         25    2    1    2    0    0  0.19866951661E+03  0.54962082548E+01  0.14210037782E+02  0.23527161603E+03  0.12510404869E+03 0.  0.
         23    2    1    2    0    0 -0.19866951661E+03 -0.54962082548E+01  0.14995192173E+03  0.26519842792E+03  0.91350107866E+02 0.  0.
          5    1    3    3  502    0  0.20968999710E+03  0.25509705789E+02  0.16567565306E+02  0.21192592242E+03  0.41800000000E+01 0.  1.
         -5    1    3    3    0  502 -0.11020480495E+02 -0.20013497534E+02 -0.23575275237E+01  0.23345693605E+02  0.41800000000E+01 0.  1.
        -11    1    4    4    0    0 -0.15330923200E+03  0.24581508776E+02  0.14159177237E+03  0.21013376976E+03  0.00000000000E+00 0. -1.
         11    1    4    4    0    0 -0.45360284608E+02 -0.30077717031E+02  0.83601493648E+01  0.55064658166E+02  0.00000000000E+00 0.  1.
</event>
<event>
 7    1  0.7136454E-009  0.9298782E+02  0.7561462E-02  0.1295773E+00
          4   -1    0    0  501    0  0.00000000000E+00  0.00000000000E+00  0.16150862507E+03  0.16150862507E+03  0.00000000000E+00 0. -1.
         -4   -1    0    0    0  501 -0.00000000000E+00 -0.00000000000E+00 -0.73864081723E+02  0.73864081723E+02  0.00000000000E+00 0.  1.
         23    2    1    2    0    0  0.29858440465E+00 -0.30586407448E+01  0.35984156780E+02  0.99923699074E+02  0.93168887842E+02 0.  0.
          5    1    1    2  502    0 -0.45843393926E+02  0.93386817007E+01  0.71217027577E+02  0.85312163021E+02  0.41800000000E+01 0. -1.
         -5    1    1    2    0  502  0.45544809521E+02 -0.62800409559E+01 -0.19556641008E+02  0.50136844698E+02  0.41800000000E+01 0. -1.
        -11    1    3    3    0    0 -0.24505589980E+02  0.37795427914E+02  0.21971475330E+02  0.50117502328E+02  0.00000000000E+00 0. -1.
         11    1    3    3    0    0  0.24804174385E+02 -0.40854068659E+02  0.14012681450E+02  0.49806196746E+02  0.00000000000E+00 0.  1.
</event>
<event>
 8    1  0.7136454E-009  0.1633121E+03  0.7561462E-02  0.1185007E+00
          1   -1    0    0  501    0  0.00000000000E+00  0.00000000000E+00  0.36295583358E+03  0.36295583358E+03  0.00000000000E+00 0. -1.
         -1   -1    0    0    0  501 -0.00000000000E+00 -0.00000000000E+00 -0.90483822720E+02  0.90483822720E+02  0.00000000000E+00 0.  1.
         25    2    1    2    0    0  0.12722157463E+03  0.21971091173E+02  0.59400619826E+02  0.18932496129E+03  0.12508976551E+03 0.  0.
         23    2    1    2    0    0 -0.12722157463E+03 -0.21971091173E+02  0.21307139103E+03  0.26411469501E+03  0.87687493648E+02 0.  0.
          5    1    3    3  502    0  0.31211285715E+02  0.66510530574E+02  0.29332646471E+02  0.79219136465E+02  0.41800000000E+01 0.  1.
         -5    1    3    3    0  502  0.96010288915E+02 -0.44539439401E+02  0.30067973355E+02  0.11010582483E+03  0.41800000000E+01 0.  1.
        -11    1    4    4    0    0 -0.76232016212E+02  0.22472109511E+02  0.70194390010E+02  0.10603569395E+03  0.00000000000E+00 0. -1.
         11    1    4    4    0    0 -0.50989558419E+02 -0.44443200684E+02  0.14287700102E+03  0.15807900106E+03  0.00000000000E+00 0.  1.
</event>
<event>
 8    1  0.7136454E-009  0.9183165E+02  0.7561462E-02  0.1298476E+00
          2   -1    0    0  501    0  0.00000000000E+00  0.00000000000E+00  0.31784219367E+03  0.31784219367E+03  0.00000000000E+00 0. -1.
         -2   -1    0    0    0  501 -0.00000000000E+00 -0.00000000000E+00 -0.39901258896E+02  0.39901258896E+02  0.00000000000E+00 0.  1.
         25    2    1    2    0    0  0.13974134338E+02  0.26406164453E+02  0.13906487658E+03  0.18941949712E+03  0.12509254190E+03 0.  0.
         23    2    1    2    0    0 -0.13974134338E+02 -0.26406164453E+02  0.13887605820E+03  0.16832395545E+03  0.90298574105E+02 0.  0.
          5    1    3    3  502    0 -0.19923859284E+02 -0.39282875046E+02  0.90893617311E+02  0.10109018997E+03  0.41800000000E+01 0. -1.
         -5    1    3    3    0  502  0.33897993622E+02  0.65689039498E+02  0.48171259264E+02  0.88329307146E+02  0.41800000000E+01 0. -1.
        -11    1    4    4    0    0  0.21100815311E+02  0.60696019377E+00 -0.14701901318E+01  0.21160677364E+02  0.00000000000E+00 0.  1.
         11    1    4    4    0    0 -0.35074949649E+02 -0.27013124646E+02  0.14034624833E+03  0.14716327809E+03  0.00000000000E+00 0. -1.
</event>
<event>
 8    1  0.7136454E-009  0.1234717E+03  0.7561462E-02  0.1237477E+00
          2   -1    0    0  501    0  0.00000000000E+00  0.00000000000E+00  0.14528148765E+04  0.14528148765E+04  0.00000000000E+00 0. -1.
         -2   -1    0    0    0  501 -0.00000000000E+00 -0.00000000000E+00 -0.16621848332E+02  0.16621848332E+02  0.00000000000E+00 0.  1.
         25    2    1    2    0    0  0.48382470915E+02 -0.54190416257E+02  0.11725514041E+04  0.11814405960E+04  0.12509045511E+03 0.  0.
         23    2    1    2    0    0 -0.48382470915E+02  0.54190416257E+02  0.26364162406E+03  0.28799612880E+03  0.90318323514E+02 0.  0.
          5    1    3    3  502    0  0.79628276556E+02 -0.15512888089E+02  0.94488421485E+03  0.94836963469E+03  0.41800000000E+01 0.  1.
         -5    1    3    3    0  502 -0.31245805641E+02 -0.38677528168E+02  0.22766718923E+03  0.23307096131E+03  0.41800000000E+01 0.  1.
        -11    1    4    4    0    0 -0.66313354214E+02  0.86562566186E+01  0.15797723454E+03  0.17154940500E+03  0.00000000000E+00 0.  1.
         11    1    4    4    0    0  0.17930883299E+02  0.45534159638E+02  0.10566438952E+03  0.11644672380E+03  0.00000000000E+00 0. -1.
</event>
<event>
 8    1  0.7136454E-009  0.9064859E+02  0.7561462E-02  0.1301289E+00
         -2   -1    0    0    0  501 -0.00000000000E+00  0.00000000000E+00  0.53951372187E+02  0.53951372187E+02  0.00000000000E+00 0.  1.
          2   -1    0    0  501    0  0.00000000000E+00 -0.00000000000E+00 -0.25540419450E+03  0.25540419450E+03  0.00000000000E+00 0. -1.
         25    2    1    2    0    0  0.27913946425E+02 -0.58359297480E+01 -0.64542635340E+02  0.14361779194E+03  0.12508825646E+03 0.  0.
         23    2    1    2    0    0 -0.27913946425E+02  0.58359297480E+01 -0.13691018698E+03  0.16573777475E+03  0.88945849824E+02 0.  0.
          5    1    3    3  502    0 -0.18689254902E+02  0.43008748139E+02  0.40886706332E+01  0.47257066062E+02  0.41800000000E+01 0.  1.
         -5    1    3    3    0  502  0.46603201327E+02 -0.48844677887E+02 -0.68631305973E+02  0.96360725876E+02  0.41800000000E+01 0.  1.
        -11    1    4    4    0    0 -0.45276464694E+02 -0.58440133559E+01 -0.25322063132E+02  0.52204574786E+02  0.00000000000E+00 0.  1.
         11    1    4    4    0    0  0.17362518269E+02  0.11679943104E+02 -0.11158812384E+03  0.11353319997E+03  0.00000000000E+00 0. -1.
</event>
<event>
 8    1  0.7136454E-009  0.1062671E+03  0.7561462E-02  0.1267643E+00
          2   -1    0    0  501    0  0.00000000000E+00  0.00000000000E+00  0.29078310430E+02  0.29078310430E+02  0.00000000000E+00 0. -1.
         -2   -1    0    0    0  501 -0.00000000000E+00 -0.00000000000E+00 -0.50231660449E+03  0.50231660449E+03  0.00000000000E+00 0.  1.
         25    2    1    2    0    0 -0.21610487588E+01  0.32948860771E+02 -0.17735655630E+03  0.21953028708E+03  0.12509157176E+03 0.  0.
         23    2    1    2    0    0  0.21610487588E+01 -0.32948860771E+02 -0.29588173775E+03  0.31186462783E+03  0.92861433320E+02 0.  0.
          5    1    3    3  502    0  0.11806443169E+00 -0.40836761490E+02 -0.19989566639E+02  0.45658626815E+02  0.41800000000E+01 0.  1.
         -5    1    3    3    0  502 -0.22791131904E+01  0.73785622261E+02 -0.15736698966E+03  0.17387166027E+03  0.41800000000E+01 0.  1.
        -11    1    4    4    0    0 -0.44532979104E+02 -0.10596061995E+02 -0.16129179956E+03  0.16766188405E+03  0.00000000000E+00 0. -1.
         11    1    4    4    0    0  0.46694027863E+02 -0.22352798776E+02 -0.13458993819E+03  0.14420274378E+03  0.00000000000E+00 0.  1.
</event>
<event>
 8    1  0.7136454E-009  0.1012976E+03  0.7561462E-02  0.1277591E+00
         -2   -1    0    0    0  501 -0.00000000000E+00  0.00000000000E+00  0.15303647537E+02  0.15303647537E+02  0.00000000000E+00 0.  1.
          2   -1    0    0  501    0  0.00000000000E+00 -0.00000000000E+00 -0.79257926114E+03  0.79257926114E+03  0.00000000000E+00 0. -1.
         25    2    1    2    0    0  0.16962911122E+02  0.23690082100E+02 -0.46183048890E+03  0.47935857502E+03  0.12509309580E+03 0.  0.
         23    2    1    2    0    0 -0.16962911122E+02 -0.23690082100E+02 -0.31544512470E+03  0.32852433367E+03  0.87026724449E+02 0.  0.
          5    1    3    3  502    0  0.51136237885E+02  0.57744651244E+02 -0.32986610894E+03  0.33878973096E+03  0.41800000000E+01 0.  1.
         -5    1    3    3    0  502 -0.34173326763E+02 -0.34054569144E+02 -0.13196437996E+03  0.14056884406E+03  0.41800000000E+01 0.  1.
        -11    1    4    4    0    0  0.11062942474E+02  0.21252648042E+02 -0.30947106850E+02  0.39138052677E+02  0.00000000000E+00 0.  1.
         11    1    4    4    0    0 -0.28025853596E+02 -0.44942730141E+02 -0.28449801785E+03  0.28938628099E+03  0.00000000000E+00 0. -1.
</event>
<event>
 8    1  0.7136454E-009  0.6789845E+02  0.7561462E-02  0.1367389E+00
         -2   -1    0    0    0  501 -0.00000000000E+00  0.00000000000E+00  0.50077985180E+03  0.50077985180E+03  0.00000000000E+00 0.  1.
          2   -1    0    0  501    0  0.00000000000E+00 -0.00000000000E+00 -0.25129814280E+02  0.25129814280E+02  0.00000000000E+00 0. -1.
         25    2    1    2    0    0 -0.14014358192E+02  0.13258879841E+02  0.31682043596E+03  0.34116584689E+03  0.12508695500E+03 0.  0.
         23    2    1    2    0    0  0.14014358192E+02 -0.13258879841E+02  0.15882960156E+03  0.18474381919E+03  0.92364691670E+02 0.  0.
          5    1    3    3  502    0  0.24382846089E+02 -0.65871426274E+01  0.28780109171E+03  0.28893745763E+03  0.41800000000E+01 0. -1.
         -5    1    3    3    0  502 -0.38397204280E+02  0.19846022468E+02  0.29019344254E+02  0.52228389265E+02  0.41800000000E+01 0. -1.
        -11    1    4    4    0    0 -0.68684109432E+01 -0.35561531608E+02  0.17639741845E+02  0.40285954023E+02  0.00000000000E+00 0.  1.
         11    1    4    4    0    0  0.20882769135E+02  0.22302651767E+02  0.14118985971E+03  0.14445786517E+03  0.00000000000E+00 0. -1.
</event>
<event>
 8    1  0.7136454E-009  0.1088327E+03  0.7561462E-02  0.1262747E+00
          3   -1    0    0  501    0  0.00000000000E+00  0.00000000000E+00  0.47737282644E+03  0.47737282644E+03  0.00000000000E+00 0. -1.
         -3   -1    0    0    0  501 -0.00000000000E+00 -0.00000000000E+00 -0.39577066972E+02  0.39577066972E+02  0.00000000000E+00 0.  1.
         25    2    1    2    0    0 -0.49715114921E+01  0.40099459601E+02  0.10067552419E+03  0.16557665434E+03  0.12508950677E+03 0.  0.
         23    2    1    2    0    0  0.49715114921E+01 -0.40099459601E+02  0.33712023528E+03  0.35137323907E+03  0.90445660570E+02 0.  0.
          5    1    3    3  502    0  0.58610646349E+01 -0.41531980275E+02  0.60813736874E+02  0.73993516316E+02  0.41800000000E+01 0.  1.
         -5    1    3    3    0  502 -0.10832576127E+02  0.81631439877E+02  0.39861787316E+02  0.91583138022E+02  0.41800000000E+01 0.  1.
        -11    1    4    4    0    0 -0.11566745049E+02  0.24117983859E+02  0.50112110432E+02  0.56803964196E+02  0.00000000000E+00 0.  1.
         11    1    4    4    0    0  0.16538256541E+02 -0.64217443460E+02  0.28700812484E+03  0.29456927487E+03  0.00000000000E+00 0. -1.
</event>
<event>
 8    1  0.7136454E-009  0.7854160E+02  0.7561462E-02  0.1333242E+00
         -2   -1    0    0    0  501 -0.00000000000E+00  0.00000000000E+00  0.10881833111E+03  0.10881833111E+03  0.00000000000E+00 0. -1.
          2   -1    0    0  501    0  0.00000000000E+00 -0.00000000000E+00 -0.11347511258E+03  0.11347511258E+03  0.00000000000E+00 0.  1.
         25    2    1    2    0    0  0.28056788003E+01 -0.19471690445E+02 -0.14468164908E+02  0.12745124494E+03  0.12508986161E+03 0.  0.
         23    2    1    2    0    0 -0.28056788003E+01  0.19471690445E+02  0.98113834409E+01  0.94842198745E+02  0.92259204719E+02 0.  0.
          5    1    3    3  502    0 -0.20197665262E+02 -0.50449243335E+02  0.34851172280E+02  0.64692723272E+02  0.41800000000E+01 0.  1.
         -5    1    3    3    0  502  0.23003344063E+02  0.30977552890E+02 -0.49319337188E+02  0.62758521667E+02  0.41800000000E+01 0.  1.
        -11    1    4    4    0    0  0.17075780079E+02  0.34735132713E+02 -0.29191769679E+02  0.48479594954E+02  0.00000000000E+00 0.  1.
         11    1    4    4    0    0 -0.19881458880E+02 -0.15263442268E+02  0.39003153120E+02  0.46362603791E+02  0.00000000000E+00 0. -1.
</event>
<event>
 8    1  0.7136454E-009  0.1440448E+03  0.7561462E-02  0.1207988E+00
         -1   -1    0    0    0  501 -0.00000000000E+00  0.00000000000E+00  0.10341208790E+04  0.10341208790E+04  0.00000000000E+00 0.  1.
          1   -1    0    0  501    0  0.00000000000E+00 -0.00000000000E+00 -0.28206418679E+02  0.28206418679E+02  0.00000000000E+00 0. -1.
         25    2    1    2    0    0  0.23177696510E+02 -0.12799801075E+03  0.48101191269E+03  0.51375140654E+03  0.12508937287E+03 0.  0.
         23    2    1    2    0    0 -0.23177696510E+02  0.12799801075E+03  0.52490254764E+03  0.54857589115E+03  0.92152739819E+02 0.  0.
          5    1    3    3  502    0 -0.48969288364E+00 -0.71648698675E+02  0.42411300500E+03  0.43014310320E+03  0.41800000000E+01 0.  1.
         -5    1    3    3    0  502  0.23667389393E+02 -0.56349312070E+02  0.56898907689E+02  0.83608303341E+02  0.41800000000E+01 0.  1.
        -11    1    4    4    0    0 -0.43399917484E+02  0.24985681100E+02  0.11474234767E+03  0.12519442258E+03  0.00000000000E+00 0.  1.
         11    1    4    4    0    0  0.20222220974E+02  0.10301232964E+03  0.41016019998E+03  0.42338146856E+03  0.00000000000E+00 0. -1.
</event>
<event>
 8    1  0.7136454E-009  0.1049130E+03  0.7561462E-02  0.1270291E+00
          1   -1    0    0  501    0  0.00000000000E+00  0.00000000000E+00  0.15930412722E+03  0.15930412722E+03  0.00000000000E+00 0. -1.
         -1   -1    0    0    0  501 -0.00000000000E+00 -0.00000000000E+00 -0.92578884562E+02  0.92578884562E+02  0.00000000000E+00 0.  1.
         25    2    1    2    0    0  0.26566839038E+02 -0.49363818114E+02  0.44936427764E+02  0.14425562663E+03  0.12509124589E+03 0.  0.
         23    2    1    2    0    0 -0.26566839038E+02  0.49363818114E+02  0.21788814892E+02  0.10762738515E+03  0.89254232980E+02 0.  0.
          5    1    3    3  502    0 -0.35536137469E+02  0.65446450378E+01  0.48367921290E+02  0.60519233759E+02  0.41800000000E+01 0. -1.
         -5    1    3    3    0  502  0.62102976507E+02 -0.55908463152E+02 -0.34314935260E+01  0.83736392870E+02  0.41800000000E+01 0. -1.
        -11    1    4    4    0    0 -0.46212181095E+02  0.12274804846E+02  0.39551391257E+02  0.62052792571E+02  0.00000000000E+00 0. -1.
         11    1    4    4    0    0  0.19645342057E+02  0.37089013268E+02 -0.17762576365E+02  0.45574592580E+02  0.00000000000E+00 0.  1.
</event>
<event>
 8    1  0.7136454E-009  0.1173970E+03  0.7561462E-02  0.1247454E+00
         -1   -1    0    0    0  501 -0.00000000000E+00  0.00000000000E+00  0.15757296735E+03  0.15757296735E+03  0.00000000000E+00 0.  1.
          1   -1    0    0  501    0  0.00000000000E+00 -0.00000000000E+00 -0.12110088954E+03  0.12110088954E+03  0.00000000000E+00 0. -1.
         25    2    1    2    0    0  0.62241284267E+02 -0.44889543182E+02  0.58261559575E+02  0.15789639905E+03  0.12509122653E+03 0.  0.
         23    2    1    2    0    0 -0.62241284267E+02  0.44889543182E+02 -0.21789481757E+02  0.12077745784E+03  0.90682767123E+02 0.  0.
          5    1    3    3  502    0  0.94457687829E+02 -0.49915069103E+02  0.63880143152E+02  0.12454683458E+03  0.41800000000E+01 0. -1.
         -5    1    3    3    0  502 -0.32216403562E+02  0.50255259210E+01 -0.56185835771E+01  0.33349564475E+02  0.41800000000E+01 0. -1.
        -11    1    4    4    0    0 -0.51744076820E+02  0.58315011620E+02 -0.46487822858E+02  0.90770081747E+02  0.00000000000E+00 0. -1.
         11    1    4    4    0    0 -0.10497207447E+02 -0.13425468438E+02  0.24698341101E+02  0.30007376095E+02  0.00000000000E+00 0.  1.
</event>
<event>
 8    1  0.7136454E-009  0.1039480E+03  0.7561462E-02  0.1272206E+00
         -1   -1    0    0    0  501 -0.00000000000E+00  0.00000000000E+00  0.78048545351E+02  0.78048545351E+02  0.00000000000E+00 0.  1.
          1   -1    0    0  501    0  0.00000000000E+00 -0.00000000000E+00 -0.30132742425E+03  0.30132742425E+03  0.00000000000E+00 0. -1.
         25    2    1    2    0    0 -0.64457048755E+02  0.71793371792E+02 -0.58679393941E+02  0.16851670440E+03  0.12508240892E+03 0.  0.
         23    2    1    2    0    0  0.64457048755E+02 -0.71793371792E+02 -0.16459948496E+03  0.21085926520E+03  0.89775497241E+02 0.  0.
          5    1    3    3  502    0  0.80779257209E+01  0.33391563942E+01 -0.67604057083E+02  0.68294829844E+02  0.41800000000E+01 0.  1.
         -5    1    3    3    0  502 -0.72534974476E+02  0.68454215398E+02  0.89246631414E+01  0.10022187456E+03  0.41800000000E+01 0.  1.
        -11    1    4    4    0    0  0.19907422765E+02 -0.10202382777E+02 -0.12136681457E+03  0.12341109259E+03  0.00000000000E+00 0. -1.
         11    1    4    4    0    0  0.44549625990E+02 -0.61590989015E+02 -0.43232670387E+02  0.87448172608E+02  0.00000000000E+00 0.  1.
</event>
<event>
 8    1  0.7136454E-009  0.1580881E+03  0.7561462E-02  0.1190872E+00
          3   -1    0    0  501    0  0.00000000000E+00  0.00000000000E+00  0.23681035870E+03  0.23681035870E+03  0.00000000000E+00 0. -1.
         -3   -1    0    0    0  501 -0.00000000000E+00 -0.00000000000E+00 -0.16743061185E+03  0.16743061185E+03  0.00000000000E+00 0.  1.
         25    2    1    2    0    0  0.77914752240E+02  0.11040487090E+03  0.13548222031E+03  0.22860850865E+03  0.12508586680E+03 0.  0.
         23    2    1    2    0    0 -0.77914752240E+02 -0.11040487090E+03 -0.66102473465E+02  0.17563246190E+03  0.90649216989E+02 0.  0.
          5    1    3    3  502    0  0.88911438127E+02  0.55752968174E+02  0.30002816708E+02  0.10923039275E+03  0.41800000000E+01 0.  1.
         -5    1    3    3    0  502 -0.10996685887E+02  0.54651902721E+02  0.10547940360E+03  0.11937811590E+03  0.41800000000E+01 0.  1.
        -11    1    4    4    0    0  0.91152193657E+01 -0.46206100646E+02 -0.45609006036E+02  0.65561211037E+02  0.00000000000E+00 0. -1.
         11    1    4    4    0    0 -0.87029971606E+02 -0.64198770249E+02 -0.20493467429E+02  0.11007125086E+03  0.00000000000E+00 0.  1.
</event>
<event>
 8    1  0.7136454E-009  0.1288839E+03  0.7561462E-02  0.1229121E+00
          1   -1    0    0  501    0  0.00000000000E+00  0.00000000000E+00  0.12136405875E+03  0.12136405875E+03  0.00000000000E+00 0. -1.
         -1   -1    0    0    0  501 -0.00000000000E+00 -0.00000000000E+00 -0.20536285312E+03  0.20536285312E+03  0.00000000000E+00 0.  1.
         25    2    1    2    0    0 -0.91935774884E+02  0.55302389151E+02 -0.87044622458E+02  0.18637192859E+03  0.12508872258E+03 0.  0.
         23    2    1    2    0    0  0.91935774884E+02 -0.55302389151E+02  0.30458280830E+01  0.14035498328E+03  0.90441712247E+02 0.  0.
          5    1    3    3  502    0 -0.60204943531E+02 -0.23927472136E+02 -0.74398821582E+00  0.64924456616E+02  0.41800000000E+01 0. -1.
         -5    1    3    3    0  502 -0.31730831352E+02  0.79229861287E+02 -0.86300634242E+02  0.12144747197E+03  0.41800000000E+01 0. -1.
        -11    1    4    4    0    0  0.29442817091E+02 -0.15086699700E+02 -0.41991618471E+02  0.53458245462E+02  0.00000000000E+00 0.  1.
         11    1    4    4    0    0  0.62492957793E+02 -0.40215689451E+02  0.45037446554E+02  0.86896737820E+02  0.00000000000E+00 0. -1.
</event>
<event>
 8    1  0.7136454E-009  0.1133617E+03  0.7561462E-02  0.1254468E+00
          2   -1    0    0  501    0  0.00000000000E+00  0.00000000000E+00  0.15244415378E+04  0.15244415378E+04  0.00000000000E+00 0. -1.
         -2   -1    0    0    0  501 -0.00000000000E+00 -0.00000000000E+00 -0.12174979423E+02  0.12174979423E+02  0.00000000000E+00 0.  1.
         25    2    1    2    0    0  0.53402740381E+02 -0.48313137022E+01  0.11830701541E+04  0.11908731205E+04  0.12509438596E+03 0.  0.
         23    2    1    2    0    0 -0.53402740381E+02  0.48313137022E+01  0.32919640431E+03  0.34574339673E+03  0.91066072164E+02 0.  0.
          5    1    3    3  502    0 -0.12641451696E+02  0.43799896948E+02  0.63924609241E+03  0.64088320023E+03  0.41800000000E+01 0. -1.
         -5    1    3    3    0  502  0.66044192077E+02 -0.48631210650E+02  0.54382406166E+03  0.54998992027E+03  0.41800000000E+01 0. -1.
        -11    1    4    4    0    0 -0.22025982446E+02  0.43658697681E+02  0.10185003598E+03  0.11298077543E+03  0.00000000000E+00 0.  1.
         11    1    4    4    0    0 -0.31376757935E+02 -0.38827383979E+02  0.22734636832E+03  0.23276262130E+03  0.00000000000E+00 0. -1.
</event>
<event>
 8    1  0.7136454E-009  0.1304044E+03  0.7561462E-02  0.1226857E+00
         -2   -1    0    0    0  501 -0.00000000000E+00  0.00000000000E+00  0.25741802346E+02  0.25741802346E+02  0.00000000000E+00 0. -1.
          2   -1    0    0  501    0  0.00000000000E+00 -0.00000000000E+00 -0.83391584807E+03  0.83391584807E+03  0.00000000000E+00 0.  1.
         25    2    1    2    0    0 -0.36420847831E+02 -0.89833074740E+02 -0.38563032763E+03  0.41683719799E+03  0.12508413396E+03 0.  0.
         23    2    1    2    0    0  0.36420847831E+02  0.89833074740E+02 -0.42254371810E+03  0.44282045243E+03  0.90279011452E+02 0.  0.
          5    1    3    3  502    0 -0.70667866154E+02 -0.64750746509E+02 -0.34439950794E+03  0.35751237734E+03  0.41800000000E+01 0.  1.
         -5    1    3    3    0  502  0.34247018323E+02 -0.25082328231E+02 -0.41230819687E+02  0.59324820653E+02  0.41800000000E+01 0.  1.
        -11    1    4    4    0    0 -0.22478909179E+02  0.35881052934E+02 -0.23793262622E+03  0.24167061455E+03  0.00000000000E+00 0.  1.
         11    1    4    4    0    0  0.58899757010E+02  0.53952021806E+02 -0.18461109188E+03  0.20114983788E+03  0.00000000000E+00 0. -1.
</event>
<event>
 8    1  0.7136454E-009  0.9591548E+02  0.7561462E-02  0.1289127E+00
          2   -1    0    0  501    0  0.00000000000E+00  0.00000000000E+00  0.10473986123E+04  0.10473986123E+04  0.00000000000E+00 0. -1.
         -2   -1    0    0    0  501 -0.00000000000E+00 -0.00000000000E+00 -0.13362381347E+02  0.13362381347E+02  0.00000000000E+00 0.  1.
         25    2    1    2    0    0 -0.11164501758E+01 -0.17147816466E+02  0.82667735483E+03  0.83626533468E+03  0.12509583103E+03 0.  0.
         23    2    1    2    0    0  0.11164501758E+01  0.17147816466E+02  0.20735887615E+03  0.22449565898E+03  0.84292961243E+02 0.  0.
          5    1    3    3  502    0  0.49501058399E+02  0.29089568818E+02  0.38416326756E+03  0.38845263076E+03  0.41800000000E+01 0. -1.
         -5    1    3    3    0  502 -0.50617508575E+02 -0.46237385285E+02  0.44251408726E+03  0.44781270393E+03  0.41800000000E+01 0. -1.
        -11    1    4    4    0    0  0.30954050116E+02  0.17852715583E+02  0.18156589507E+03  0.18504876905E+03  0.00000000000E+00 0. -1.
         11    1    4    4    0    0 -0.29837599941E+02 -0.70489911629E+00  0.25792981073E+02  0.39446889936E+02  0.00000000000E+00 0.  1.
</event>
<event>
 8    1  0.7136454E-009  0.5722893E+02  0.7561462E-02  0.1409843E+00
         -1   -1    0    0    0  501 -0.00000000000E+00  0.00000000000E+00  0.14386637979E+03  0.14386637979E+03  0.00000000000E+00 0.  1.
          1   -1    0    0  501    0  0.00000000000E+00 -0.00000000000E+00 -0.86463964495E+02  0.86463964495E+02  0.00000000000E+00 0. -1.
         25    2    1    2    0    0 -0.65719904951E+01  0.19882632056E+02  0.54342217595E+02  0.13799190563E+03  0.12510067662E+03 0.  0.
         23    2    1    2    0    0  0.65719904951E+01 -0.19882632056E+02  0.30601977005E+01  0.92338438652E+02  0.89880544759E+02 0.  0.
          5    1    3    3  502    0 -0.17477552160E+02  0.20726306979E+02 -0.36912113974E+02  0.45989359514E+02  0.41800000000E+01 0. -1.
         -5    1    3    3    0  502  0.10905561665E+02 -0.84367492257E+00  0.91254331569E+02  0.92002546121E+02  0.41800000000E+01 0. -1.
        -11    1    4    4    0    0 -0.21124730835E+02  0.18434426702E+02  0.27364919023E+02  0.39178069552E+02  0.00000000000E+00 0.  1.
         11    1    4    4    0    0  0.27696721330E+02 -0.38317058758E+02 -0.24304721323E+02  0.53160369100E+02  0.00000000000E+00 0. -1.
</event>
<event>
 8    1  0.7136454E-009  0.1220027E+03  0.7561462E-02  0.1239829E+00
          2   -1    0    0  501    0  0.00000000000E+00  0.00000000000E+00  0.14492800407E+03  0.14492800407E+03  0.00000000000E+00 0. -1.
         -2   -1    0    0    0  501 -0.00000000000E+00 -0.00000000000E+00 -0.12243716296E+03  0.12243716296E+03  0.00000000000E+00 0.  1.
         25    2    1    2    0    0 -0.20995285069E+01  0.62462115797E+02  0.58158060084E+02  0.15144285562E+03  0.12508658855E+03 0.  0.
         23    2    1    2    0    0  0.20995285069E+01 -0.62462115797E+02 -0.35667218971E+02  0.11592231141E+03  0.90884035143E+02 0.  0.
          5    1    3    3  502    0 -0.39651276182E+02  0.83663886997E+02  0.22601654233E+02  0.95394847158E+02  0.41800000000E+01 0.  1.
         -5    1    3    3    0  502  0.37551747675E+02 -0.21201771200E+02  0.35556405851E+02  0.56048008462E+02  0.41800000000E+01 0.  1.
        -11    1    4    4    0    0  0.45083224267E+02 -0.33584840907E+02 -0.67756998342E+01  0.56624630306E+02  0.00000000000E+00 0. -1.
         11    1    4    4    0    0 -0.42983695760E+02 -0.28877274890E+02 -0.28891519137E+02  0.59297681104E+02  0.00000000000E+00 0.  1.
</event>
<event>
 8    1  0.7136454E-009  0.1077879E+03  0.7561462E-02  0.1264722E+00
         -1   -1    0    0    0  501 -0.00000000000E+00  0.00000000000E+00  0.23003400767E+02  0.23003400767E+02  0.00000000000E+00 0.  1.
          1   -1    0    0  501    0  0.00000000000E+00 -0.00000000000E+00 -0.64919183454E+03  0.64919183454E+03  0.00000000000E+00 0. -1.
         25    2    1    2    0    0 -0.19019889612E+02  0.11677461874E+01 -0.20481731967E+03  0.24075074706E+03  0.12509063891E+03 0.  0.
         23    2    1    2    0    0  0.19019889612E+02 -0.11677461874E+01 -0.42137111410E+03  0.43144448825E+03  0.90706178435E+02 0.  0.
          5    1    3    3  502    0  0.51960139575E+02 -0.13688223399E+02 -0.87398117490E+02  0.10267972977E+03  0.41800000000E+01 0.  1.
         -5    1    3    3    0  502 -0.70980029187E+02  0.14855969586E+02 -0.11741920218E+03  0.13807101729E+03  0.41800000000E+01 0.  1.
        -11    1    4    4    0    0 -0.13347304650E+02  0.36802806674E+02 -0.12773109392E+03  0.13359576892E+03  0.00000000000E+00 0.  1.
         11    1    4    4    0    0  0.32367194262E+02 -0.37970552862E+02 -0.29364002018E+03  0.29784871932E+03  0.00000000000E+00 0. -1.
</event>
<event>
 8    1  0.7136454E-009  0.1236541E+03  0.7561462E-02  0.1237188E+00
          2   -1    0    0  501    0  0.00000000000E+00  0.00000000000E+00  0.48260723469E+03  0.48260723469E+03  0.00000000000E+00 0. -1.
         -2   -1    0    0    0  501 -0.00000000000E+00 -0.00000000000E+00 -0.36149950911E+02  0.36149950911E+02  0.00000000000E+00 0.  1.
         25    2    1    2    0    0  0.21136195456E+02  0.72415568221E+02  0.25548680991E+03  0.29429914503E+03  0.12509086077E+03 0.  0.
         23    2    1    2    0    0 -0.21136195456E+02 -0.72415568221E+02  0.19097047386E+03  0.22445804056E+03  0.90669381864E+02 0.  0.
          5    1    3    3  502    0  0.68997385096E+02  0.58570694934E+02  0.12357651649E+03  0.15323117595E+03  0.41800000000E+01 0. -1.
         -5    1    3    3    0  502 -0.47861189641E+02  0.13844873287E+02  0.13191029342E+03  0.14106796908E+03  0.41800000000E+01 0. -1.
        -11    1    4    4    0    0  0.68994614307E+01 -0.77846334008E+02  0.17518997544E+03  0.19183112829E+03  0.00000000000E+00 0. -1.
         11    1    4    4    0    0 -0.28035656886E+02  0.54307657865E+01  0.15780498423E+02  0.32626912274E+02  0.00000000000E+00 0.  1.
</event>
<event>
 8    1  0.7136454E-009  0.9279847E+02  0.7561462E-02  0.1296213E+00
         -3   -1    0    0    0  501 -0.00000000000E+00  0.00000000000E+00  0.69655376815E+03  0.69655376815E+03  0.00000000000E+00 0.  1.
          3   -1    0    0  501    0  0.00000000000E+00 -0.00000000000E+00 -0.20382857297E+02  0.20382857297E+02  0.00000000000E+00 0. -1.
         25    2    1    2    0    0 -0.57951798949E+01 -0.92266205129E+01  0.52583539544E+03  0.54061807665E+03  0.12508527919E+03 0.  0.
         23    2    1    2    0    0  0.57951798949E+01  0.92266205129E+01  0.15033551542E+03  0.17631854880E+03  0.91480865861E+02 0.  0.
          5    1    3    3  502    0 -0.51124108312E+02  0.33993598493E+02  0.22228470454E+03  0.23064518521E+03  0.41800000000E+01 0.  1.
         -5    1    3    3    0  502  0.45328928417E+02 -0.43220219006E+02  0.30355069089E+03  0.30997289143E+03  0.41800000000E+01 0.  1.
        -11    1    4    4    0    0  0.33145035885E+02  0.67750472015E+01  0.12963724290E+02  0.36229170786E+02  0.00000000000E+00 0. -1.
         11    1    4    4    0    0 -0.27349855990E+02  0.24515733114E+01  0.13737179113E+03  0.14008937801E+03  0.00000000000E+00 0.  1.
</event>
<event>
 8    1  0.7136454E-009  0.1126228E+03  0.7561462E-02  0.1255789E+00
         -1   -1    0    0    0  501 -0.00000000000E+00  0.00000000000E+00  0.66000932851E+02  0.66000932851E+02  0.00000000000E+00 0.  1.
          1   -1    0    0  501    0  0.00000000000E+00 -0.00000000000E+00 -0.52930169917E+03  0.52930169917E+03  0.00000000000E+00 0. -1.
         25    2    1    2    0    0 -0.97966656468E+02 -0.17180076869E+02 -0.42589660110E+03  0.45489306957E+03  0.12508864494E+03 0.  0.
         23    2    1    2    0    0  0.97966656468E+02  0.17180076869E+02 -0.37404165216E+02  0.14040956245E+03  0.91777736029E+02 0.  0.
          5    1    3    3  502    0 -0.58060545069E+02 -0.13530282482E+02 -0.40522736635E+03  0.40961052998E+03  0.41800000000E+01 0. -1.
         -5    1    3    3    0  502 -0.39906111399E+02 -0.36497943872E+01 -0.20669234755E+02  0.45282539587E+02  0.41800000000E+01 0. -1.
        -11    1    4    4    0    0  0.79116589442E+02  0.45429334016E+02 -0.18622410542E+01  0.91250901672E+02  0.00000000000E+00 0.  1.
         11    1    4    4    0    0  0.18850067026E+02 -0.28249257147E+02 -0.35541924162E+02  0.49158660777E+02  0.00000000000E+00 0. -1.
</event>
<event>
 8    1  0.7136454E-009  0.2062605E+03  0.7561462E-02  0.1144562E+00
         -2   -1    0    0    0  501 -0.00000000000E+00  0.00000000000E+00  0.12601351529E+03  0.12601351529E+03  0.00000000000E+00 0. -1.
          2   -1    0    0  501    0  0.00000000000E+00 -0.00000000000E+00 -0.37878917926E+03  0.37878917926E+03  0.00000000000E+00 0.  1.
         25    2    1    2    0    0 -0.15100527641E+03  0.91449239990E+02 -0.20355991572E+03  0.29706891841E+03  0.12509095091E+03 0.  0.
         23    2    1    2    0    0  0.15100527641E+03 -0.91449239990E+02 -0.49215748243E+02  0.20773377614E+03  0.97803756955E+02 0.  0.
          5    1    3    3  502    0 -0.90304464798E+02  0.11827421336E+03 -0.15355292614E+03  0.21386832266E+03  0.41800000000E+01 0.  1.
         -5    1    3    3    0  502 -0.60700811615E+02 -0.26824973373E+02 -0.50006989576E+02  0.83200595753E+02  0.41800000000E+01 0.  1.
        -11    1    4    4    0    0  0.38809378427E+02  0.15843471028E+02 -0.29472668618E+02  0.51242771427E+02  0.00000000000E+00 0.  1.
         11    1    4    4    0    0  0.11219589799E+03 -0.10729271102E+03 -0.19743079625E+02  0.15649100471E+03  0.00000000000E+00 0. -1.
</event>
<event>
 8    1  0.7136454E-009  0.1227097E+03  0.7561462E-02  0.1238693E+00
         -1   -1    0    0    0  501 -0.00000000000E+00  0.00000000000E+00  0.50214052526E+03  0.50214052526E+03  0.00000000000E+00 0.  1.
          1   -1    0    0  501    0  0.00000000000E+00 -0.00000000000E+00 -0.37836295945E+02  0.37836295945E+02  0.00000000000E+00 0. -1.
         25    2    1    2    0    0 -0.43066531063E+02  0.54636159242E+02  0.17812236333E+03  0.22850645988E+03  0.12509112636E+03 0.  0.
         23    2    1    2    0    0  0.43066531063E+02 -0.54636159242E+02  0.28618186599E+03  0.31147036133E+03  0.10136019718E+03 0.  0.
          5    1    3    3  502    0  0.11152969606E+02  0.69036190030E+02  0.43146218906E+02  0.82276684855E+02  0.41800000000E+01 0. -1.
         -5    1    3    3    0  502 -0.54219500669E+02 -0.14400030788E+02  0.13497614442E+03  0.14622977502E+03  0.41800000000E+01 0. -1.
        -11    1    4    4    0    0 -0.10971640596E+02 -0.63419236107E+02  0.11548401204E+03  0.13220791747E+03  0.00000000000E+00 0.  1.
         11    1    4    4    0    0  0.54038171659E+02  0.87830768644E+01  0.17069785395E+03  0.17926244386E+03  0.00000000000E+00 0. -1.
</event>
<event>
 8    1  0.7136454E-009  0.1105999E+03  0.7561462E-02  0.1259463E+00
          2   -1    0    0  501    0  0.00000000000E+00  0.00000000000E+00  0.59559109543E+03  0.59559109543E+03  0.00000000000E+00 0. -1.
         -2   -1    0    0    0  501 -0.00000000000E+00 -0.00000000000E+00 -0.30146695215E+02  0.30146695215E+02  0.00000000000E+00 0.  1.
         25    2    1    2    0    0  0.62715405134E+02  0.33920589134E+02  0.38690293526E+03  0.41282610015E+03  0.12509068407E+03 0.  0.
         23    2    1    2    0    0 -0.62715405134E+02 -0.33920589134E+02  0.17854146496E+03  0.21291169050E+03  0.91490463080E+02 0.  0.
          5    1    3    3  502    0  0.83216382995E+02  0.65414432024E+02  0.27427217554E+03  0.29401821881E+03  0.41800000000E+01 0. -1.
         -5    1    3    3    0  502 -0.20500977861E+02 -0.31493842889E+02  0.11263075972E+03  0.11880788134E+03  0.41800000000E+01 0. -1.
        -11    1    4    4    0    0 -0.50219155092E+02 -0.11087041619E+02  0.17964248756E+03  0.18685906284E+03  0.00000000000E+00 0. -1.
         11    1    4    4    0    0 -0.12496250042E+02 -0.22833547515E+02 -0.11010225997E+01  0.26052627660E+02  0.00000000000E+00 0.  1.
</event>
<event>
 7    1  0.7136454E-009  0.1230772E+03  0.7561462E-02  0.1238105E+00
         -1   -1    0    0    0  501 -0.00000000000E+00  0.00000000000E+00  0.35119149917E+02  0.35119149917E+02  0.00000000000E+00 0.  1.
          1   -1    0    0  501    0  0.00000000000E+00 -0.00000000000E+00 -0.60341174151E+03  0.60341174151E+03  0.00000000000E+00 0. -1.
         25    2    1    2    0    0 -0.31895209099E+02  0.43053471393E+01 -0.26036562747E+03  0.29063859024E+03  0.12507873437E+03 0.  0.
          5    1    3    3  502    0 -0.56086366911E+02 -0.23830898958E+02 -0.55929109913E+02  0.82819864973E+02  0.41800000000E+01 0.  1.
         -5    1    3    3    0  502  0.24191157812E+02  0.28136246097E+02 -0.20443651756E+03  0.20781872527E+03  0.41800000000E+01 0.  1.
        -11    1    1    2    0    0  0.61027657514E+02  0.54682058952E+02 -0.23877876440E+03  0.25244762007E+03  0.00000000000E+00 0. -1.
         11    1    1    2    0    0 -0.29132448416E+02 -0.58987406091E+02 -0.69148199724E+02  0.95444681115E+02  0.00000000000E+00 0.  1.
</event>
<event>
 8    1  0.7136454E-009  0.1438954E+03  0.7561462E-02  0.1208181E+00
         -2   -1    0    0    0  501 -0.00000000000E+00  0.00000000000E+00  0.43209313134E+03  0.43209313134E+03  0.00000000000E+00 0.  1.
          2   -1    0    0  501    0  0.00000000000E+00 -0.00000000000E+00 -0.53262223509E+02  0.53262223509E+02  0.00000000000E+00 0. -1.
         25    2    1    2    0    0 -0.79000152361E+02 -0.60487082760E+02  0.14981255803E+03  0.21906858660E+03  0.12509009488E+03 0.  0.
         23    2    1    2    0    0  0.79000152361E+02  0.60487082760E+02  0.22901834981E+03  0.26628676826E+03  0.92517712600E+02 0.  0.
          5    1    3    3  502    0 -0.87759316469E+02 -0.89164096606E+02  0.13866044332E+03  0.18680504461E+03  0.41800000000E+01 0. -1.
         -5    1    3    3    0  502  0.87591641085E+01  0.28677013846E+02  0.11152114703E+02  0.32263541984E+02  0.41800000000E+01 0. -1.
        -11    1    4    4    0    0 -0.11667542367E+02 -0.11640075709E+02  0.53477714796E+02  0.55959707712E+02  0.00000000000E+00 0.  1.
         11    1    4    4    0    0  0.90667694728E+02  0.72127158468E+02  0.17554063501E+03  0.21032706054E+03  0.00000000000E+00 0. -1.
</event>
<event>
 8    1  0.7136454E-009  0.1105741E+03  0.7561462E-02  0.1259510E+00
         -2   -1    0    0    0  501 -0.00000000000E+00  0.00000000000E+00  0.52860006478E+03  0.52860006478E+03  0.00000000000E+00 0. -1.
          2   -1    0    0  501    0  0.00000000000E+00 -0.00000000000E+00 -0.33130645337E+02  0.33130645337E+02  0.00000000000E+00 0.  1.
         25    2    1    2    0    0 -0.40437561544E+02 -0.60149565393E+02  0.25014777554E+03  0.28892156826E+03  0.12509434997E+03 0.  0.
         23    2    1    2    0    0  0.40437561544E+02  0.60149565393E+02  0.24532164390E+03  0.27280914186E+03  0.94810085515E+02 0.  0.
          5    1    3    3  502    0 -0.19941532640E+01  0.25355555719E+02  0.47720301942E+01  0.26213079278E+02  0.41800000000E+01 0. -1.
         -5    1    3    3    0  502 -0.38443408280E+02 -0.85505121112E+02  0.24537574535E+03  0.26270848898E+03  0.41800000000E+01 0. -1.
        -11    1    4    4    0    0 -0.92961320773E+01 -0.11201592441E+02  0.23563626594E+01  0.14746056754E+02  0.00000000000E+00 0.  1.
         11    1    4    4    0    0  0.49733693622E+02  0.71351157834E+02  0.24296528124E+03  0.25806308511E+03  0.00000000000E+00 0. -1.
</event>
<event>
 8    1  0.7136454E-009  0.1584548E+03  0.7561462E-02  0.1190452E+00
          1   -1    0    0  501    0  0.00000000000E+00  0.00000000000E+00  0.25878594062E+02  0.25878594062E+02  0.00000000000E+00 0. -1.
         -1   -1    0    0    0  501 -0.00000000000E+00 -0.00000000000E+00 -0.12812181808E+04  0.12812181808E+04  0.00000000000E+00 0.  1.
         25    2    1    2    0    0  0.33151119330E+02 -0.13118755172E+03 -0.86565930863E+03  0.88505622570E+03  0.12509721653E+03 0.  0.
         23    2    1    2    0    0 -0.33151119330E+02  0.13118755172E+03 -0.38968027814E+03  0.42204054920E+03  0.89209503742E+02 0.  0.
          5    1    3    3  502    0  0.63971431089E+02 -0.22083811338E+02 -0.25003857605E+03  0.25906910397E+03  0.41800000000E+01 0. -1.
         -5    1    3    3    0  502 -0.30820311759E+02 -0.10910374038E+03 -0.61562073258E+03  0.62598712173E+03  0.41800000000E+01 0. -1.
        -11    1    4    4    0    0 -0.19401534790E+02  0.57225881007E+02 -0.29493381593E+03  0.30106008833E+03  0.00000000000E+00 0.  1.
         11    1    4    4    0    0 -0.13749584540E+02  0.73961670713E+02 -0.94746462212E+02  0.12098046087E+03  0.00000000000E+00 0. -1.
</event>
<event>
 8    1  0.7136454E-009  0.1076948E+03  0.7561462E-02  0.1264899E+00
         -2   -1    0    0    0  501 -0.00000000000E+00  0.00000000000E+00  0.32480512973E+02  0.32480512973E+02  0.00000000000E+00 0.  1.
          2   -1    0    0  501    0  0.00000000000E+00 -0.00000000000E+00 -0.70666117081E+03  0.70666117081E+03  0.00000000000E+00 0. -1.
         25    2    1    2    0    0  0.92805648442E+02  0.28426689701E+02 -0.22717980144E+03  0.27691126963E+03  0.12509286148E+03 0.  0.
         23    2    1    2    0    0 -0.92805648442E+02 -0.28426689701E+02 -0.44700085640E+03  0.46223041416E+03  0.66529881136E+02 0.  0.
          5    1    3    3  502    0  0.30436257062E+02  0.43182573440E+02 -0.14787746335E+02  0.55020452874E+02  0.41800000000E+01 0.  1.
         -5    1    3    3    0  502  0.62369391380E+02 -0.14755883739E+02 -0.21239205511E+03  0.22189081675E+03  0.41800000000E+01 0.  1.
        -11    1    4    4    0    0 -0.65153737433E+02 -0.12782885138E+02 -0.40016449930E+03  0.40563535122E+03  0.00000000000E+00 0. -1.
         11    1    4    4    0    0 -0.27651911009E+02 -0.15643804563E+02 -0.46836357094E+02  0.56595062943E+02  0.00000000000E+00 0.  1.
</event>
<event>
 8    1  0.7136454E-009  0.9429579E+02  0.7561462E-02  0.1292770E+00
         -2   -1    0    0    0  501 -0.00000000000E+00  0.00000000000E+00  0.10889442469E+03  0.10889442469E+03  0.00000000000E+00 0.  1.
          2   -1    0    0  501    0  0.00000000000E+00 -0.00000000000E+00 -0.14422132591E+03  0.14422132591E+03  0.00000000000E+00 0. -1.
         25    2    1    2    0    0 -0.16089116964E+02  0.48728141653E+02  0.16038054493E+02  0.13615563831E+03  0.12509135533E+03 0.  0.
         23    2    1    2    0    0  0.16089116964E+02 -0.48728141653E+02 -0.51364955713E+02  0.11696011229E+03  0.91695243708E+02 0.  0.
          5    1    3    3  502    0 -0.24258404707E-01 -0.37201111213E+02  0.29430689277E+02  0.47618915730E+02  0.41800000000E+01 0.  1.
         -5    1    3    3    0  502 -0.16064858560E+02  0.85929252866E+02 -0.13392634784E+02  0.88536722579E+02  0.41800000000E+01 0.  1.
        -11    1    4    4    0    0 -0.12189308607E+02 -0.19289444024E+02  0.22829472196E+02  0.32277650097E+02  0.00000000000E+00 0.  1.
         11    1    4    4    0    0  0.28278425571E+02 -0.29438697629E+02 -0.74194427909E+02  0.84682462196E+02  0.00000000000E+00 0. -1.
</event>
<event>
 8    1  0.7136454E-009  0.1092251E+03  0.7561462E-02  0.1262012E+00
         -1   -1    0    0    0  501 -0.00000000000E+00  0.00000000000E+00  0.53178809079E+02  0.53178809079E+02  0.00000000000E+00 0.  1.
          1   -1    0    0  501    0  0.00000000000E+00 -0.00000000000E+00 -0.48703414783E+03  0.48703414783E+03  0.00000000000E+00 0. -1.
         25    2    1    2    0    0 -0.94759133726E+01  0.51790627916E+02 -0.40872727964E+03  0.43067686370E+03  0.12510999052E+03 0.  0.
         23    2    1    2    0    0  0.94759133726E+01 -0.51790627916E+02 -0.25128059107E+02  0.10953609321E+03  0.92707466184E+02 0.  0.
          5    1    3    3  502    0  0.54663472747E+02  0.18979797834E+02 -0.24457762059E+03  0.25136430310E+03  0.41800000000E+01 0.  1.
         -5    1    3    3    0  502 -0.64139386119E+02  0.32810830082E+02 -0.16414965905E+03  0.17931256060E+03  0.41800000000E+01 0.  1.
        -11    1    4    4    0    0  0.40477029562E+02 -0.29433307723E+02 -0.44244367088E+02  0.66800251082E+02  0.00000000000E+00 0. -1.
         11    1    4    4    0    0 -0.31001116189E+02 -0.22357320194E+02  0.19116307981E+02  0.42735842124E+02  0.00000000000E+00 0.  1.
</event>
<event>
 8    1  0.7136454E-009  0.9343832E+02  0.7561462E-02  0.1294733E+00
          4   -1    0    0  501    0  0.00000000000E+00  0.00000000000E+00  0.13523967821E+03  0.13523967821E+03  0.00000000000E+00 0. -1.
         -4   -1    0    0    0  501 -0.00000000000E+00 -0.00000000000E+00 -0.10836748058E+03  0.10836748058E+03  0.00000000000E+00 0.  1.
         25    2    1    2    0    0  0.10716278534E+02 -0.30242220867E+02  0.61545477462E+02  0.14305291463E+03  0.12508740960E+03 0.  0.
         23    2    1    2    0    0 -0.10716278534E+02  0.30242220867E+02 -0.34673279839E+02  0.10055424415E+03  0.88766486548E+02 0.  0.
          5    1    3    3  502    0 -0.18219031814E+02  0.44822033736E+02  0.22040945269E+02  0.53331261909E+02  0.41800000000E+01 0.  1.
         -5    1    3    3    0  502  0.28935310348E+02 -0.75064254603E+02  0.39504532193E+02  0.89721652725E+02  0.41800000000E+01 0.  1.
        -11    1    4    4    0    0  0.11068687837E+02 -0.80600381868E+01 -0.51573635606E+02  0.53360284441E+02  0.00000000000E+00 0.  1.
         11    1    4    4    0    0 -0.21784966371E+02  0.38302259053E+02  0.16900355767E+02  0.47193959714E+02  0.00000000000E+00 0. -1.
</event>
<event>
 8    1  0.7136454E-009  0.1187271E+03  0.7561462E-02  0.1245212E+00
          4   -1    0    0  501    0  0.00000000000E+00  0.00000000000E+00  0.13108654411E+03  0.13108654411E+03  0.00000000000E+00 0. -1.
         -4   -1    0    0    0  501 -0.00000000000E+00 -0.00000000000E+00 -0.17905564471E+03  0.17905564471E+03  0.00000000000E+00 0.  1.
         25    2    1    2    0    0  0.86765158834E+02 -0.59466904207E+02 -0.20139705086E+02  0.16467493179E+03  0.12509084681E+03 0.  0.
         23    2    1    2    0    0 -0.86765158834E+02  0.59466904207E+02 -0.27829395512E+02  0.14546725702E+03  0.96549169480E+02 0.  0.
          5    1    3    3  502    0  0.10842188224E+02 -0.50908049319E+02  0.41273694378E+02  0.66559543107E+02  0.41800000000E+01 0. -1.
         -5    1    3    3    0  502  0.75922970611E+02 -0.85588548878E+01 -0.61413399465E+02  0.98115388687E+02  0.41800000000E+01 0. -1.
        -11    1    4    4    0    0 -0.65520533799E+02  0.29182118688E+02 -0.62224330005E+02  0.94954745248E+02  0.00000000000E+00 0.  1.
         11    1    4    4    0    0 -0.21244625035E+02  0.30284785520E+02  0.34394934494E+02  0.50512511774E+02  0.00000000000E+00 0. -1.
</event>
<event>
 8    1  0.7136454E-009  0.1044343E+03  0.7561462E-02  0.1271238E+00
         -1   -1    0    0    0  501 -0.00000000000E+00  0.00000000000E+00  0.28669178152E+02  0.28669178152E+02  0.00000000000E+00 0.  1.
          1   -1    0    0  501    0  0.00000000000E+00 -0.00000000000E+00 -0.60662859402E+03  0.60662859402E+03  0.00000000000E+00 0. -1.
         25    2    1    2    0    0 -0.59969201532E+02 -0.36021146294E+02 -0.27634678150E+03  0.31130223086E+03  0.12509079575E+03 0.  0.
         23    2    1    2    0    0  0.59969201532E+02  0.36021146294E+02 -0.30161263437E+03  0.32399554131E+03  0.95441612862E+02 0.  0.
          5    1    3    3  502    0 -0.74122048938E+02 -0.89876221364E+01 -0.26959123271E+03  0.27977090743E+03  0.41800000000E+01 0.  1.
         -5    1    3    3    0  502  0.14152847406E+02 -0.27033524158E+02 -0.67555487941E+01  0.31531323436E+02  0.41800000000E+01 0.  1.
        -11    1    4    4    0    0  0.52786700958E+02 -0.12492706304E+02 -0.77615682508E+02  0.94692648500E+02  0.00000000000E+00 0.  1.
         11    1    4    4    0    0  0.71825005739E+01  0.48513852598E+02 -0.22399695186E+03  0.22930289281E+03  0.00000000000E+00 0. -1.
</event>
<event>
 8    1  0.7136454E-009  0.1744027E+03  0.7561462E-02  0.1173333E+00
         -2   -1    0    0    0  501 -0.00000000000E+00  0.00000000000E+00  0.87591073163E+02  0.87591073163E+02  0.00000000000E+00 0. -1.
          2   -1    0    0  501    0  0.00000000000E+00 -0.00000000000E+00 -0.74164980554E+03  0.74164980554E+03  0.00000000000E+00 0.  1.
         25    2    1    2    0    0 -0.10039700936E+03 -0.12243330246E+03 -0.64605183903E+02  0.21187541888E+03  0.12509152769E+03 0.  0.
         23    2    1    2    0    0  0.10039700936E+03  0.12243330246E+03 -0.58945354848E+03  0.61736545983E+03  0.92817843833E+02 0.  0.
          5    1    3    3  502    0 -0.99995043259E+02 -0.13971353423E+03 -0.32114121540E+02  0.17483612191E+03  0.41800000000E+01 0. -1.
         -5    1    3    3    0  502 -0.40196610131E+00  0.17280231765E+02 -0.32491062363E+02  0.37039296970E+02  0.41800000000E+01 0. -1.
        -11    1    4    4    0    0  0.54203686051E+02  0.53332661973E+02 -0.43846804218E+03  0.44501307445E+03  0.00000000000E+00 0.  1.
         11    1    4    4    0    0  0.46193323310E+02  0.69100640488E+02 -0.15098550629E+03  0.17235238538E+03  0.00000000000E+00 0. -1.
</event>
<event>
 8    1  0.7136454E-009  0.9945418E+02  0.7561462E-02  0.1281448E+00
         -1   -1    0    0    0  501 -0.00000000000E+00  0.00000000000E+00  0.12541308678E+03  0.12541308678E+03  0.00000000000E+00 0.  1.
          1   -1    0    0  501    0  0.00000000000E+00 -0.00000000000E+00 -0.11946260077E+03  0.11946260077E+03  0.00000000000E+00 0. -1.
         25    2    1    2    0    0  0.52774209897E+01  0.11274048499E+02 -0.53897357120E+02  0.13677565735E+03  0.12509076704E+03 0.  0.
         23    2    1    2    0    0 -0.52774209897E+01 -0.11274048499E+02  0.59847843129E+02  0.10810003019E+03  0.89156586177E+02 0.  0.
          5    1    3    3  502    0  0.35560597381E+02  0.51001689448E+02 -0.59718735060E+02  0.86310648994E+02  0.41800000000E+01 0.  1.
         -5    1    3    3    0  502 -0.30283176391E+02 -0.39727640949E+02  0.58213779396E+01  0.50465008361E+02  0.41800000000E+01 0.  1.
        -11    1    4    4    0    0 -0.42817105790E+02  0.90697267994E+01  0.15224040405E+02  0.46339355830E+02  0.00000000000E+00 0.  1.
         11    1    4    4    0    0  0.37539684800E+02 -0.20343775298E+02  0.44623802724E+02  0.61760674363E+02  0.00000000000E+00 0. -1.
</event>
<event>
 8    1  0.7136454E-009  0.1106917E+03  0.7561462E-02  0.1259294E+00
         -1   -1    0    0    0  501 -0.00000000000E+00  0.00000000000E+00  0.59968529626E+02  0.59968529626E+02  0.00000000000E+00 0.  1.
          1   -1    0    0  501    0  0.00000000000E+00 -0.00000000000E+00 -0.58588106102E+03  0.58588106102E+03  0.00000000000E+00 0. -1.
         25    2    1    2    0    0  0.85222056963E+02 -0.39461291353E+02 -0.48364655749E+03  0.50831259682E+03  0.12509081101E+03 0.  0.
         23    2    1    2    0    0 -0.85222056963E+02  0.39461291353E+02 -0.42265973902E+02  0.13753699383E+03  0.91159308979E+02 0.  0.
          5    1    3    3  502    0  0.75826940870E+02  0.10072516315E+02 -0.42039617581E+03  0.42731908170E+03  0.41800000000E+01 0.  1.
         -5    1    3    3    0  502  0.93951160922E+01 -0.49533807668E+02 -0.63250381684E+02  0.80993515121E+02  0.41800000000E+01 0.  1.
        -11    1    4    4    0    0 -0.58140348362E+02  0.23204499858E+02  0.21653404519E+02  0.66239103622E+02  0.00000000000E+00 0.  1.
         11    1    4    4    0    0 -0.27081708601E+02  0.16256791494E+02 -0.63919378420E+02  0.71297890208E+02  0.00000000000E+00 0. -1.
</event>
<event>
 8    1  0.7136454E-009  0.1414479E+03  0.7561462E-02  0.1211394E+00
         -1   -1    0    0    0  501 -0.00000000000E+00  0.00000000000E+00  0.52970899982E+03  0.52970899982E+03  0.00000000000E+00 0.  1.
          1   -1    0    0  501    0  0.00000000000E+00 -0.00000000000E+00 -0.87720557929E+02  0.87720557929E+02  0.00000000000E+00 0. -1.
         25    2    1    2    0    0 -0.12451978074E+03 -0.36132249766E+01  0.31963169628E+02  0.17939406148E+03  0.12506939630E+03 0.  0.
         23    2    1    2    0    0  0.12451978074E+03  0.36132249766E+01  0.41002527226E+03  0.43803549627E+03  0.90753186776E+02 0.  0.
          5    1    3    3  502    0 -0.11707611212E+03  0.26472534332E+02  0.62750490440E+02  0.13550906816E+03  0.41800000000E+01 0. -1.
         -5    1    3    3    0  502 -0.74436686164E+01 -0.30085759309E+02 -0.30787320812E+02  0.43884993317E+02  0.41800000000E+01 0. -1.
        -11    1    4    4    0    0  0.10880892272E+03  0.17913181803E+02  0.39928078963E+03  0.41422869615E+03  0.00000000000E+00 0.  1.
         11    1    4    4    0    0  0.15710858018E+02 -0.14299956827E+02  0.10744482628E+02  0.23806800118E+02  0.00000000000E+00 0. -1.
</event>
<event>
 8    1  0.7136454E-009  0.1978048E+03  0.7561462E-02  0.1151604E+00
          2   -1    0    0  501    0  0.00000000000E+00  0.00000000000E+00  0.49381443348E+03  0.49381443348E+03  0.00000000000E+00 0.  1.
         -2   -1    0    0    0  501 -0.00000000000E+00 -0.00000000000E+00 -0.88072296960E+02  0.88072296960E+02  0.00000000000E+00 0. -1.
         25    2    1    2    0    0  0.86472661606E+02 -0.15807622371E+03  0.20964237642E+03  0.30341851570E+03  0.12508899219E+03 0.  0.
         23    2    1    2    0    0 -0.86472661606E+02  0.15807622371E+03  0.19609976009E+03  0.27846821474E+03  0.81386835571E+02 0.  0.
          5    1    3    3  502    0  0.41945903150E+01 -0.11019798981E+03  0.58916512617E+02  0.12509923823E+03  0.41800000000E+01 0. -1.
         -5    1    3    3    0  502  0.82278071291E+02 -0.47878233897E+02  0.15072586381E+03  0.17831927747E+03  0.41800000000E+01 0. -1.
        -11    1    4    4    0    0 -0.48742533665E+02  0.31860234910E+02  0.98846653547E+02  0.11472388624E+03  0.00000000000E+00 0.  1.
         11    1    4    4    0    0 -0.37730127942E+02  0.12621598880E+03  0.97253106546E+02  0.16374432850E+03  0.00000000000E+00 0. -1.
</event>
<event>
 8    1  0.7136454E-009  0.8907667E+02  0.7561462E-02  0.1305103E+00
          3   -1    0    0  501    0  0.00000000000E+00  0.00000000000E+00  0.33539076773E+02  0.33539076773E+02  0.00000000000E+00 0. -1.
         -3   -1    0    0    0  501 -0.00000000000E+00 -0.00000000000E+00 -0.50716561129E+03  0.50716561129E+03  0.00000000000E+00 0.  1.
         25    2    1    2    0    0 -0.29216047335E+02  0.27780741916E+02 -0.37849477667E+03  0.40066403395E+03  0.12509206645E+03 0.  0.
         23    2    1    2    0    0  0.29216047335E+02 -0.27780741916E+02 -0.95131757840E+02  0.14004065411E+03  0.94530346508E+02 0.  0.
          5    1    3    3  502    0  0.41689260561E+02  0.16360839038E+02 -0.24426026108E+03  0.24836710540E+03  0.41800000000E+01 0. -1.
         -5    1    3    3    0  502 -0.70905307897E+02  0.11419902879E+02 -0.13423451559E+03  0.15229692855E+03  0.41800000000E+01 0. -1.
        -11    1    4    4    0    0  0.40895190580E+02 -0.14128173678E+02 -0.10904610249E+03  0.11731613006E+03  0.00000000000E+00 0.  1.
         11    1    4    4    0    0 -0.11679143245E+02 -0.13652568238E+02  0.13914344648E+02  0.22724524052E+02  0.00000000000E+00 0. -1.
</event>
<event>
 8    1  0.7136454E-009  0.1069286E+03  0.7561462E-02  0.1266366E+00
          1   -1    0    0  501    0  0.00000000000E+00  0.00000000000E+00  0.12562666748E+03  0.12562666748E+03  0.00000000000E+00 0. -1.
         -1   -1    0    0    0  501 -0.00000000000E+00 -0.00000000000E+00 -0.12649883354E+03  0.12649883354E+03  0.00000000000E+00 0.  1.
         25    2    1    2    0    0  0.42795963925E+01  0.47322207299E+02 -0.43861209276E+02  0.14081496293E+03  0.12508933551E+03 0.  0.
         23    2    1    2    0    0 -0.42795963925E+01 -0.47322207299E+02  0.42989043215E+02  0.11131053808E+03  0.91017975164E+02 0.  0.
          5    1    3    3  502    0  0.50671103224E+02 -0.14699592632E+02 -0.26745790098E+01  0.52993060851E+02  0.41800000000E+01 0. -1.
         -5    1    3    3    0  502 -0.46391506832E+02  0.62021799931E+02 -0.41186630267E+02  0.87821902083E+02  0.41800000000E+01 0. -1.
        -11    1    4    4    0    0  0.29650025394E+02 -0.37963413998E+02 -0.85271038221E+01  0.48918874761E+02  0.00000000000E+00 0.  1.
         11    1    4    4    0    0 -0.33929621787E+02 -0.93587933006E+01  0.51516147037E+02  0.62391663323E+02  0.00000000000E+00 0. -1.
</event>
<event>
 8    1  0.7136454E-009  0.1277156E+03  0.7561462E-02  0.1230885E+00
         -2   -1    0    0    0  501 -0.00000000000E+00  0.00000000000E+00  0.45711833349E+02  0.45711833349E+02  0.00000000000E+00 0.  1.
          2   -1    0    0  501    0  0.00000000000E+00 -0.00000000000E+00 -0.37606369415E+03  0.37606369415E+03  0.00000000000E+00 0. -1.
         25    2    1    2    0    0  0.57012716970E+02 -0.45102079796E+02 -0.20068523798E+03  0.24739873395E+03  0.12508765453E+03 0.  0.
         23    2    1    2    0    0 -0.57012716970E+02  0.45102079796E+02 -0.12966662281E+03  0.17437679355E+03  0.91154734154E+02 0.  0.
          5    1    3    3  502    0  0.50267249889E+02  0.35546993306E+02 -0.67152003967E+02  0.91198953839E+02  0.41800000000E+01 0.  1.
         -5    1    3    3    0  502  0.67454670815E+01 -0.80649073102E+02 -0.13353323402E+03  0.15619978011E+03  0.41800000000E+01 0.  1.
        -11    1    4    4    0    0  0.15002766902E+02  0.37353312955E+02 -0.69054712354E+02  0.79930634313E+02  0.00000000000E+00 0. -1.
         11    1    4    4    0    0 -0.72015483873E+02  0.77487668403E+01 -0.60611910460E+02  0.94446159237E+02  0.00000000000E+00 0.  1.
</event>
<event>
 8    1  0.7136454E-009  0.1335840E+03  0.7561462E-02  0.1222233E+00
          1   -1    0    0  501    0  0.00000000000E+00  0.00000000000E+00  0.62529139470E+03  0.62529139470E+03  0.00000000000E+00 0. -1.
         -1   -1    0    0    0  501 -0.00000000000E+00 -0.00000000000E+00 -0.33553589564E+02  0.33553589564E+02  0.00000000000E+00 0.  1.
         25    2    1    2    0    0  0.90786271592E+02  0.27105187184E+02  0.30841673340E+03  0.34604170855E+03  0.12508854597E+03 0.  0.
         23    2    1    2    0    0 -0.90786271592E+02 -0.27105187184E+02  0.28332107174E+03  0.31280327572E+03  0.92726594500E+02 0.  0.
          5    1    3    3  502    0  0.79191221771E+02  0.73957775079E+02  0.21662423408E+03  0.24224890772E+03  0.41800000000E+01 0.  1.
         -5    1    3    3    0  502  0.11595049821E+02 -0.46852587894E+02  0.91792499317E+02  0.10379280083E+03  0.41800000000E+01 0.  1.
        -11    1    4    4    0    0 -0.47916826676E+02 -0.43178555663E+02  0.72375771687E+02  0.96946698114E+02  0.00000000000E+00 0.  1.
         11    1    4    4    0    0 -0.42869444916E+02  0.16073368479E+02  0.21094530005E+03  0.21585657760E+03  0.00000000000E+00 0. -1.
</event>
<event>
 8    1  0.7136454E-009  0.1223790E+03  0.7561462E-02  0.1239223E+00
         -1   -1    0    0    0  501 -0.00000000000E+00  0.00000000000E+00  0.82987233522E+02  0.82987233522E+02  0.00000000000E+00 0.  1.
          1   -1    0    0  501    0  0.00000000000E+00 -0.00000000000E+00 -0.27711660589E+03  0.27711660589E+03  0.00000000000E+00 0. -1.
         25    2    1    2    0    0  0.22152846115E+02  0.10189560954E+03 -0.13684616988E+03  0.21271456724E+03  0.12508856491E+03 0.  0.
         23    2    1    2    0    0 -0.22152846115E+02 -0.10189560954E+03 -0.57283202487E+02  0.14738927217E+03  0.86998669117E+02 0.  0.
          5    1    3    3  502    0  0.56291561702E+02  0.77741326379E+02 -0.14085105248E+03  0.17049617336E+03  0.41800000000E+01 0.  1.
         -5    1    3    3    0  502 -0.34138715587E+02  0.24154283165E+02  0.40048826009E+01  0.42218393880E+02  0.41800000000E+01 0.  1.
        -11    1    4    4    0    0 -0.84285442661E+01 -0.82318204394E+02 -0.79501121797E+02  0.11475084096E+03  0.00000000000E+00 0. -1.
         11    1    4    4    0    0 -0.13724301849E+02 -0.19577405150E+02  0.22217919310E+02  0.32638431214E+02  0.00000000000E+00 0.  1.
</event>
<event>
 8    1  0.7136454E-009  0.1110084E+03  0.7561462E-02  0.1258714E+00
          1   -1    0    0  501    0  0.00000000000E+00  0.00000000000E+00  0.11900367323E+03  0.11900367323E+03  0.00000000000E+00 0. -1.
         -1   -1    0    0    0  501 -0.00000000000E+00 -0.00000000000E+00 -0.11332139346E+03  0.11332139346E+03  0.00000000000E+00 0.  1.
         25    2    1    2    0    0  0.18133411344E+02 -0.28424502684E+02 -0.20439113840E+02  0.13115871222E+03  0.12509227576E+03 0.  0.
         23    2    1    2    0    0 -0.18133411344E+02  0.28424502684E+02  0.26121393618E+02  0.10116635447E+03  0.91736203937E+02 0.  0.
          5    1    3    3  502    0  0.51158188194E+01  0.49609923660E+02 -0.12161891918E+02  0.51504370133E+02  0.41800000000E+01 0. -1.
         -5    1    3    3    0  502  0.13017592525E+02 -0.78034426344E+02 -0.82772219221E+01  0.79654342083E+02  0.41800000000E+01 0. -1.
        -11    1    4    4    0    0 -0.33474740475E+02  0.53641077170E+02  0.32312835932E+02  0.71007343111E+02  0.00000000000E+00 0. -1.
         11    1    4    4    0    0  0.15341329131E+02 -0.25216574486E+02 -0.61914423146E+01  0.30159011360E+02  0.00000000000E+00 0.  1.
</event>
<event>
 8    1  0.7136454E-009  0.1603935E+03  0.7561462E-02  0.1188253E+00
          2   -1    0    0  501    0  0.00000000000E+00  0.00000000000E+00  0.59526973606E+03  0.59526973606E+03  0.00000000000E+00 0. -1.
         -2   -1    0    0    0  501 -0.00000000000E+00 -0.00000000000E+00 -0.46986410956E+02  0.46986410956E+02  0.00000000000E+00 0.  1.
         25    2    1    2    0    0  0.15605983397E+02 -0.12268067621E+03  0.24042446744E+03  0.29789989734E+03  0.12508528794E+03 0.  0.
         23    2    1    2    0    0 -0.15605983397E+02  0.12268067621E+03  0.30785885766E+03  0.34435624967E+03  0.92249961589E+02 0.  0.
          5    1    3    3  502    0 -0.24796673727E+01 -0.14536289160E+03  0.21180906391E+03  0.25693787374E+03  0.41800000000E+01 0. -1.
         -5    1    3    3    0  502  0.18085650770E+02  0.22682215389E+02  0.28615403528E+02  0.40962023605E+02  0.41800000000E+01 0. -1.
        -11    1    4    4    0    0  0.21101797814E+02  0.10146405475E+03  0.16076337013E+03  0.19127232276E+03  0.00000000000E+00 0. -1.
         11    1    4    4    0    0 -0.36707781212E+02  0.21216621464E+02  0.14709548753E+03  0.15308392691E+03  0.00000000000E+00 0.  1.
</event>
<event>
 8    1  0.7136454E-009  0.1274038E+03  0.7561462E-02  0.1231360E+00
         -2   -1    0    0    0  501 -0.00000000000E+00  0.00000000000E+00  0.25282684682E+02  0.25282684682E+02  0.00000000000E+00 0.  1.
          2   -1    0    0  501    0  0.00000000000E+00 -0.00000000000E+00 -0.83442528875E+03  0.83442528875E+03  0.00000000000E+00 0. -1.
         25    2    1    2    0    0  0.26516724928E+02 -0.84544974360E+02 -0.32783623624E+03  0.36190498578E+03  0.12509049345E+03 0.  0.
         23    2    1    2    0    0 -0.26516724928E+02  0.84544974360E+02 -0.48130636783E+03  0.49780298765E+03  0.91109853537E+02 0.  0.
          5    1    3    3  502    0  0.29495970516E+02  0.16228965109E+02 -0.17836555429E+03  0.18156303297E+03  0.41800000000E+01 0.  1.
         -5    1    3    3    0  502 -0.29792455877E+01 -0.10077393947E+03 -0.14947068195E+03  0.18034195281E+03  0.41800000000E+01 0.  1.
        -11    1    4    4    0    0 -0.53569400948E+02  0.36439938925E+02 -0.33967206752E+03  0.34579569592E+03  0.00000000000E+00 0. -1.
         11    1    4    4    0    0  0.27052676020E+02  0.48105035435E+02 -0.14163430031E+03  0.15200729173E+03  0.00000000000E+00 0.  1.
</event>
<event>
 8    1  0.7136454E-009  0.7538095E+02  0.7561462E-02  0.1342695E+00
         -2   -1    0    0    0  501 -0.00000000000E+00  0.00000000000E+00  0.12612685568E+03  0.12612685568E+03  0.00000000000E+00 0. -1.
          2   -1    0    0  501    0  0.00000000000E+00 -0.00000000000E+00 -0.10234601614E+03  0.10234601614E+03  0.00000000000E+00 0.  1.
         25    2    1    2    0    0  0.18324369397E+02  0.37531352901E+01  0.42036681241E+02  0.13328372719E+03  0.12509037064E+03 0.  0.
         23    2    1    2    0    0 -0.18324369397E+02 -0.37531352901E+01 -0.18255841708E+02  0.95189144628E+02  0.91530481045E+02 0.  0.
          5    1    3    3  502    0  0.80402662393E+01  0.62865001537E+02  0.75741311495E+01  0.63964788455E+02  0.41800000000E+01 0. -1.
         -5    1    3    3    0  502  0.10284103157E+02 -0.59111866247E+02  0.34462550091E+02  0.69318938738E+02  0.41800000000E+01 0. -1.
        -11    1    4    4    0    0 -0.97373829892E+01 -0.11823956700E+02 -0.54743290388E+02  0.56845847887E+02  0.00000000000E+00 0.  1.
         11    1    4    4    0    0 -0.85869864074E+01  0.80708214095E+01  0.36487448680E+02  0.38343296741E+02  0.00000000000E+00 0. -1.
</event>
<event>
 8    1  0.7136454E-009  0.1722710E+03  0.7561462E-02  0.1175500E+00
          2   -1    0    0  501    0  0.00000000000E+00  0.00000000000E+00  0.77476354378E+03  0.77476354378E+03  0.00000000000E+00 0. -1.
         -2   -1    0    0    0  501 -0.00000000000E+00 -0.00000000000E+00 -0.43170600331E+02  0.43170600331E+02  0.00000000000E+00 0.  1.
         25    2    1    2    0    0  0.83904454852E+02  0.11682691442E+03  0.30706147905E+03  0.36141774508E+03  0.12509016372E+03 0.  0.
         23    2    1    2    0    0 -0.83904454852E+02 -0.11682691442E+03  0.42453146439E+03  0.45651639903E+03  0.86555027852E+02 0.  0.
          5    1    3    3  502    0  0.13837340932E+02  0.11782115292E+03  0.21564923058E+03  0.24616124620E+03  0.41800000000E+01 0.  1.
         -5    1    3    3    0  502  0.70067113920E+02 -0.99423849468E+00  0.91412248467E+02  0.11525649888E+03  0.41800000000E+01 0.  1.
        -11    1    4    4    0    0 -0.31091295629E+02 -0.92323261791E+02  0.17505031435E+03  0.20033188934E+03  0.00000000000E+00 0.  1.
         11    1    4    4    0    0 -0.52813159223E+02 -0.24503652631E+02  0.24948115005E+03  0.25618450970E+03  0.00000000000E+00 0. -1.
</event>
<event>
 8    1  0.7136454E-009  0.9067275E+02  0.7561462E-02  0.1301231E+00
         -2   -1    0    0    0  501 -0.00000000000E+00  0.00000000000E+00  0.31971147325E+02  0.31971147325E+02  0.00000000000E+00 0.  1.
          2   -1    0    0  501    0  0.00000000000E+00 -0.00000000000E+00 -0.61898846800E+03  0.61898846800E+03  0.00000000000E+00 0. -1.
         25    2    1    2    0    0 -0.56136849140E+02 -0.55039851635E+02 -0.30761656998E+03  0.34125717307E+03  0.12509105862E+03 0.  0.
         23    2    1    2    0    0  0.56136849140E+02  0.55039851635E+02 -0.27940075070E+03  0.30970244225E+03  0.10802820071E+03 0.  0.
          5    1    3    3  502    0 -0.31065797525E+02 -0.10441050309E+02 -0.39405934020E+01  0.33273112024E+02  0.41800000000E+01 0.  1.
         -5    1    3    3    0  502 -0.25071051615E+02 -0.44598801326E+02 -0.30367597657E+03  0.30798406104E+03  0.41800000000E+01 0.  1.
        -11    1    4    4    0    0  0.18266195207E+02 -0.10653565511E+02 -0.10105661823E+01  0.21170110756E+02  0.00000000000E+00 0.  1.
         11    1    4    4    0    0  0.37870653933E+02  0.65693417146E+02 -0.27839018451E+03  0.28853233150E+03  0.00000000000E+00 0. -1.
</event>
<event>
 8    1  0.7136454E-009  0.1580401E+03  0.7561462E-02  0.1190927E+00
         -1   -1    0    0    0  501 -0.00000000000E+00  0.00000000000E+00  0.43555984599E+03  0.43555984599E+03  0.00000000000E+00 0.  1.
          1   -1    0    0  501    0  0.00000000000E+00 -0.00000000000E+00 -0.60719806344E+02  0.60719806344E+02  0.00000000000E+00 0. -1.
         25    2    1    2    0    0  0.93011390057E+01  0.11577941955E+03  0.24508844105E+03  0.29867078564E+03  0.12507801197E+03 0.  0.
         23    2    1    2    0    0 -0.93011390057E+01 -0.11577941955E+03  0.12975159860E+03  0.19760886670E+03  0.93393798940E+02 0.  0.
          5    1    3    3  502    0  0.27808401486E+02 -0.18660866655E+02  0.63799461907E+02  0.72176027025E+02  0.41800000000E+01 0. -1.
         -5    1    3    3    0  502 -0.18507262480E+02  0.13444028621E+03  0.18128897914E+03  0.22649475861E+03  0.41800000000E+01 0. -1.
        -11    1    4    4    0    0 -0.41360772774E+02 -0.10480715333E+03  0.11384900185E+03  0.16017755191E+03  0.00000000000E+00 0. -1.
         11    1    4    4    0    0  0.32059633768E+02 -0.10972266220E+02  0.15902596747E+02  0.37431314786E+02  0.00000000000E+00 0.  1.
</event>
<event>
 8    1  0.7136454E-009  0.7164167E+02  0.7561462E-02  0.1354598E+00
         -1   -1    0    0    0  501 -0.00000000000E+00  0.00000000000E+00  0.48888702029E+03  0.48888702029E+03  0.00000000000E+00 0.  1.
          1   -1    0    0  501    0  0.00000000000E+00 -0.00000000000E+00 -0.25632739250E+02  0.25632739250E+02  0.00000000000E+00 0. -1.
         25    2    1    2    0    0  0.20031885012E+02  0.18280631955E+02  0.26943523481E+03  0.29829256712E+03  0.12509057486E+03 0.  0.
         23    2    1    2    0    0 -0.20031885012E+02 -0.18280631955E+02  0.19381904623E+03  0.21622719242E+03  0.91939752771E+02 0.  0.
          5    1    3    3  502    0  0.30040742788E+01  0.45041015524E+02  0.24996078140E+02  0.51768657160E+02  0.41800000000E+01 0.  1.
         -5    1    3    3    0  502  0.17027810733E+02 -0.26760383569E+02  0.24443915667E+03  0.24652390996E+03  0.41800000000E+01 0.  1.
        -11    1    4    4    0    0 -0.40536383978E+02 -0.35146891189E+01  0.18506610208E+03  0.18948618315E+03  0.00000000000E+00 0.  1.
         11    1    4    4    0    0  0.20504498966E+02 -0.14765942836E+02  0.87529441516E+01  0.26741009274E+02  0.00000000000E+00 0. -1.
</event>
<event>
 8    1  0.7136454E-009  0.3032340E+03  0.7561462E-02  0.1083635E+00
         -2   -1    0    0    0  501 -0.00000000000E+00  0.00000000000E+00  0.33748626452E+02  0.33748626452E+02  0.00000000000E+00 0.  1.
          2   -1    0    0  501    0  0.00000000000E+00 -0.00000000000E+00 -0.27778471276E+04  0.27778471276E+04  0.00000000000E+00 0. -1.
         25    2    1    2    0    0  0.32961603325E+02  0.28608514805E+03 -0.13819264737E+04  0.14171449168E+04  0.12509099679E+03 0.  0.
         23    2    1    2    0    0 -0.32961603325E+02 -0.28608514805E+03 -0.13621720275E+04  0.13944508372E+04  0.77777411342E+02 0.  0.
          5    1    3    3  502    0 -0.45232992551E+02  0.14524373913E+03 -0.71664456572E+03  0.73262451048E+03  0.41800000000E+01 0.  1.
         -5    1    3    3    0  502  0.78194595876E+02  0.14084140892E+03 -0.66528190793E+03  0.68452040635E+03  0.41800000000E+01 0.  1.
        -11    1    4    4    0    0 -0.47784413587E+02 -0.24064291714E+03 -0.12210442197E+04  0.12454482527E+04  0.00000000000E+00 0.  1.
         11    1    4    4    0    0  0.14822810262E+02 -0.45442230910E+02 -0.14112780776E+03  0.14900258447E+03  0.00000000000E+00 0. -1.
</event>
<event>
 8    1  0.7136454E-009  0.1181105E+03  0.7561462E-02  0.1246247E+00
          2   -1    0    0  501    0  0.00000000000E+00  0.00000000000E+00  0.63272593458E+03  0.63272593458E+03  0.00000000000E+00 0. -1.
         -2   -1    0    0    0  501 -0.00000000000E+00 -0.00000000000E+00 -0.32176040174E+02  0.32176040174E+02  0.00000000000E+00 0.  1.
         25    2    1    2    0    0 -0.81616707640E+02  0.37011613106E+02  0.27751276302E+03  0.31731854682E+03  0.12508629041E+03 0.  0.
         23    2    1    2    0    0  0.81616707640E+02 -0.37011613106E+02  0.32303713139E+03  0.34758342793E+03  0.91815601323E+02 0.  0.
          5    1    3    3  502    0 -0.42117035859E+02  0.61136219122E+02  0.61887096125E+02  0.96741754506E+02  0.41800000000E+01 0. -1.
         -5    1    3    3    0  502 -0.39499671781E+02 -0.24124606016E+02  0.21562566689E+03  0.22057679232E+03  0.41800000000E+01 0. -1.
        -11    1    4    4    0    0  0.47291457730E+02 -0.58247499200E+02  0.27391839439E+03  0.28400799270E+03  0.00000000000E+00 0. -1.
         11    1    4    4    0    0  0.34325249910E+02  0.21235886094E+02  0.49118737004E+02  0.63575435228E+02  0.00000000000E+00 0.  1.
</event>
<event>
 8    1  0.7136454E-009  0.1268730E+03  0.7561462E-02  0.1232171E+00
         -2   -1    0    0    0  501 -0.00000000000E+00  0.00000000000E+00  0.17960158762E+02  0.17960158762E+02  0.00000000000E+00 0.  1.
          2   -1    0    0  501    0  0.00000000000E+00 -0.00000000000E+00 -0.12209457029E+04  0.12209457029E+04  0.00000000000E+00 0. -1.
         25    2    1    2    0    0  0.63340036374E+02  0.60088827093E+02 -0.85873274757E+03  0.87218160654E+03  0.12512472051E+03 0.  0.
         23    2    1    2    0    0 -0.63340036374E+02 -0.60088827093E+02 -0.34425279662E+03  0.36672425517E+03  0.91400568956E+02 0.  0.
          5    1    3    3  502    0  0.83816367022E+02  0.12700453224E+01 -0.60946878317E+03  0.61522066485E+03  0.41800000000E+01 0. -1.
         -5    1    3    3    0  502 -0.20476330648E+02  0.58818781771E+02 -0.24926396440E+03  0.25696094169E+03  0.41800000000E+01 0. -1.
        -11    1    4    4    0    0 -0.17725232655E+02 -0.59173008800E+02 -0.94905221601E+02  0.11323705193E+03  0.00000000000E+00 0.  1.
         11    1    4    4    0    0 -0.45614803719E+02 -0.91581829333E+00 -0.24934757501E+03  0.25348720324E+03  0.00000000000E+00 0. -1.
</event>
<event>
 8    1  0.7136454E-009  0.1328049E+03  0.7561462E-02  0.1223352E+00
         -2   -1    0    0    0  501 -0.00000000000E+00  0.00000000000E+00  0.32697626829E+02  0.32697626829E+02  0.00000000000E+00 0.  1.
          2   -1    0    0  501    0  0.00000000000E+00 -0.00000000000E+00 -0.57224063166E+03  0.57224063166E+03  0.00000000000E+00 0. -1.
         25    2    1    2    0    0 -0.49585295715E+01 -0.82965700511E+02 -0.28609034468E+03  0.32311421642E+03  0.12508883667E+03 0.  0.
         23    2    1    2    0    0  0.49585295715E+01  0.82965700511E+02 -0.25345266015E+03  0.28182404206E+03  0.90987061006E+02 0.  0.
          5    1    3    3  502    0 -0.56276627138E+02 -0.55995737915E+01 -0.12197351642E+03  0.13451180282E+03  0.41800000000E+01 0.  1.
         -5    1    3    3    0  502  0.51318097567E+02 -0.77366126719E+02 -0.16411682826E+03  0.18860241361E+03  0.41800000000E+01 0.  1.
        -11    1    4    4    0    0 -0.35003752318E+02  0.61095974657E+02 -0.10409224898E+03  0.12567090790E+03  0.00000000000E+00 0.  1.
         11    1    4    4    0    0  0.39962281889E+02  0.21869725854E+02 -0.14936041117E+03  0.15615313416E+03  0.00000000000E+00 0. -1.
</event>
<event>
 8    1  0.7136454E-009  0.2065728E+03  0.7561462E-02  0.1144309E+00
          1   -1    0    0  501    0  0.00000000000E+00  0.00000000000E+00  0.12847710379E+03  0.12847710379E+03  0.00000000000E+00 0. -1.
         -1   -1    0    0    0  501 -0.00000000000E+00 -0.00000000000E+00 -0.42119546386E+03  0.42119546386E+03  0.00000000000E+00 0.  1.
         25    2    1    2    0    0  0.19609568593E+03 -0.21779147818E+02 -0.84255443231E+02  0.24834169236E+03  0.12508703822E+03 0.  0.
         23    2    1    2    0    0 -0.19609568593E+03  0.21779147818E+02 -0.20846291685E+03  0.30133087529E+03  0.91736903040E+02 0.  0.
          5    1    3    3  502    0  0.12655174037E+03 -0.27164667808E+02 -0.11387327754E+03  0.17244668134E+03  0.41800000000E+01 0.  1.
         -5    1    3    3    0  502  0.69543945559E+02  0.53855199901E+01  0.29617834304E+02  0.75895011024E+02  0.41800000000E+01 0.  1.
        -11    1    4    4    0    0 -0.13469715634E+03 -0.24465106579E+02 -0.10547178974E+03  0.17281829705E+03  0.00000000000E+00 0.  1.
         11    1    4    4    0    0 -0.61398529594E+02  0.46244254397E+02 -0.10299112711E+03  0.12851257823E+03  0.00000000000E+00 0. -1.
</event>
<event>
 8    1  0.7136454E-009  0.1150183E+03  0.7561462E-02  0.1251549E+00
         -1   -1    0    0    0  501 -0.00000000000E+00  0.00000000000E+00  0.32046512884E+03  0.32046512884E+03  0.00000000000E+00 0.  1.
          1   -1    0    0  501    0  0.00000000000E+00 -0.00000000000E+00 -0.50039572031E+02  0.50039572031E+02  0.00000000000E+00 0. -1.
         25    2    1    2    0    0 -0.40521146965E+02 -0.50236117157E+02  0.16868688344E+03  0.21970077760E+03  0.12509011239E+03 0.  0.
         23    2    1    2    0    0  0.40521146965E+02  0.50236117157E+02  0.10173867337E+03  0.15080392327E+03  0.90694182806E+02 0.  0.
          5    1    3    3  502    0 -0.70417109200E+02 -0.72219619192E+01  0.41680779721E+02  0.82252573213E+02  0.41800000000E+01 0.  1.
         -5    1    3    3    0  502  0.29895962236E+02 -0.43014155238E+02  0.12700610372E+03  0.13744820439E+03  0.41800000000E+01 0.  1.
        -11    1    4    4    0    0  0.21891501965E+02  0.73547404451E+02  0.91126340614E+02  0.11913214727E+03  0.00000000000E+00 0. -1.
         11    1    4    4    0    0  0.18629644999E+02 -0.23311287294E+02  0.10612332756E+02  0.31671775994E+02  0.00000000000E+00 0.  1.
</event>
<event>
 8    1  0.7136454E-009  0.1204994E+03  0.7561462E-02  0.1242276E+00
          1   -1    0    0  501    0  0.00000000000E+00  0.00000000000E+00  0.15874031992E+03  0.15874031992E+03  0.00000000000E+00 0. -1.
         -1   -1    0    0    0  501 -0.00000000000E+00 -0.00000000000E+00 -0.18119512336E+03  0.18119512336E+03  0.00000000000E+00 0.  1.
         25    2    1    2    0    0 -0.74996903278E+02  0.46066376072E+01 -0.11930836697E+03  0.18848699744E+03  0.12508838940E+03 0.  0.
         23    2    1    2    0    0  0.74996903278E+02 -0.46066376072E+01  0.96853563527E+02  0.15144844584E+03  0.88939655770E+02 0.  0.
          5    1    3    3  502    0 -0.20110064197E+02  0.50167243086E+02 -0.10115075391E+03  0.11476111875E+03  0.41800000000E+01 0.  1.
         -5    1    3    3    0  502 -0.54886839080E+02 -0.45560605479E+02 -0.18157613062E+02  0.73725878685E+02  0.41800000000E+01 0.  1.
        -11    1    4    4    0    0  0.35083743354E+02  0.41506144611E+02  0.35343463910E+02  0.64828925098E+02  0.00000000000E+00 0. -1.
         11    1    4    4    0    0  0.39913159923E+02 -0.46112782218E+02  0.61510099617E+02  0.86619520743E+02  0.00000000000E+00 0.  1.
</event>
<event>
 8    1  0.7136454E-009  0.1094152E+03  0.7561462E-02  0.1261657E+00
         -1   -1    0    0    0  501 -0.00000000000E+00  0.00000000000E+00  0.21165275139E+03  0.21165275139E+03  0.00000000000E+00 0.  1.
          1   -1    0    0  501    0  0.00000000000E+00 -0.00000000000E+00 -0.99927111698E+02  0.99927111698E+02  0.00000000000E+00 0. -1.
         25    2    1    2    0    0  0.33093049143E+02  0.22210716889E+02  0.15369212703E+03  0.20213230872E+03  0.12509090483E+03 0.  0.
         23    2    1    2    0    0 -0.33093049143E+02 -0.22210716889E+02 -0.41966487339E+02  0.10944755437E+03  0.92893031228E+02 0.  0.
          5    1    3    3  502    0  0.26995145528E+02 -0.47891682241E+02  0.97401197574E+02  0.11192326299E+03  0.41800000000E+01 0. -1.
         -5    1    3    3    0  502  0.60979036148E+01  0.70102399130E+02  0.56290929457E+02  0.90209045730E+02  0.41800000000E+01 0. -1.
        -11    1    4    4    0    0  0.28261287623E+02 -0.13200844098E+02 -0.35254934955E+02  0.47073061316E+02  0.00000000000E+00 0. -1.
         11    1    4    4    0    0 -0.61354336766E+02 -0.90098727914E+01 -0.67115523845E+01  0.62374493049E+02  0.00000000000E+00 0.  1.
</event>
<event>
 8    1  0.7136454E-009  0.1009479E+03  0.7561462E-02  0.1278315E+00
          1   -1    0    0  501    0  0.00000000000E+00  0.00000000000E+00  0.67066084819E+02  0.67066084819E+02  0.00000000000E+00 0. -1.
         -1   -1    0    0    0  501 -0.00000000000E+00 -0.00000000000E+00 -0.29968754759E+03  0.29968754759E+03  0.00000000000E+00 0.  1.
         25    2    1    2    0    0 -0.72210959975E+02  0.10539593243E+02 -0.19411638502E+03  0.24218536049E+03  0.12508825739E+03 0.  0.
         23    2    1    2    0    0  0.72210959975E+02 -0.10539593243E+02 -0.38505077746E+02  0.12456827191E+03  0.93322599563E+02 0.  0.
          5    1    3    3  502    0 -0.85570268319E+02  0.30093773532E+01 -0.20548073633E+03  0.22264575580E+03  0.41800000000E+01 0.  1.
         -5    1    3    3    0  502  0.13359308344E+02  0.75302158894E+01  0.11364351311E+02  0.19539604691E+02  0.41800000000E+01 0.  1.
        -11    1    4    4    0    0 -0.12181590506E+02 -0.10191170869E+02 -0.36885378922E+02  0.40159460768E+02  0.00000000000E+00 0.  1.
         11    1    4    4    0    0  0.84392550481E+02 -0.34842237347E+00 -0.16196988240E+01  0.84408811146E+02  0.00000000000E+00 0. -1.
</event>
<event>
 8    1  0.7136454E-009  0.5452180E+02  0.7561462E-02  0.1422374E+00
          1   -1    0    0  501    0  0.00000000000E+00  0.00000000000E+00  0.22015373863E+02  0.22015373863E+02  0.00000000000E+00 0. -1.
         -1   -1    0    0    0  501 -0.00000000000E+00 -0.00000000000E+00 -0.61625669806E+03  0.61625669806E+03  0.00000000000E+00 0.  1.
         25    2    1    2    0    0 -0.11240557964E+02 -0.33035488242E+02 -0.40134310268E+03  0.42183867098E+03  0.12511548521E+03 0.  0.
         23    2    1    2    0    0  0.11240557964E+02  0.33035488242E+02 -0.19289822152E+03  0.21643340094E+03  0.91738757086E+02 0.  0.
          5    1    3    3  502    0 -0.19849066028E+01  0.73894728189E+00 -0.38118937195E+03  0.38121817321E+03  0.41800000000E+01 0.  1.
         -5    1    3    3    0  502 -0.92556513609E+01 -0.33774435524E+02 -0.20153730733E+02  0.40620497776E+02  0.41800000000E+01 0.  1.
        -11    1    4    4    0    0  0.34483439327E+02  0.89674178112E+01 -0.17479781936E+03  0.17839226391E+03  0.00000000000E+00 0.  1.
         11    1    4    4    0    0 -0.23242881363E+02  0.24068070431E+02 -0.18100402158E+02  0.38041137031E+02  0.00000000000E+00 0. -1.
</event>
<event>
 8    1  0.7136454E-009  0.1785678E+03  0.7561462E-02  0.1169196E+00
         -2   -1    0    0    0  501 -0.00000000000E+00  0.00000000000E+00  0.84136097951E+02  0.84136097951E+02  0.00000000000E+00 0. -1.
          2   -1    0    0  501    0  0.00000000000E+00 -0.00000000000E+00 -0.47144533129E+03  0.47144533129E+03  0.00000000000E+00 0.  1.
         25    2    1    2    0    0  0.15036211555E+03 -0.62452665488E+02 -0.15200405232E+03  0.25546485304E+03  0.12509179827E+03 0.  0.
         23    2    1    2    0    0 -0.15036211555E+03  0.62452665488E+02 -0.23530518102E+03  0.30011657621E+03  0.90511490322E+02 0.  0.
          5    1    3    3  502    0  0.49223867335E+02  0.29427202454E+02 -0.86519227608E+02  0.10388454411E+03  0.41800000000E+01 0. -1.
         -5    1    3    3    0  502  0.10113824822E+03 -0.91879867942E+02 -0.65484824715E+02  0.15158030892E+03  0.41800000000E+01 0. -1.
        -11    1    4    4    0    0 -0.49495715446E+02  0.23658956649E+02 -0.15797564112E+03  0.16723000707E+03  0.00000000000E+00 0.  1.
         11    1    4    4    0    0 -0.10086640011E+03  0.38793708839E+02 -0.77329539892E+02  0.13288656913E+03  0.00000000000E+00 0. -1.
</event>
<event>
 8    1  0.7136454E-009  0.2513298E+03  0.7561462E-02  0.1112467E+00
          1   -1    0    0  501    0  0.00000000000E+00  0.00000000000E+00  0.24691085733E+03  0.24691085733E+03  0.00000000000E+00 0. -1.
         -1   -1    0    0    0  501 -0.00000000000E+00 -0.00000000000E+00 -0.29444477360E+03  0.29444477360E+03  0.00000000000E+00 0.  1.
         25    2    1    2    0    0  0.11625590205E+03  0.20135568650E+03 -0.10617586396E+03  0.28457197951E+03  0.12509336587E+03 0.  0.
         23    2    1    2    0    0 -0.11625590205E+03 -0.20135568650E+03  0.58641947686E+02  0.25678365143E+03  0.91866307010E+02 0.  0.
          5    1    3    3  502    0 -0.22846736748E+02  0.44124770001E+02 -0.13392728921E+01  0.49882208848E+02  0.41800000000E+01 0. -1.
         -5    1    3    3    0  502  0.13910263880E+03  0.15723091650E+03 -0.10483659106E+03  0.23468977066E+03  0.41800000000E+01 0. -1.
        -11    1    4    4    0    0 -0.11278636802E+03 -0.13302113348E+03  0.13733896815E+02  0.17494000882E+03  0.00000000000E+00 0.  1.
         11    1    4    4    0    0 -0.34695340367E+01 -0.68334553022E+02  0.44908050871E+02  0.81843642613E+02  0.00000000000E+00 0. -1.
</event>
<event>
 8    1  0.7136454E-009  0.1003835E+03  0.7561462E-02  0.1279492E+00
         -2   -1    0    0    0  501 -0.00000000000E+00  0.00000000000E+00  0.40677417840E+03  0.40677417840E+03  0.00000000000E+00 0.  1.
          2   -1    0    0  501    0  0.00000000000E+00 -0.00000000000E+00 -0.73476218632E+02  0.73476218632E+02  0.00000000000E+00 0. -1.
         25    2    1    2    0    0 -0.21432343517E+02 -0.86478882405E+02  0.31587966941E+03  0.35123318937E+03  0.12508735073E+03 0.  0.
         23    2    1    2    0    0  0.21432343517E+02  0.86478882405E+02  0.17418290355E+02  0.12901720767E+03  0.91673881691E+02 0.  0.
          5    1    3    3  502    0 -0.12428100520E+02 -0.87210625815E+02  0.93128284131E+02  0.12825950508E+03  0.41800000000E+01 0. -1.
         -5    1    3    3    0  502 -0.90042429961E+01  0.73174340969E+00  0.22275138528E+03  0.22297368429E+03  0.41800000000E+01 0. -1.
        -11    1    4    4    0    0 -0.12374650390E+00  0.80158287747E+02  0.46190439021E+02  0.92514447870E+02  0.00000000000E+00 0.  1.
         11    1    4    4    0    0  0.21556090020E+02  0.63205946577E+01 -0.28772148666E+02  0.36502759795E+02  0.00000000000E+00 0. -1.
</event>
<event>
 8    1  0.7136454E-009  0.1120447E+03  0.7561462E-02  0.1256830E+00
          2   -1    0    0  501    0  0.00000000000E+00  0.00000000000E+00  0.10223135758E+04  0.10223135758E+04  0.00000000000E+00 0. -1.
         -2   -1    0    0    0  501 -0.00000000000E+00 -0.00000000000E+00 -0.24177261226E+02  0.24177261226E+02  0.00000000000E+00 0.  1.
         25    2    1    2    0    0  0.22661149648E+02 -0.10867141418E+03  0.63140635589E+03  0.65318062611E+03  0.12509172677E+03 0.  0.
         23    2    1    2    0    0 -0.22661149648E+02  0.10867141418E+03  0.36672995873E+03  0.39331021097E+03  0.88764043702E+02 0.  0.
          5    1    3    3  502    0  0.25141322433E+02 -0.89637259614E+02  0.19286230766E+03  0.21419679391E+03  0.41800000000E+01 0.  1.
         -5    1    3    3    0  502 -0.24801727843E+01 -0.19034154563E+02  0.43854404823E+03  0.43898383220E+03  0.41800000000E+01 0.  1.
        -11    1    4    4    0    0 -0.13970479779E+02  0.82587494586E+02  0.35257271110E+03  0.36238568568E+03  0.00000000000E+00 0. -1.
         11    1    4    4    0    0 -0.86906698690E+01  0.26083919591E+02  0.14157247631E+02  0.30924525291E+02  0.00000000000E+00 0.  1.
</event>
<event>
 8    1  0.7136454E-009  0.1459909E+03  0.7561462E-02  0.1205488E+00
         -1   -1    0    0    0  501 -0.00000000000E+00  0.00000000000E+00  0.49828287603E+02  0.49828287603E+02  0.00000000000E+00 0.  1.
          1   -1    0    0  501    0  0.00000000000E+00 -0.00000000000E+00 -0.50506258043E+03  0.50506258043E+03  0.00000000000E+00 0. -1.
         25    2    1    2    0    0 -0.10165080047E+03 -0.55134886597E+02 -0.25869210511E+03  0.30973611423E+03  0.12506843829E+03 0.  0.
         23    2    1    2    0    0  0.10165080047E+03  0.55134886597E+02 -0.19654218772E+03  0.24515475380E+03  0.89996004373E+02 0.  0.
          5    1    3    3  502    0 -0.11366121104E+03 -0.18295253909E+00 -0.16585600713E+03  0.20110840825E+03  0.41800000000E+01 0.  1.
         -5    1    3    3    0  502  0.12010410573E+02 -0.54951934058E+02 -0.92836097980E+02  0.10862770598E+03  0.41800000000E+01 0.  1.
        -11    1    4    4    0    0  0.78808498648E+02  0.59291754221E+02 -0.19870861805E+03  0.22183644080E+03  0.00000000000E+00 0. -1.
         11    1    4    4    0    0  0.22842301820E+02 -0.41568676236E+01  0.21664303366E+01  0.23318313002E+02  0.00000000000E+00 0.  1.
</event>
<event>
 8    1  0.7136454E-009  0.1136275E+03  0.7561462E-02  0.1253996E+00
         -2   -1    0    0    0  501 -0.00000000000E+00  0.00000000000E+00  0.25254146408E+02  0.25254146408E+02  0.00000000000E+00 0.  1.
          2   -1    0    0  501    0  0.00000000000E+00 -0.00000000000E+00 -0.56320968995E+03  0.56320968995E+03  0.00000000000E+00 0. -1.
         25    2    1    2    0    0  0.16276518337E+02  0.42296313123E+02 -0.35185674454E+03  0.37617099018E+03  0.12509013558E+03 0.  0.
         23    2    1    2    0    0 -0.16276518337E+02 -0.42296313123E+02 -0.18609879900E+03  0.21229284618E+03  0.91551004341E+02 0.  0.
          5    1    3    3  502    0  0.60412914916E+01 -0.42420937999E+02 -0.75534532779E+02  0.86942344262E+02  0.41800000000E+01 0.  1.
         -5    1    3    3    0  502  0.10235226846E+02  0.84717251122E+02 -0.27632221176E+03  0.28922864592E+03  0.41800000000E+01 0.  1.
        -11    1    4    4    0    0 -0.36722312952E+02  0.13669041824E+02 -0.10164576710E+03  0.10893683005E+03  0.00000000000E+00 0. -1.
         11    1    4    4    0    0  0.20445794615E+02 -0.55965354947E+02 -0.84453031904E+02  0.10335601613E+03  0.00000000000E+00 0.  1.
</event>
<event>
 8    1  0.7136454E-009  0.1544257E+03  0.7561462E-02  0.1195138E+00
         -2   -1    0    0    0  501 -0.00000000000E+00  0.00000000000E+00  0.28723999090E+02  0.28723999090E+02  0.00000000000E+00 0.  1.
          2   -1    0    0  501    0  0.00000000000E+00 -0.00000000000E+00 -0.11859855579E+04  0.11859855579E+04  0.00000000000E+00 0. -1.
         25    2    1    2    0    0  0.12380999935E+03  0.57946040466E+02 -0.80718104294E+03  0.82817637178E+03  0.12509279420E+03 0.  0.
         23    2    1    2    0    0 -0.12380999935E+03 -0.57946040466E+02 -0.35008051589E+03  0.38653318522E+03  0.90359704120E+02 0.  0.
          5    1    3    3  502    0  0.44173389413E+02 -0.27009341929E+02 -0.11408378365E+03  0.12535300146E+03  0.41800000000E+01 0.  1.
         -5    1    3    3    0  502  0.79636609935E+02  0.84955382395E+02 -0.69309725928E+03  0.70282337032E+03  0.41800000000E+01 0.  1.
        -11    1    4    4    0    0 -0.69350050264E+02 -0.49667316866E+02 -0.10471950854E+03  0.13506460419E+03  0.00000000000E+00 0.  1.
         11    1    4    4    0    0 -0.54459949084E+02 -0.82787235996E+01 -0.24536100735E+03  0.25146858103E+03  0.00000000000E+00 0. -1.
</event>
<event>
 8    1  0.7136454E-009  0.1270711E+03  0.7561462E-02  0.1231867E+00
         -2   -1    0    0    0  501 -0.00000000000E+00  0.00000000000E+00  0.14003748693E+03  0.14003748693E+03  0.00000000000E+00 0.  1.
          2   -1    0    0  501    0  0.00000000000E+00 -0.00000000000E+00 -0.12572747673E+03  0.12572747673E+03  0.00000000000E+00 0. -1.
         25    2    1    2    0    0  0.56208239087E+02 -0.50864764710E+02  0.86180999950E+01  0.14651836455E+03  0.12508704598E+03 0.  0.
         23    2    1    2    0    0 -0.56208239087E+02  0.50864764710E+02  0.56919102069E+01  0.11924659912E+03  0.91873625864E+02 0.  0.
          5    1    3    3  502    0 -0.17836509279E+02  0.25968523283E+02 -0.17918594909E+02  0.36483608761E+02  0.41800000000E+01 0. -1.
         -5    1    3    3    0  502  0.74044748366E+02 -0.76833287993E+02  0.26536694904E+02  0.11003475579E+03  0.41800000000E+01 0. -1.
        -11    1    4    4    0    0  0.14033111585E+02  0.42596924895E+02 -0.11828533302E+02  0.46382544468E+02  0.00000000000E+00 0.  1.
         11    1    4    4    0    0 -0.70241350672E+02  0.82678398147E+01  0.17520443509E+02  0.72864054651E+02  0.00000000000E+00 0. -1.
</event>
<event>
 8    1  0.7136454E-009  0.1052855E+03  0.7561462E-02  0.1269558E+00
          2   -1    0    0  501    0  0.00000000000E+00  0.00000000000E+00  0.26287470273E+03  0.26287470273E+03  0.00000000000E+00 0.  1.
         -2   -1    0    0    0  501 -0.00000000000E+00 -0.00000000000E+00 -0.55513960826E+02  0.55513960826E+02  0.00000000000E+00 0. -1.
         25    2    1    2    0    0  0.49786930911E+02 -0.14255197144E+02  0.99441791371E+02  0.16799452853E+03  0.12510612538E+03 0.  0.
         23    2    1    2    0    0 -0.49786930911E+02  0.14255197144E+02  0.10791895054E+03  0.15039413503E+03  0.91049145149E+02 0.  0.
          5    1    3    3  502    0 -0.27501153263E+02 -0.79041637577E+01 -0.12702346735E+02  0.31584984535E+02  0.41800000000E+01 0.  1.
         -5    1    3    3    0  502  0.77288084174E+02 -0.63510333865E+01  0.11214413811E+03  0.13640954399E+03  0.41800000000E+01 0.  1.
        -11    1    4    4    0    0 -0.38471621960E+02  0.51944870732E+02  0.75639453761E+02  0.99497046473E+02  0.00000000000E+00 0. -1.
         11    1    4    4    0    0 -0.11315308950E+02 -0.37689673588E+02  0.32279496775E+02  0.50897088560E+02  0.00000000000E+00 0.  1.
</event>
<event>
 8    1  0.7136454E-009  0.9224567E+02  0.7561462E-02  0.1297503E+00
          2   -1    0    0  501    0  0.00000000000E+00  0.00000000000E+00  0.62918358437E+03  0.62918358437E+03  0.00000000000E+00 0. -1.
         -2   -1    0    0    0  501 -0.00000000000E+00 -0.00000000000E+00 -0.19563945877E+02  0.19563945877E+02  0.00000000000E+00 0.  1.
         25    2    1    2    0    0  0.18847275024E+02 -0.15585018003E+02  0.36308979014E+03  0.38481193406E+03  0.12509163174E+03 0.  0.
         23    2    1    2    0    0 -0.18847275024E+02  0.15585018003E+02  0.24652984835E+03  0.26393559618E+03  0.91032522994E+02 0.  0.
          5    1    3    3  502    0 -0.30039770599E+02  0.21640042793E+02  0.27390945634E+03  0.27643180343E+03  0.41800000000E+01 0.  1.
         -5    1    3    3    0  502  0.48887045623E+02 -0.37225060797E+02  0.89180333798E+02  0.10838013064E+03  0.41800000000E+01 0.  1.
        -11    1    4    4    0    0 -0.42807670415E+02  0.34611260852E+02  0.20555165894E+03  0.21279548989E+03  0.00000000000E+00 0. -1.
         11    1    4    4    0    0  0.23960395392E+02 -0.19026242849E+02  0.40978189403E+02  0.51140106287E+02  0.00000000000E+00 0.  1.
</event>
<event>
 8    1  0.7136454E-009  0.7137700E+02  0.7561462E-02  0.1355472E+00
         -3   -1    0    0    0  501 -0.00000000000E+00  0.00000000000E+00  0.26989768181E+03  0.26989768181E+03  0.00000000000E+00 0.  1.
          3   -1    0    0  501    0  0.00000000000E+00 -0.00000000000E+00 -0.54266997955E+02  0.54266997955E+02  0.00000000000E+00 0. -1.
         25    2    1    2    0    0 -0.17472654376E+01  0.44108619702E+02  0.15117266214E+03  0.20112837012E+03  0.12510325424E+03 0.  0.
         23    2    1    2    0    0  0.17472654376E+01 -0.44108619702E+02  0.64458021719E+02  0.12303630965E+03  0.95049848288E+02 0.  0.
          5    1    3    3  502    0 -0.19466298599E+01  0.14125828452E+02 -0.21326598760E+02  0.25992779996E+02  0.41800000000E+01 0. -1.
         -5    1    3    3    0  502  0.19936442226E+00  0.29982791250E+02  0.17249926090E+03  0.17513559013E+03  0.41800000000E+01 0. -1.
        -11    1    4    4    0    0 -0.42314004684E+02 -0.27846357217E+02  0.10922312098E+02  0.51818833490E+02  0.00000000000E+00 0. -1.
         11    1    4    4    0    0  0.44061270122E+02 -0.16262262485E+02  0.53535709621E+02  0.71217476159E+02  0.00000000000E+00 0.  1.
</event>
<event>
 8    1  0.7136454E-009  0.3129316E+03  0.7561462E-02  0.1078949E+00
          1   -1    0    0  501    0  0.00000000000E+00  0.00000000000E+00  0.10055428307E+04  0.10055428307E+04  0.00000000000E+00 0. -1.
         -1   -1    0    0    0  501 -0.00000000000E+00 -0.00000000000E+00 -0.10017064331E+03  0.10017064331E+03  0.00000000000E+00 0.  1.
         25    2    1    2    0    0 -0.29656173849E+03 -0.23410965712E+02  0.43866688141E+03  0.54458517886E+03  0.12508975233E+03 0.  0.
         23    2    1    2    0    0  0.29656173849E+03  0.23410965712E+02  0.46670530603E+03  0.56112829519E+03  0.92488826003E+02 0.  0.
          5    1    3    3  502    0 -0.16364850422E+03  0.49509802919E+02  0.23613023654E+03  0.29155962431E+03  0.41800000000E+01 0. -1.
         -5    1    3    3    0  502 -0.13291323427E+03 -0.72920768631E+02  0.20253664487E+03  0.25302555455E+03  0.41800000000E+01 0. -1.
        -11    1    4    4    0    0  0.82510795719E+02 -0.19697442449E+02  0.77717377337E+02  0.11504786564E+03  0.00000000000E+00 0.  1.
         11    1    4    4    0    0  0.21405094277E+03  0.43108408161E+02  0.38898792869E+03  0.44608042954E+03  0.00000000000E+00 0. -1.
</event>
<event>
 8    1  0.7136454E-009  0.9784125E+02  0.7561462E-02  0.1284902E+00
         -3   -1    0    0    0  501 -0.00000000000E+00  0.00000000000E+00  0.12089537418E+03  0.12089537418E+03  0.00000000000E+00 0.  1.
          3   -1    0    0  501    0  0.00000000000E+00 -0.00000000000E+00 -0.12652802907E+03  0.12652802907E+03  0.00000000000E+00 0. -1.
         25    2    1    2    0    0  0.51122150156E+02 -0.33790859793E+02 -0.91311397949E+01  0.13959424560E+03  0.12509148352E+03 0.  0.
         23    2    1    2    0    0 -0.51122150156E+02  0.33790859793E+02  0.34984849090E+01  0.10782915766E+03  0.88654336624E+02 0.  0.
          5    1    3    3  502    0 -0.36841905087E+02 -0.27205280636E+02 -0.20880873382E+02  0.50506796949E+02  0.41800000000E+01 0. -1.
         -5    1    3    3    0  502  0.87964055242E+02 -0.65855791575E+01  0.11749733587E+02  0.89087448649E+02  0.41800000000E+01 0. -1.
        -11    1    4    4    0    0 -0.23886340141E+02  0.17933384432E+02  0.46043186886E+02  0.54882953466E+02  0.00000000000E+00 0.  1.
         11    1    4    4    0    0 -0.27235810014E+02  0.15857475361E+02 -0.42544701977E+02  0.52946204191E+02  0.00000000000E+00 0. -1.
</event>
<event>
 8    1  0.7136454E-009  0.1072943E+03  0.7561462E-02  0.1265664E+00
          1   -1    0    0  501    0  0.00000000000E+00  0.00000000000E+00  0.10501237493E+03  0.10501237493E+03  0.00000000000E+00 0. -1.
         -1   -1    0    0    0  501 -0.00000000000E+00 -0.00000000000E+00 -0.19395566075E+03  0.19395566075E+03  0.00000000000E+00 0.  1.
         25    2    1    2    0    0 -0.26444307488E+02 -0.37306438696E+02  0.36051920004E+02  0.13797961745E+03  0.12509021596E+03 0.  0.
         23    2    1    2    0    0  0.26444307488E+02  0.37306438696E+02 -0.12499520582E+03  0.16098841823E+03  0.90567088725E+02 0.  0.
          5    1    3    3  502    0  0.44581959085E+02  0.11850514232E+02  0.17626442327E+02  0.49559556420E+02  0.41800000000E+01 0.  1.
         -5    1    3    3    0  502 -0.71026266573E+02 -0.49156952928E+02  0.18425477676E+02  0.88420061027E+02  0.41800000000E+01 0.  1.
        -11    1    4    4    0    0  0.22373794497E+02  0.57233873957E+02 -0.39371712389E+02  0.72982427643E+02  0.00000000000E+00 0. -1.
         11    1    4    4    0    0  0.40705129910E+01 -0.19927435261E+02 -0.85623493430E+02  0.88005990587E+02  0.00000000000E+00 0.  1.
</event>
<event>
 8    1  0.7136454E-009  0.1235311E+03  0.7561462E-02  0.1237383E+00
          4   -1    0    0  501    0  0.00000000000E+00  0.00000000000E+00  0.22009256122E+03  0.22009256122E+03  0.00000000000E+00 0. -1.
         -4   -1    0    0    0  501 -0.00000000000E+00 -0.00000000000E+00 -0.97611358147E+02  0.97611358147E+02  0.00000000000E+00 0.  1.
         25    2    1    2    0    0 -0.39420116763E+02 -0.70221017391E+02  0.12702067594E+03  0.19561780626E+03  0.12508851714E+03 0.  0.
         23    2    1    2    0    0  0.39420116763E+02  0.70221017391E+02 -0.45394728750E+01  0.12208611310E+03  0.91648651427E+02 0.  0.
          5    1    3    3  502    0 -0.47122231472E+02  0.84409958941E+01  0.25605166700E+01  0.48122590913E+02  0.41800000000E+01 0.  1.
         -5    1    3    3    0  502  0.77021147090E+01 -0.78662013285E+02  0.12446015927E+03  0.14749521535E+03  0.41800000000E+01 0.  1.
        -11    1    4    4    0    0  0.68211376086E+02  0.52199771883E+02  0.70877458074E+01  0.86184941566E+02  0.00000000000E+00 0.  1.
         11    1    4    4    0    0 -0.28791259323E+02  0.18021245508E+02 -0.11627218682E+02  0.35901171532E+02  0.00000000000E+00 0. -1.
</event>
<event>
 8    1  0.7136454E-009  0.9271589E+02  0.7561462E-02  0.1296405E+00
         -2   -1    0    0    0  501 -0.00000000000E+00  0.00000000000E+00  0.45459822015E+03  0.45459822015E+03  0.00000000000E+00 0.  1.
          2   -1    0    0  501    0  0.00000000000E+00 -0.00000000000E+00 -0.39418126272E+02  0.39418126272E+02  0.00000000000E+00 0. -1.
         25    2    1    2    0    0  0.17430084344E+02 -0.58430662634E+02  0.32154833494E+03  0.35037258246E+03  0.12509861972E+03 0.  0.
         23    2    1    2    0    0 -0.17430084344E+02  0.58430662634E+02  0.93631758932E+02  0.14364376396E+03  0.90270008691E+02 0.  0.
          5    1    3    3  502    0 -0.27720908969E+02 -0.98851100830E+01  0.25364111753E+03  0.25537708021E+03  0.41800000000E+01 0. -1.
         -5    1    3    3    0  502  0.45150993314E+02 -0.48545552551E+02  0.67907217412E+02  0.94995502242E+02  0.41800000000E+01 0. -1.
        -11    1    4    4    0    0 -0.13611121999E+02  0.72978240602E+02  0.33118066734E+02  0.81288945052E+02  0.00000000000E+00 0.  1.
         11    1    4    4    0    0 -0.38189623454E+01 -0.14547577968E+02  0.60513692198E+02  0.62354818912E+02  0.00000000000E+00 0. -1.
</event>
<event>
 8    1  0.7136454E-009  0.1683587E+03  0.7561462E-02  0.1179570E+00
         -1   -1    0    0    0  501 -0.00000000000E+00  0.00000000000E+00  0.29958918098E+03  0.29958918098E+03  0.00000000000E+00 0.  1.
          1   -1    0    0  501    0  0.00000000000E+00 -0.00000000000E+00 -0.13277374513E+03  0.13277374513E+03  0.00000000000E+00 0. -1.
         25    2    1    2    0    0 -0.86008590172E+02  0.11400243614E+03  0.17989680382E+03  0.26154245994E+03  0.12509022861E+03 0.  0.
         23    2    1    2    0    0  0.86008590172E+02 -0.11400243614E+03 -0.13081367969E+02  0.17082046618E+03  0.92814203905E+02 0.  0.
          5    1    3    3  502    0 -0.49284809097E+02  0.12487986493E+03  0.17796727967E+03  0.22296591244E+03  0.41800000000E+01 0. -1.
         -5    1    3    3    0  502 -0.36723781075E+02 -0.10877428792E+02  0.19295241504E+01  0.38576547500E+02  0.41800000000E+01 0. -1.
        -11    1    4    4    0    0  0.11957590107E+02  0.12493637967E+02  0.13390947287E+02  0.21872183705E+02  0.00000000000E+00 0.  1.
         11    1    4    4    0    0  0.74051000066E+02 -0.12649607411E+03 -0.26472315256E+02  0.14894828247E+03  0.00000000000E+00 0. -1.
</event>
<event>
 8    1  0.7136454E-009  0.8710365E+02  0.7561462E-02  0.1310021E+00
          1   -1    0    0  501    0  0.00000000000E+00  0.00000000000E+00  0.26089062831E+02  0.26089062831E+02  0.00000000000E+00 0. -1.
         -1   -1    0    0    0  501 -0.00000000000E+00 -0.00000000000E+00 -0.49866818390E+03  0.49866818390E+03  0.00000000000E+00 0.  1.
         25    2    1    2    0    0  0.22929704451E+02  0.27458406719E+02 -0.30710635938E+03  0.33352807255E+03  0.12508766431E+03 0.  0.
         23    2    1    2    0    0 -0.22929704451E+02 -0.27458406719E+02 -0.16547276168E+03  0.19122917417E+03  0.88924837649E+02 0.  0.
          5    1    3    3  502    0  0.45945704993E+02  0.40541064924E+01 -0.29449743238E+03  0.29811684566E+03  0.41800000000E+01 0. -1.
         -5    1    3    3    0  502 -0.23016000542E+02  0.23404300227E+02 -0.12608927004E+02  0.35411226896E+02  0.41800000000E+01 0. -1.
        -11    1    4    4    0    0 -0.56762560501E+02 -0.14603122001E+02 -0.88173100228E+02  0.10587603624E+03  0.00000000000E+00 0. -1.
         11    1    4    4    0    0  0.33832856050E+02 -0.12855284719E+02 -0.77299661455E+02  0.85353137931E+02  0.00000000000E+00 0.  1.
</event>
<event>
 8    1  0.7136454E-009  0.1190779E+03  0.7561462E-02  0.1244626E+00
         -2   -1    0    0    0  501 -0.00000000000E+00  0.00000000000E+00  0.39977017233E+02  0.39977017233E+02  0.00000000000E+00 0.  1.
          2   -1    0    0  501    0  0.00000000000E+00 -0.00000000000E+00 -0.39494026443E+03  0.39494026443E+03  0.00000000000E+00 0. -1.
         25    2    1    2    0    0  0.37598638127E+02  0.38302077134E+02 -0.25309923987E+03  0.28738119799E+03  0.12509205025E+03 0.  0.
         23    2    1    2    0    0 -0.37598638127E+02 -0.38302077134E+02 -0.10186400733E+03  0.14753608367E+03  0.92249191292E+02 0.  0.
          5    1    3    3  502    0  0.52975299165E+02 -0.33041036784E+02 -0.12836729718E+03  0.14280660986E+03  0.41800000000E+01 0.  1.
         -5    1    3    3    0  502 -0.15376661038E+02  0.71343113919E+02 -0.12473194269E+03  0.14457458814E+03  0.41800000000E+01 0.  1.
        -11    1    4    4    0    0 -0.63337653041E+02 -0.42674534229E+02 -0.55791310165E+02  0.94580359770E+02  0.00000000000E+00 0.  1.
         11    1    4    4    0    0  0.25739014914E+02  0.43724570946E+01 -0.46072697167E+02  0.52955723902E+02  0.00000000000E+00 0. -1.
</event>
<event>
 8    1  0.7136454E-009  0.1247300E+03  0.7561462E-02  0.1235492E+00
          1   -1    0    0  501    0  0.00000000000E+00  0.00000000000E+00  0.11967618595E+03  0.11967618595E+03  0.00000000000E+00 0. -1.
         -1   -1    0    0    0  501 -0.00000000000E+00 -0.00000000000E+00 -0.17493704377E+03  0.17493704377E+03  0.00000000000E+00 0.  1.
         25    2    1    2    0    0 -0.71632912622E+02  0.27795312986E+02  0.22732176730E+02  0.14855403801E+03  0.12509075408E+03 0.  0.
         23    2    1    2    0    0  0.71632912622E+02 -0.27795312986E+02 -0.77993034553E+02  0.14605919171E+03  0.96677404024E+02 0.  0.
          5    1    3    3  502    0 -0.40466508178E+02 -0.38514809422E+02  0.45005399811E+02  0.71860192326E+02  0.41800000000E+01 0. -1.
         -5    1    3    3    0  502 -0.31166404443E+02  0.66310122408E+02 -0.22273223081E+02  0.76693845686E+02  0.41800000000E+01 0. -1.
        -11    1    4    4    0    0  0.14795340628E+02  0.33400784246E+02 -0.40406378093E+02  0.54471918299E+02  0.00000000000E+00 0.  1.
         11    1    4    4    0    0  0.56837571993E+02 -0.61196097232E+02 -0.37586656460E+02  0.91587273409E+02  0.00000000000E+00 0. -1.
</event>
<event>
 8    1  0.7136454E-009  0.9923302E+02  0.7561462E-02  0.1281917E+00
          1   -1    0    0  501    0  0.00000000000E+00  0.00000000000E+00  0.18730561369E+04  0.18730561369E+04  0.00000000000E+00 0. -1.
         -1   -1    0    0    0  501 -0.00000000000E+00 -0.00000000000E+00 -0.10170035780E+02  0.10170035780E+02  0.00000000000E+00 0.  1.
         25    2    1    2    0    0 -0.37342050019E+02  0.68615265202E+02  0.12418642421E+04  0.12505904287E+04  0.12508853320E+03 0.  0.
         23    2    1    2    0    0  0.37342050019E+02 -0.68615265202E+02  0.62102185904E+03  0.63263574404E+03  0.91963861987E+02 0.  0.
          5    1    3    3  502    0 -0.22904736141E+02  0.40276296780E+02  0.12680000089E+03  0.13506487199E+03  0.41800000000E+01 0. -1.
         -5    1    3    3    0  502 -0.14437313878E+02  0.28338968422E+02  0.11150642412E+04  0.11155255567E+04  0.41800000000E+01 0. -1.
        -11    1    4    4    0    0 -0.29689589910E+02 -0.31328439842E+02  0.25965335061E+03  0.26321627111E+03  0.00000000000E+00 0. -1.
         11    1    4    4    0    0  0.67031639929E+02 -0.37286825360E+02  0.36136850843E+03  0.36941947293E+03  0.00000000000E+00 0.  1.
</event>
<event>
 8    1  0.7136454E-009  0.1003160E+03  0.7561462E-02  0.1279633E+00
          2   -1    0    0  501    0  0.00000000000E+00  0.00000000000E+00  0.39082373986E+02  0.39082373986E+02  0.00000000000E+00 0. -1.
         -2   -1    0    0    0  501 -0.00000000000E+00 -0.00000000000E+00 -0.29880810014E+03  0.29880810014E+03  0.00000000000E+00 0.  1.
         25    2    1    2    0    0 -0.21707474924E+02 -0.36545156885E+01 -0.16488556448E+03  0.20813336974E+03  0.12509068820E+03 0.  0.
         23    2    1    2    0    0  0.21707474924E+02  0.36545156885E+01 -0.94840161677E+02  0.12975710438E+03  0.85776919498E+02 0.  0.
          5    1    3    3  502    0 -0.66858599625E+02 -0.78456276989E+00 -0.47114457321E+02  0.81901968055E+02  0.41800000000E+01 0.  1.
         -5    1    3    3    0  502  0.45151124701E+02 -0.28699529186E+01 -0.11777110716E+03  0.12623140169E+03  0.41800000000E+01 0.  1.
        -11    1    4    4    0    0 -0.27844925275E+02  0.21872377661E+02 -0.32471616657E+02  0.48043174920E+02  0.00000000000E+00 0.  1.
         11    1    4    4    0    0  0.49552400199E+02 -0.18217861972E+02 -0.62368545020E+02  0.81713929463E+02  0.00000000000E+00 0. -1.
</event>
<event>
 8    1  0.7136454E-009  0.1129494E+03  0.7561462E-02  0.1255203E+00
         -2   -1    0    0    0  501 -0.00000000000E+00  0.00000000000E+00  0.83616971486E+02  0.83616971486E+02  0.00000000000E+00 0. -1.
          2   -1    0    0  501    0  0.00000000000E+00 -0.00000000000E+00 -0.17882474421E+03  0.17882474421E+03  0.00000000000E+00 0.  1.
         25    2    1    2    0    0 -0.88894914923E+01 -0.46175684285E+02 -0.17724425459E+02  0.13480792098E+03  0.12509118044E+03 0.  0.
         23    2    1    2    0    0  0.88894914923E+01  0.46175684285E+02 -0.77483347263E+02  0.12763379471E+03  0.89863783427E+02 0.  0.
          5    1    3    3  502    0  0.57220823685E+02 -0.10786398621E+02 -0.45210316632E+01  0.58553233777E+02  0.41800000000E+01 0. -1.
         -5    1    3    3    0  502 -0.66110315178E+02 -0.35389285664E+02 -0.13203393796E+02  0.76254687203E+02  0.41800000000E+01 0. -1.
        -11    1    4    4    0    0  0.36213767726E+02 -0.28139610159E+01 -0.60746543733E+01  0.36827391643E+02  0.00000000000E+00 0. -1.
         11    1    4    4    0    0 -0.27324276233E+02  0.48989645301E+02 -0.71408692890E+02  0.90806403070E+02  0.00000000000E+00 0.  1.
</event>
<event>
 8    1  0.7136454E-009  0.1207310E+03  0.7561462E-02  0.1241896E+00
          2   -1    0    0  501    0  0.00000000000E+00  0.00000000000E+00  0.48155565559E+03  0.48155565559E+03  0.00000000000E+00 0. -1.
         -2   -1    0    0    0  501 -0.00000000000E+00 -0.00000000000E+00 -0.32911492745E+02  0.32911492745E+02  0.00000000000E+00 0.  1.
         25    2    1    2    0    0  0.11246954377E+02  0.64239111741E+02  0.26156652296E+03  0.29718305513E+03  0.12509022688E+03 0.  0.
         23    2    1    2    0    0 -0.11246954377E+02 -0.64239111741E+02  0.18707763988E+03  0.21728409321E+03  0.89225424385E+02 0.  0.
          5    1    3    3  502    0  0.48104397272E+02 -0.12506357788E+02  0.58043649152E+02  0.76530906364E+02  0.41800000000E+01 0. -1.
         -5    1    3    3    0  502 -0.36857442896E+02  0.76745469529E+02  0.20352287381E+03  0.22065214876E+03  0.41800000000E+01 0. -1.
        -11    1    4    4    0    0  0.35315677074E+02 -0.14402904284E+02  0.40591076951E+02  0.55698081000E+02  0.00000000000E+00 0.  1.
         11    1    4    4    0    0 -0.46562631451E+02 -0.49836207457E+02  0.14648656293E+03  0.16158601221E+03  0.00000000000E+00 0. -1.
</event>
<event>
 8    1  0.7136454E-009  0.6172110E+02  0.7561462E-02  0.1390748E+00
          2   -1    0    0  501    0  0.00000000000E+00  0.00000000000E+00  0.63565762017E+02  0.63565762017E+02  0.00000000000E+00 0. -1.
         -2   -1    0    0    0  501 -0.00000000000E+00 -0.00000000000E+00 -0.21189948111E+03  0.21189948111E+03  0.00000000000E+00 0.  1.
         25    2    1    2    0    0  0.36671916672E+02  0.30870693262E+02 -0.91744844196E+02  0.16236431375E+03  0.12508886748E+03 0.  0.
         23    2    1    2    0    0 -0.36671916672E+02 -0.30870693262E+02 -0.56588874896E+02  0.11310092938E+03  0.85391394700E+02 0.  0.
          5    1    3    3  502    0  0.23611656463E+02 -0.51549975474E+01  0.27615034011E+02  0.36934358314E+02  0.41800000000E+01 0.  1.
         -5    1    3    3    0  502  0.13060260209E+02  0.36025690809E+02 -0.11935987821E+03  0.12542995544E+03  0.41800000000E+01 0.  1.
        -11    1    4    4    0    0 -0.76963955979E+01 -0.30431236187E+02  0.15789425966E+02  0.35136883946E+02  0.00000000000E+00 0. -1.
         11    1    4    4    0    0 -0.28975521074E+02 -0.43945707432E+00 -0.72378300862E+02  0.77964045429E+02  0.00000000000E+00 0.  1.
</event>
<event>
 8    1  0.7136454E-009  0.1847307E+03  0.7561462E-02  0.1163302E+00
          2   -1    0    0  501    0  0.00000000000E+00  0.00000000000E+00  0.11846104760E+04  0.11846104760E+04  0.00000000000E+00 0.  1.
         -2   -1    0    0    0  501 -0.00000000000E+00 -0.00000000000E+00 -0.33327383422E+02  0.33327383422E+02  0.00000000000E+00 0. -1.
         25    2    1    2    0    0  0.37681316600E+02  0.16201099762E+03  0.59646796071E+03  0.63173415741E+03  0.12508626028E+03 0.  0.
         23    2    1    2    0    0 -0.37681316600E+02 -0.16201099762E+03  0.55481513184E+03  0.58620370199E+03  0.90263529360E+02 0.  0.
          5    1    3    3  502    0 -0.30487778235E+02  0.20817326954E+02  0.23192374238E+03  0.23488073655E+03  0.41800000000E+01 0.  1.
         -5    1    3    3    0  502  0.68169094835E+02  0.14119367067E+03  0.36454421833E+03  0.39685342086E+03  0.41800000000E+01 0.  1.
        -11    1    4    4    0    0 -0.43917371459E+02 -0.66154623243E+02  0.14538676337E+03  0.16565772139E+03  0.00000000000E+00 0. -1.
         11    1    4    4    0    0  0.62360548591E+01 -0.95856374379E+02  0.40942836847E+03  0.42054598060E+03  0.00000000000E+00 0.  1.
</event>
<event>
 8    1  0.7136454E-009  0.1086950E+03  0.7561462E-02  0.1263006E+00
         -1   -1    0    0    0  501 -0.00000000000E+00  0.00000000000E+00  0.15116034065E+03  0.15116034065E+03  0.00000000000E+00 0.  1.
          1   -1    0    0  501    0  0.00000000000E+00 -0.00000000000E+00 -0.11609432723E+03  0.11609432723E+03  0.00000000000E+00 0. -1.
         25    2    1    2    0    0  0.16478129959E+02 -0.46942690878E+02  0.77456143800E+02  0.15531437925E+03  0.12509179508E+03 0.  0.
         23    2    1    2    0    0 -0.16478129959E+02  0.46942690878E+02 -0.42390130382E+02  0.11194028863E+03  0.90876620043E+02 0.  0.
          5    1    3    3  502    0  0.37894159114E+02  0.20872979994E+02 -0.78569880262E+01  0.44168464424E+02  0.41800000000E+01 0. -1.
         -5    1    3    3    0  502 -0.21416029155E+02 -0.67815670871E+02  0.85313131826E+02  0.11114591483E+03  0.41800000000E+01 0. -1.
        -11    1    4    4    0    0 -0.48337034579E+02  0.51352873577E+02 -0.35876465863E+02  0.79124631685E+02  0.00000000000E+00 0. -1.
         11    1    4    4    0    0  0.31858904620E+02 -0.44101826994E+01 -0.65136645195E+01  0.32815656942E+02  0.00000000000E+00 0.  1.
</event>
<event>
 8    1  0.7136454E-009  0.1010160E+03  0.7561462E-02  0.1278174E+00
         -2   -1    0    0    0  501 -0.00000000000E+00  0.00000000000E+00  0.22916426284E+03  0.22916426284E+03  0.00000000000E+00 0.  1.
          2   -1    0    0  501    0  0.00000000000E+00 -0.00000000000E+00 -0.63874775711E+02  0.63874775711E+02  0.00000000000E+00 0. -1.
         25    2    1    2    0    0 -0.21826338580E+02 -0.18728106849E+02  0.34952263510E+02  0.13302736564E+03  0.12508992062E+03 0.  0.
         23    2    1    2    0    0  0.21826338580E+02  0.18728106849E+02  0.13033722362E+03  0.16001167291E+03  0.88254249564E+02 0.  0.
          5    1    3    3  502    0 -0.48173808601E+02  0.36047308628E+02 -0.44398439150E+01  0.60475688574E+02  0.41800000000E+01 0.  1.
         -5    1    3    3    0  502  0.26347470021E+02 -0.54775415477E+02  0.39392107425E+02  0.72551677062E+02  0.41800000000E+01 0.  1.
        -11    1    4    4    0    0  0.42160204465E+02  0.34964533017E+02  0.12019053987E+03  0.13208242610E+03  0.00000000000E+00 0.  1.
         11    1    4    4    0    0 -0.20333865885E+02 -0.16236426168E+02  0.10146683745E+02  0.27929246813E+02  0.00000000000E+00 0. -1.
</event>
<event>
 8    1  0.7136454E-009  0.1503648E+03  0.7561462E-02  0.1200026E+00
          1   -1    0    0  501    0  0.00000000000E+00  0.00000000000E+00  0.45899871773E+03  0.45899871773E+03  0.00000000000E+00 0. -1.
         -1   -1    0    0    0  501 -0.00000000000E+00 -0.00000000000E+00 -0.74385111510E+02  0.74385111510E+02  0.00000000000E+00 0.  1.
         25    2    1    2    0    0  0.11758204353E+03 -0.65635953255E+02  0.11238157712E+03  0.21543075135E+03  0.12508866628E+03 0.  0.
         23    2    1    2    0    0 -0.11758204353E+03  0.65635953255E+02  0.27223202909E+03  0.31795307789E+03  0.94075856376E+02 0.  0.
          5    1    3    3  502    0  0.13023105605E+02 -0.50457294588E+02 -0.10496281898E+02  0.53321517143E+02  0.41800000000E+01 0.  1.
         -5    1    3    3    0  502  0.10455893792E+03 -0.15178658667E+02  0.12287785902E+03  0.16210923421E+03  0.41800000000E+01 0.  1.
        -11    1    4    4    0    0 -0.32599201792E+02  0.44462744910E+02  0.35585178834E+02  0.65619727179E+02  0.00000000000E+00 0.  1.
         11    1    4    4    0    0 -0.84982841734E+02  0.21173208345E+02  0.23664685026E+03  0.25233335071E+03  0.00000000000E+00 0. -1.
</event>
<event>
 8    1  0.7136454E-009  0.7658141E+02  0.7561462E-02  0.1339043E+00
          4   -1    0    0  501    0  0.00000000000E+00  0.00000000000E+00  0.73429159646E+02  0.73429159646E+02  0.00000000000E+00 0. -1.
         -4   -1    0    0    0  501 -0.00000000000E+00 -0.00000000000E+00 -0.21327177138E+03  0.21327177138E+03  0.00000000000E+00 0.  1.
         25    2    1    2    0    0  0.45805298296E+01 -0.55904934010E+02 -0.49282976440E+02  0.14567806474E+03  0.12508774472E+03 0.  0.
         23    2    1    2    0    0 -0.45805298296E+01  0.55904934010E+02 -0.90559635290E+02  0.14102286628E+03  0.92412436235E+02 0.  0.
          5    1    3    3  502    0  0.10352272661E+02 -0.30885836649E+02  0.40534479170E+02  0.52169156178E+02  0.41800000000E+01 0.  1.
         -5    1    3    3    0  502 -0.57717428318E+01 -0.25019097360E+02 -0.89817455609E+02  0.93508908560E+02  0.41800000000E+01 0.  1.
        -11    1    4    4    0    0  0.29838078262E+02  0.14333663500E+01 -0.65310509842E+02  0.71818021062E+02  0.00000000000E+00 0.  1.
         11    1    4    4    0    0 -0.34418608091E+02  0.54471567660E+02 -0.25249125448E+02  0.69204845222E+02  0.00000000000E+00 0. -1.
</event>
<event>
 8    1  0.7136454E-009  0.1585926E+03  0.7561462E-02  0.1190295E+00
          2   -1    0    0  501    0  0.00000000000E+00  0.00000000000E+00  0.56672013380E+03  0.56672013380E+03  0.00000000000E+00 0. -1.
         -2   -1    0    0    0  501 -0.00000000000E+00 -0.00000000000E+00 -0.57079511384E+02  0.57079511384E+02  0.00000000000E+00 0.  1.
         25    2    1    2    0    0 -0.48601035414E+02 -0.13740422819E+03  0.26581272686E+03  0.32794457064E+03  0.12509697472E+03 0.  0.
         23    2    1    2    0    0  0.48601035414E+02  0.13740422819E+03  0.24382789555E+03  0.29585507454E+03  0.82681315374E+02 0.  0.
          5    1    3    3  502    0 -0.74300134965E+01 -0.17448596963E+01 -0.12701662481E+02  0.15396566686E+02  0.41800000000E+01 0. -1.
         -5    1    3    3    0  502 -0.41171021917E+02 -0.13565936850E+03  0.27851438934E+03  0.31254800396E+03  0.41800000000E+01 0. -1.
        -11    1    4    4    0    0  0.16747118458E+02  0.13351585251E+03  0.20826369571E+03  0.24795305160E+03  0.00000000000E+00 0.  1.
         11    1    4    4    0    0  0.31853916956E+02  0.38883756810E+01  0.35564199843E+02  0.47902022936E+02  0.00000000000E+00 0. -1.
</event>
<event>
 8    1  0.7136454E-009  0.9371861E+02  0.7561462E-02  0.1294088E+00
          1   -1    0    0  501    0  0.00000000000E+00  0.00000000000E+00  0.18385033072E+03  0.18385033072E+03  0.00000000000E+00 0. -1.
         -1   -1    0    0    0  501 -0.00000000000E+00 -0.00000000000E+00 -0.97842968035E+02  0.97842968035E+02  0.00000000000E+00 0.  1.
         25    2    1    2    0    0  0.17715744567E+02 -0.60118671637E+02 -0.21552438237E+01  0.13991181774E+03  0.12507025778E+03 0.  0.
         23    2    1    2    0    0 -0.17715744567E+02  0.60118671637E+02  0.88162606505E+02  0.14178148101E+03  0.91658283248E+02 0.  0.
          5    1    3    3  502    0 -0.21103010752E+02 -0.34655481804E+02  0.53525178322E+02  0.67296037003E+02  0.41800000000E+01 0.  1.
         -5    1    3    3    0  502  0.38818755319E+02 -0.25463189833E+02 -0.55680422146E+02  0.72615780732E+02  0.41800000000E+01 0.  1.
        -11    1    4    4    0    0 -0.48456704346E+02  0.29962609376E+02  0.79580927676E+02  0.97872029745E+02  0.00000000000E+00 0.  1.
         11    1    4    4    0    0  0.30740959779E+02  0.30156062262E+02  0.85816788292E+01  0.43909451270E+02  0.00000000000E+00 0. -1.
</event>
<event>
 8    1  0.7136454E-009  0.1817649E+03  0.7561462E-02  0.1166106E+00
          1   -1    0    0  501    0  0.00000000000E+00  0.00000000000E+00  0.77362766925E+02  0.77362766925E+02  0.00000000000E+00 0. -1.
         -1   -1    0    0    0  501 -0.00000000000E+00 -0.00000000000E+00 -0.50231445272E+03  0.50231445272E+03  0.00000000000E+00 0.  1.
         25    2    1    2    0    0 -0.14696600366E+03  0.38484122618E+02 -0.31125111191E+03  0.36824479795E+03  0.12508773972E+03 0.  0.
         23    2    1    2    0    0  0.14696600366E+03 -0.38484122618E+02 -0.11370057388E+03  0.21143242169E+03  0.93251351274E+02 0.  0.
          5    1    3    3  502    0 -0.58653215025E+02 -0.39203580292E+02 -0.17178442984E+03  0.18575382385E+03  0.41800000000E+01 0.  1.
         -5    1    3    3    0  502 -0.88312788637E+02  0.77687702910E+02 -0.13946668207E+03  0.18249097410E+03  0.41800000000E+01 0.  1.
        -11    1    4    4    0    0  0.11611414743E+03  0.11227631826E+02 -0.56532262988E+02  0.12963198567E+03  0.00000000000E+00 0.  1.
         11    1    4    4    0    0  0.30851856233E+02 -0.49711754444E+02 -0.57168310893E+02  0.81800436021E+02  0.00000000000E+00 0. -1.
</event>
<event>
 8    1  0.7136454E-009  0.9587535E+02  0.7561462E-02  0.1289217E+00
          4   -1    0    0  501    0  0.00000000000E+00  0.00000000000E+00  0.12456395139E+04  0.12456395139E+04  0.00000000000E+00 0.  1.
         -4   -1    0    0    0  501 -0.00000000000E+00 -0.00000000000E+00 -0.11212459488E+02  0.11212459488E+02  0.00000000000E+00 0. -1.
         25    2    1    2    0    0  0.15413607592E+01  0.12442741362E+02  0.96465033819E+03  0.97280781428E+03  0.12509025118E+03 0.  0.
         23    2    1    2    0    0 -0.15413607592E+01 -0.12442741362E+02  0.26977671619E+03  0.28404415908E+03  0.88002330103E+02 0.  0.
          5    1    3    3  502    0 -0.70723604275E+01  0.57118637424E+02  0.24482733319E+03  0.25153618527E+03  0.41800000000E+01 0.  1.
         -5    1    3    3    0  502  0.86137211867E+01 -0.44675896063E+02  0.71982300500E+03  0.72127162901E+03  0.41800000000E+01 0.  1.
        -11    1    4    4    0    0 -0.42079251294E+02 -0.20837541337E+02  0.15882825771E+03  0.16562391725E+03  0.00000000000E+00 0. -1.
         11    1    4    4    0    0  0.40537890535E+02  0.83947999755E+01  0.11094845848E+03  0.11842024183E+03  0.00000000000E+00 0.  1.
</event>
<event>
 8    1  0.7136454E-009  0.8646464E+02  0.7561462E-02  0.1311646E+00
          1   -1    0    0  501    0  0.00000000000E+00  0.00000000000E+00  0.19392225752E+03  0.19392225752E+03  0.00000000000E+00 0. -1.
         -1   -1    0    0    0  501 -0.00000000000E+00 -0.00000000000E+00 -0.10217404793E+03  0.10217404793E+03  0.00000000000E+00 0.  1.
         25    2    1    2    0    0 -0.11304798014E+02  0.23036995274E+02 -0.40371200057E+02  0.13392495216E+03  0.12509019709E+03 0.  0.
         23    2    1    2    0    0  0.11304798014E+02 -0.23036995274E+02  0.13211940965E+03  0.16217135329E+03  0.90473796280E+02 0.  0.
          5    1    3    3  502    0 -0.41916821508E+02 -0.36807693658E+02 -0.35811882851E+02  0.66421303744E+02  0.41800000000E+01 0. -1.
         -5    1    3    3    0  502  0.30612023494E+02  0.59844688932E+02 -0.45593172063E+01  0.67503648413E+02  0.41800000000E+01 0. -1.
        -11    1    4    4    0    0 -0.13068050706E+02  0.35799358108E+01 -0.91599016312E+01  0.16355234255E+02  0.00000000000E+00 0.  1.
         11    1    4    4    0    0  0.24372848720E+02 -0.26616931085E+02  0.14127931128E+03  0.14581611904E+03  0.00000000000E+00 0. -1.
</event>
<event>
 8    1  0.7136454E-009  0.1661318E+03  0.7561462E-02  0.1181943E+00
          2   -1    0    0  501    0  0.00000000000E+00  0.00000000000E+00  0.76366328617E+02  0.76366328617E+02  0.00000000000E+00 0. -1.
         -2   -1    0    0    0  501 -0.00000000000E+00 -0.00000000000E+00 -0.39062021145E+03  0.39062021145E+03  0.00000000000E+00 0.  1.
         25    2    1    2    0    0  0.74479409676E+02  0.11214257058E+03 -0.15378872040E+03  0.23962775713E+03  0.12508937949E+03 0.  0.
         23    2    1    2    0    0 -0.74479409676E+02 -0.11214257058E+03 -0.16046516243E+03  0.22735878294E+03  0.88429685204E+02 0.  0.
          5    1    3    3  502    0  0.83949231066E+02  0.31125450793E+02 -0.12332468068E+03  0.15245562092E+03  0.41800000000E+01 0. -1.
         -5    1    3    3    0  502 -0.94698213905E+01  0.81017119784E+02 -0.30464039722E+02  0.87172136210E+02  0.41800000000E+01 0. -1.
        -11    1    4    4    0    0 -0.22842509866E+02  0.12501698243E+02 -0.29151169053E+02  0.39087892922E+02  0.00000000000E+00 0. -1.
         11    1    4    4    0    0 -0.51636899810E+02 -0.12464426882E+03 -0.13131399338E+03  0.18827089002E+03  0.00000000000E+00 0.  1.
</event>
<event>
 8    1  0.7136454E-009  0.1257192E+03  0.7561462E-02  0.1233950E+00
          1   -1    0    0  501    0  0.00000000000E+00  0.00000000000E+00  0.76058840645E+02  0.76058840645E+02  0.00000000000E+00 0. -1.
         -1   -1    0    0    0  501 -0.00000000000E+00 -0.00000000000E+00 -0.23589248257E+03  0.23589248257E+03  0.00000000000E+00 0.  1.
         25    2    1    2    0    0 -0.74101482817E+02 -0.10268026670E+02 -0.11220467402E+03  0.18395294464E+03  0.12510929159E+03 0.  0.
         23    2    1    2    0    0  0.74101482817E+02  0.10268026670E+02 -0.47628967907E+02  0.12799837858E+03  0.92296284905E+02 0.  0.
          5    1    3    3  502    0 -0.82974656477E+02  0.32547632244E+02 -0.36451724088E+02  0.96386423168E+02  0.41800000000E+01 0.  1.
         -5    1    3    3    0  502  0.88731736606E+01 -0.42815658914E+02 -0.75752949928E+02  0.87566521467E+02  0.41800000000E+01 0.  1.
        -11    1    4    4    0    0  0.19308628657E+01 -0.33714102720E+02 -0.19100741063E+02  0.38797000693E+02  0.00000000000E+00 0.  1.
         11    1    4    4    0    0  0.72170619951E+02  0.43982129389E+02 -0.28528226843E+02  0.89201377885E+02  0.00000000000E+00 0. -1.
</event>
<event>
 8    1  0.7136454E-009  0.1044284E+03  0.7561462E-02  0.1271250E+00
         -1   -1    0    0    0  501 -0.00000000000E+00  0.00000000000E+00  0.10771629745E+03  0.10771629745E+03  0.00000000000E+00 0.  1.
          1   -1    0    0  501    0  0.00000000000E+00 -0.00000000000E+00 -0.12005359083E+03  0.12005359083E+03  0.00000000000E+00 0. -1.
         25    2    1    2    0    0  0.95134639521E+00  0.22558160828E+02  0.19868717321E+02  0.12865256434E+03  0.12508773203E+03 0.  0.
         23    2    1    2    0    0 -0.95134639521E+00 -0.22558160828E+02 -0.32206010693E+02  0.99117323936E+02  0.90979344357E+02 0.  0.
          5    1    3    3  502    0  0.57984965750E+02  0.23768145731E+02  0.31530035027E+02  0.70276571582E+02  0.41800000000E+01 0. -1.
         -5    1    3    3    0  502 -0.57033619355E+02 -0.12099849038E+01 -0.11661317706E+02  0.58375992761E+02  0.41800000000E+01 0. -1.
        -11    1    4    4    0    0 -0.42654588775E+02 -0.29177932284E+01 -0.31343336305E+02  0.53012566356E+02  0.00000000000E+00 0. -1.
         11    1    4    4    0    0  0.41703242380E+02 -0.19640367599E+02 -0.86267438862E+00  0.46104757580E+02  0.00000000000E+00 0.  1.
</event>
<event>
 8    1  0.7136454E-009  0.1207789E+03  0.7561462E-02  0.1241818E+00
         -1   -1    0    0    0  501 -0.00000000000E+00  0.00000000000E+00  0.49482412647E+02  0.49482412647E+02  0.00000000000E+00 0.  1.
          1   -1    0    0  501    0  0.00000000000E+00 -0.00000000000E+00 -0.32896713892E+03  0.32896713892E+03  0.00000000000E+00 0. -1.
         25    2    1    2    0    0 -0.57668341125E+02  0.35470288528E+01 -0.99501234429E+02  0.16995848048E+03  0.12508865037E+03 0.  0.
         23    2    1    2    0    0  0.57668341125E+02 -0.35470288528E+01 -0.17998349184E+03  0.20849107109E+03  0.87955957194E+02 0.  0.
          5    1    3    3  502    0 -0.55215414291E+02 -0.54898310778E+02 -0.67597646966E+02  0.10319632153E+03  0.41800000000E+01 0.  1.
         -5    1    3    3    0  502 -0.24529268349E+01  0.58445339631E+02 -0.31903587463E+02  0.66762158950E+02  0.41800000000E+01 0.  1.
        -11    1    4    4    0    0  0.22800555446E+02  0.41872261566E+02 -0.89628008524E+02  0.10152010406E+03  0.00000000000E+00 0. -1.
         11    1    4    4    0    0  0.34867785679E+02 -0.45419290419E+02 -0.90355483319E+02  0.10697096702E+03  0.00000000000E+00 0.  1.
</event>
<event>
 8    1  0.7136454E-009  0.1054828E+03  0.7561462E-02  0.1269171E+00
          1   -1    0    0  501    0  0.00000000000E+00  0.00000000000E+00  0.25405244654E+02  0.25405244654E+02  0.00000000000E+00 0. -1.
         -1   -1    0    0    0  501 -0.00000000000E+00 -0.00000000000E+00 -0.12973402376E+04  0.12973402376E+04  0.00000000000E+00 0.  1.
         25    2    1    2    0    0  0.11599170872E+01  0.96063641046E+02 -0.10723910196E+04  0.10839283827E+04  0.12509464970E+03 0.  0.
         23    2    1    2    0    0 -0.11599170872E+01 -0.96063641046E+02 -0.19954397337E+03  0.23881709957E+03  0.89365771968E+02 0.  0.
          5    1    3    3  502    0  0.18276546327E+02  0.23505186886E+02 -0.46818953591E+02  0.55641825739E+02  0.41800000000E+01 0.  1.
         -5    1    3    3    0  502 -0.17116629240E+02  0.72558454160E+02 -0.10255720660E+04  0.10282865570E+04  0.41800000000E+01 0.  1.
        -11    1    4    4    0    0  0.21376208704E+02 -0.60124164566E+02 -0.43794281840E+02  0.77393776140E+02  0.00000000000E+00 0. -1.
         11    1    4    4    0    0 -0.22536125792E+02 -0.35939476481E+02 -0.15574969153E+03  0.16142332343E+03  0.00000000000E+00 0.  1.
</event>
<event>
 8    1  0.7136454E-009  0.1538096E+03  0.7561462E-02  0.1195868E+00
         -2   -1    0    0    0  501 -0.00000000000E+00  0.00000000000E+00  0.21688288874E+02  0.21688288874E+02  0.00000000000E+00 0.  1.
          2   -1    0    0  501    0  0.00000000000E+00 -0.00000000000E+00 -0.15196488072E+04  0.15196488072E+04  0.00000000000E+00 0. -1.
         25    2    1    2    0    0 -0.14083945606E+02 -0.13830135125E+03 -0.97536796522E+03  0.99313380106E+03  0.12508580232E+03 0.  0.
         23    2    1    2    0    0  0.14083945606E+02  0.13830135125E+03 -0.52259255313E+03  0.54820329504E+03  0.89990304064E+02 0.  0.
          5    1    3    3  502    0  0.24043865420E+02 -0.10077917049E+03 -0.33890583420E+03  0.35441386192E+03  0.41800000000E+01 0. -1.
         -5    1    3    3    0  502 -0.38127811026E+02 -0.37522180762E+02 -0.63646213102E+03  0.63871993914E+03  0.41800000000E+01 0. -1.
        -11    1    4    4    0    0 -0.94711585445E+01  0.12017525033E+03 -0.48765418771E+03  0.50233295774E+03  0.00000000000E+00 0.  1.
         11    1    4    4    0    0  0.23555104151E+02  0.18126100925E+02 -0.34938365413E+02  0.45870337300E+02  0.00000000000E+00 0. -1.
</event>
<event>
 8    1  0.7136454E-009  0.2342372E+03  0.7561462E-02  0.1123692E+00
          2   -1    0    0  501    0  0.00000000000E+00  0.00000000000E+00  0.19099539943E+03  0.19099539943E+03  0.00000000000E+00 0. -1.
         -2   -1    0    0    0  501 -0.00000000000E+00 -0.00000000000E+00 -0.42262765800E+03  0.42262765800E+03  0.00000000000E+00 0.  1.
         25    2    1    2    0    0  0.50603642013E+01  0.22191431758E+03 -0.26832507436E+03  0.37002360101E+03  0.12509016004E+03 0.  0.
         23    2    1    2    0    0 -0.50603642013E+01 -0.22191431758E+03  0.36692815788E+02  0.24359945642E+03  0.93395721539E+02 0.  0.
          5    1    3    3  502    0 -0.35050522663E+02  0.26249817690E+02 -0.13080726166E+02  0.45893026319E+02  0.41800000000E+01 0. -1.
         -5    1    3    3    0  502  0.40110886864E+02  0.19566449989E+03 -0.25524434819E+03  0.32413057469E+03  0.41800000000E+01 0. -1.
        -11    1    4    4    0    0  0.96854785192E+01 -0.18026800897E+03  0.64144893316E+02  0.19158530969E+03  0.00000000000E+00 0. -1.
         11    1    4    4    0    0 -0.14745842720E+02 -0.41646308614E+02 -0.27452077528E+02  0.52014146723E+02  0.00000000000E+00 0.  1.
</event>
<event>
 7    1  0.7136454E-009  0.1176264E+03  0.7561462E-02  0.1247065E+00
          2   -1    0    0  501    0  0.00000000000E+00  0.00000000000E+00  0.12379813215E+02  0.12379813215E+02  0.00000000000E+00 0. -1.
         -2   -1    0    0    0  501 -0.00000000000E+00 -0.00000000000E+00 -0.13677032280E+04  0.13677032280E+04  0.00000000000E+00 0.  1.
         25    2    1    2    0    0  0.26893610773E+02 -0.92793220326E+02 -0.93241704515E+03  0.94571756569E+03  0.12508525064E+03 0.  0.
          5    1    3    3  502    0  0.64127722726E+00  0.20077898733E+02 -0.41320358104E+03  0.41371270834E+03  0.41800000000E+01 0.  1.
         -5    1    3    3    0  502  0.26252333546E+02 -0.11287111906E+03 -0.51921346411E+03  0.53200485735E+03  0.41800000000E+01 0.  1.
        -11    1    1    2    0    0 -0.65872303819E+01  0.58879924329E+02 -0.27095981799E+03  0.27736160523E+03  0.00000000000E+00 0. -1.
         11    1    1    2    0    0 -0.20306380391E+02  0.33913295997E+02 -0.15194655163E+03  0.15700387028E+03  0.00000000000E+00 0.  1.
</event>
<event>
 8    1  0.7136454E-009  0.1072878E+03  0.7561462E-02  0.1265676E+00
         -1   -1    0    0    0  501 -0.00000000000E+00  0.00000000000E+00  0.10129556965E+04  0.10129556965E+04  0.00000000000E+00 0.  1.
          1   -1    0    0  501    0  0.00000000000E+00 -0.00000000000E+00 -0.19635287278E+02  0.19635287278E+02  0.00000000000E+00 0. -1.
         25    2    1    2    0    0 -0.60142600800E+01 -0.81122916235E+02  0.68105474504E+03  0.69721033173E+03  0.12509828962E+03 0.  0.
         23    2    1    2    0    0  0.60142600800E+01  0.81122916235E+02  0.31226566417E+03  0.33538065204E+03  0.91396049576E+02 0.  0.
          5    1    3    3  502    0 -0.40399034834E+02 -0.12797802584E+02  0.48274479880E+03  0.48461931342E+03  0.41800000000E+01 0.  1.
         -5    1    3    3    0  502  0.34384774754E+02 -0.68325113651E+02  0.19830994624E+03  0.21259101831E+03  0.41800000000E+01 0.  1.
        -11    1    4    4    0    0  0.14181910639E+02  0.33169442122E+00  0.15976687694E+01  0.14275473934E+02  0.00000000000E+00 0.  1.
         11    1    4    4    0    0 -0.81676505586E+01  0.80791221813E+02  0.31066799540E+03  0.32110517811E+03  0.00000000000E+00 0. -1.
</event>
<event>
 8    1  0.7136454E-009  0.8627523E+02  0.7561462E-02  0.1312131E+00
         -1   -1    0    0    0  501 -0.00000000000E+00  0.00000000000E+00  0.51316769475E+02  0.51316769475E+02  0.00000000000E+00 0.  1.
          1   -1    0    0  501    0  0.00000000000E+00 -0.00000000000E+00 -0.31533363730E+03  0.31533363730E+03  0.00000000000E+00 0. -1.
         25    2    1    2    0    0 -0.27765186553E+02  0.17914233855E+02 -0.22984689912E+03  0.26375989737E+03  0.12509141084E+03 0.  0.
         23    2    1    2    0    0  0.27765186553E+02 -0.17914233855E+02 -0.34169968703E+02  0.10289050940E+03  0.91252642731E+02 0.  0.
          5    1    3    3  502    0 -0.11629382541E+02  0.67966475900E+02 -0.84552708554E+02  0.10918478515E+03  0.41800000000E+01 0.  1.
         -5    1    3    3    0  502 -0.16135804012E+02 -0.50052242045E+02 -0.14529419056E+03  0.15457511222E+03  0.41800000000E+01 0.  1.
        -11    1    4    4    0    0  0.10961801975E+02 -0.28717372706E+02 -0.61666834077E+02  0.68903171355E+02  0.00000000000E+00 0. -1.
         11    1    4    4    0    0  0.16803384578E+02  0.10803138851E+02  0.27496865374E+02  0.33987338049E+02  0.00000000000E+00 0.  1.
</event>
<event>
 8    1  0.7136454E-009  0.2009933E+03  0.7561462E-02  0.1148904E+00
          1   -1    0    0  501    0  0.00000000000E+00  0.00000000000E+00  0.58270311006E+03  0.58270311006E+03  0.00000000000E+00 0. -1.
         -1   -1    0    0    0  501 -0.00000000000E+00 -0.00000000000E+00 -0.10292888286E+03  0.10292888286E+03  0.00000000000E+00 0.  1.
         25    2    1    2    0    0  0.44545557594E+02 -0.17902733761E+03  0.81673895224E+02  0.23738808070E+03  0.12508949351E+03 0.  0.
         23    2    1    2    0    0 -0.44545557594E+02  0.17902733761E+03  0.39810033197E+03  0.44824391221E+03  0.91671348892E+02 0.  0.
          5    1    3    3  502    0  0.69567247728E+02 -0.15966928630E+03  0.30184251950E+02  0.17681188990E+03  0.41800000000E+01 0. -1.
         -5    1    3    3    0  502 -0.25021690133E+02 -0.19358051309E+02  0.51489643273E+02  0.60576190802E+02  0.41800000000E+01 0. -1.
        -11    1    4    4    0    0 -0.35359406676E+02  0.29497063458E+02  0.16374383142E+03  0.17009528718E+03  0.00000000000E+00 0.  1.
         11    1    4    4    0    0 -0.91861509182E+01  0.14953027415E+03  0.23435650055E+03  0.27814862504E+03  0.00000000000E+00 0. -1.
</event>
<event>
 8    1  0.7136454E-009  0.8427980E+02  0.7561462E-02  0.1317327E+00
         -1   -1    0    0    0  501 -0.00000000000E+00  0.00000000000E+00  0.17077399262E+03  0.17077399262E+03  0.00000000000E+00 0.  1.
          1   -1    0    0  501    0  0.00000000000E+00 -0.00000000000E+00 -0.94137541242E+02  0.94137541242E+02  0.00000000000E+00 0. -1.
         25    2    1    2    0    0  0.47771991540E+02 -0.40456324168E+02  0.22531562255E+02  0.14168174583E+03  0.12508864242E+03 0.  0.
         23    2    1    2    0    0 -0.47771991540E+02  0.40456324168E+02  0.54104889119E+02  0.12322978803E+03  0.91320119854E+02 0.  0.
          5    1    3    3  502    0  0.45733951970E+02 -0.60979802157E+02 -0.32345195742E+02  0.82908471952E+02  0.41800000000E+01 0.  1.
         -5    1    3    3    0  502  0.20380395697E+01  0.20523477989E+02  0.54876757997E+02  0.58773273878E+02  0.41800000000E+01 0.  1.
        -11    1    4    4    0    0 -0.22187257316E+02  0.39820491310E+02  0.76612227088E+02  0.89148074880E+02  0.00000000000E+00 0.  1.
         11    1    4    4    0    0 -0.25584734224E+02  0.63583285724E+00 -0.22507337968E+02  0.34081713149E+02  0.00000000000E+00 0. -1.
</event>
<event>
 8    1  0.7136454E-009  0.9497915E+02  0.7561462E-02  0.1291223E+00
         -1   -1    0    0    0  501 -0.00000000000E+00  0.00000000000E+00  0.12325099706E+03  0.12325099706E+03  0.00000000000E+00 0.  1.
          1   -1    0    0  501    0  0.00000000000E+00 -0.00000000000E+00 -0.13056394026E+03  0.13056394026E+03  0.00000000000E+00 0. -1.
         25    2    1    2    0    0 -0.65652914757E+02  0.84141744819E+01 -0.16586621855E+01  0.14153324178E+03  0.12509118203E+03 0.  0.
         23    2    1    2    0    0  0.65652914757E+02 -0.84141744819E+01 -0.56542810210E+01  0.11228169554E+03  0.90521294237E+02 0.  0.
          5    1    3    3  502    0  0.67579322168E+01  0.41016031986E+02 -0.35774498287E+02  0.55002469539E+02  0.41800000000E+01 0.  1.
         -5    1    3    3    0  502 -0.72410846974E+02 -0.32601857504E+02  0.34115836102E+02  0.86530772244E+02  0.41800000000E+01 0.  1.
        -11    1    4    4    0    0  0.17621396237E+02 -0.10622998328E+02  0.40629632866E+02  0.45542603852E+02  0.00000000000E+00 0.  1.
         11    1    4    4    0    0  0.48031518520E+02  0.22088238466E+01 -0.46283913887E+02  0.66739091684E+02  0.00000000000E+00 0. -1.
</event>
<event>
 8    1  0.7136454E-009  0.1115083E+03  0.7561462E-02  0.1257802E+00
         -1   -1    0    0    0  501 -0.00000000000E+00  0.00000000000E+00  0.37445925235E+02  0.37445925235E+02  0.00000000000E+00 0.  1.
          1   -1    0    0  501    0  0.00000000000E+00 -0.00000000000E+00 -0.63282586916E+03  0.63282586916E+03  0.00000000000E+00 0. -1.
         25    2    1    2    0    0 -0.89241111798E+02  0.53806563507E+02 -0.42218960891E+03  0.45249421694E+03  0.12509127939E+03 0.  0.
         23    2    1    2    0    0  0.89241111798E+02 -0.53806563507E+02 -0.17319033501E+03  0.21777757745E+03  0.81074402793E+02 0.  0.
          5    1    3    3  502    0  0.24574352221E+01  0.12934400777E+02 -0.26860440179E+03  0.26895935525E+03  0.41800000000E+01 0.  1.
         -5    1    3    3    0  502 -0.91698547020E+02  0.40872162730E+02 -0.15358520712E+03  0.18353486170E+03  0.41800000000E+01 0.  1.
        -11    1    4    4    0    0  0.18255027524E+02  0.20833607872E+01 -0.99518430874E+02  0.10120031870E+03  0.00000000000E+00 0.  1.
         11    1    4    4    0    0  0.70986084274E+02 -0.55889924295E+02 -0.73671904137E+02  0.11657725875E+03  0.00000000000E+00 0. -1.
</event>
<event>
 8    1  0.7136454E-009  0.1100875E+03  0.7561462E-02  0.1260408E+00
         -1   -1    0    0    0  501 -0.00000000000E+00  0.00000000000E+00  0.37762718309E+02  0.37762718309E+02  0.00000000000E+00 0.  1.
          1   -1    0    0  501    0  0.00000000000E+00 -0.00000000000E+00 -0.51491820544E+03  0.51491820544E+03  0.00000000000E+00 0. -1.
         25    2    1    2    0    0  0.80871787673E+02 -0.31502951234E+02 -0.27538169908E+03  0.31466779572E+03  0.12509220400E+03 0.  0.
         23    2    1    2    0    0 -0.80871787673E+02  0.31502951234E+02 -0.20177378805E+03  0.23801312802E+03  0.91678272171E+02 0.  0.
          5    1    3    3  502    0  0.93918087596E+02 -0.35565129052E+02 -0.28166211004E+03  0.29905936236E+03  0.41800000000E+01 0. -1.
         -5    1    3    3    0  502 -0.13046299923E+02  0.40621778179E+01  0.62804109625E+01  0.15608433367E+02  0.41800000000E+01 0. -1.
        -11    1    4    4    0    0 -0.17208527885E+02  0.37666534169E+02 -0.15033465198E+03  0.15593398864E+03  0.00000000000E+00 0. -1.
         11    1    4    4    0    0 -0.63663259788E+02 -0.61635829347E+01 -0.51439136073E+02  0.82079139380E+02  0.00000000000E+00 0.  1.
</event>
<event>
 8    1  0.7136454E-009  0.1343609E+03  0.7561462E-02  0.1221125E+00
         -2   -1    0    0    0  501 -0.00000000000E+00  0.00000000000E+00  0.30753527325E+02  0.30753527325E+02  0.00000000000E+00 0.  1.
          2   -1    0    0  501    0  0.00000000000E+00 -0.00000000000E+00 -0.69254280294E+03  0.69254280294E+03  0.00000000000E+00 0. -1.
         25    2    1    2    0    0  0.82990361191E+02  0.42558001719E+02 -0.42915048350E+03  0.45663539337E+03  0.12508861431E+03 0.  0.
         23    2    1    2    0    0 -0.82990361191E+02 -0.42558001719E+02 -0.23263879212E+03  0.26666093690E+03  0.91042100745E+02 0.  0.
          5    1    3    3  502    0  0.76713895460E+02  0.84041706560E+02 -0.31228252355E+03  0.33239415926E+03  0.41800000000E+01 0. -1.
         -5    1    3    3    0  502  0.62764657313E+01 -0.41483704841E+02 -0.11686795995E+03  0.12424123411E+03  0.41800000000E+01 0. -1.
        -11    1    4    4    0    0 -0.29069007395E+02 -0.50421110447E+02 -0.18613982087E+03  0.19502648149E+03  0.00000000000E+00 0. -1.
         11    1    4    4    0    0 -0.53921353796E+02  0.78631087284E+01 -0.46498971246E+02  0.71634455403E+02  0.00000000000E+00 0.  1.
</event>
<event>
 8    1  0.7136454E-009  0.8056921E+02  0.7561462E-02  0.1327444E+00
          1   -1    0    0  501    0  0.00000000000E+00  0.00000000000E+00  0.52535929222E+02  0.52535929222E+02  0.00000000000E+00 0. -1.
         -1   -1    0    0    0  501 -0.00000000000E+00 -0.00000000000E+00 -0.34332671877E+03  0.34332671877E+03  0.00000000000E+00 0.  1.
         25    2    1    2    0    0  0.46092872155E+02  0.16414316396E+02 -0.25426068419E+03  0.28755999534E+03  0.12509305635E+03 0.  0.
         23    2    1    2    0    0 -0.46092872155E+02 -0.16414316396E+02 -0.36530105354E+02  0.10830265265E+03  0.89448495392E+02 0.  0.
          5    1    3    3  502    0  0.24037068043E+02  0.42335004344E+02 -0.23417282104E+02  0.54183712811E+02  0.41800000000E+01 0.  1.
         -5    1    3    3    0  502  0.22055804112E+02 -0.25920687948E+02 -0.23084340209E+03  0.23337628253E+03  0.41800000000E+01 0.  1.
        -11    1    4    4    0    0 -0.57964893355E+02 -0.29361103833E+00  0.89110921739E+01  0.58646590973E+02  0.00000000000E+00 0. -1.
         11    1    4    4    0    0  0.11872021199E+02 -0.16120705358E+02 -0.45441197528E+02  0.49656061678E+02  0.00000000000E+00 0.  1.
</event>
<event>
 8    1  0.7136454E-009  0.9977822E+02  0.7561462E-02  0.1280763E+00
         -1   -1    0    0    0  501 -0.00000000000E+00  0.00000000000E+00  0.30198791441E+03  0.30198791441E+03  0.00000000000E+00 0.  1.
          1   -1    0    0  501    0  0.00000000000E+00 -0.00000000000E+00 -0.64502740191E+02  0.64502740191E+02  0.00000000000E+00 0. -1.
         25    2    1    2    0    0 -0.56622196493E+02  0.27980436807E+02  0.19429561542E+03  0.23955822928E+03  0.12509348931E+03 0.  0.
         23    2    1    2    0    0  0.56622196493E+02 -0.27980436807E+02  0.43189558803E+02  0.12693242532E+03  0.10127943833E+03 0.  0.
          5    1    3    3  502    0  0.29535894973E+02  0.15823210190E+02  0.12128015307E+03  0.12589317297E+03  0.41800000000E+01 0. -1.
         -5    1    3    3    0  502 -0.86158091466E+02  0.12157226616E+02  0.73015462346E+02  0.11366505631E+03  0.41800000000E+01 0. -1.
        -11    1    4    4    0    0  0.83481105565E+01  0.12936123554E+02 -0.27833051805E+02  0.31807436477E+02  0.00000000000E+00 0. -1.
         11    1    4    4    0    0  0.48274085936E+02 -0.40916560361E+02  0.71022610608E+02  0.95124988842E+02  0.00000000000E+00 0.  1.
</event>
<event>
 8    1  0.7136454E-009  0.1507085E+03  0.7561462E-02  0.1199605E+00
         -2   -1    0    0    0  501 -0.00000000000E+00  0.00000000000E+00  0.12873026067E+03  0.12873026067E+03  0.00000000000E+00 0. -1.
          2   -1    0    0  501    0  0.00000000000E+00 -0.00000000000E+00 -0.19728055249E+03  0.19728055249E+03  0.00000000000E+00 0.  1.
         25    2    1    2    0    0  0.11001882854E+03 -0.25707283015E+01  0.34292418547E+01  0.16664525042E+03  0.12509247983E+03 0.  0.
         23    2    1    2    0    0 -0.11001882854E+03  0.25707283015E+01 -0.71979533675E+02  0.15936556274E+03  0.90030983784E+02 0.  0.
          5    1    3    3  502    0  0.66048442174E+02  0.55529594469E+02 -0.22363569525E+02  0.89238636349E+02  0.41800000000E+01 0. -1.
         -5    1    3    3    0  502  0.43970386366E+02 -0.58100322771E+02  0.25792811380E+02  0.77406614072E+02  0.41800000000E+01 0. -1.
        -11    1    4    4    0    0 -0.43990115188E+02  0.45498153301E+02 -0.28550112694E+02  0.69428532484E+02  0.00000000000E+00 0.  1.
         11    1    4    4    0    0 -0.66028713351E+02 -0.42927425000E+02 -0.43429420981E+02  0.89937030253E+02  0.00000000000E+00 0. -1.
</event>
<event>
 8    1  0.7136454E-009  0.1316665E+03  0.7561462E-02  0.1225004E+00
          1   -1    0    0  501    0  0.00000000000E+00  0.00000000000E+00  0.20703029670E+03  0.20703029670E+03  0.00000000000E+00 0. -1.
         -1   -1    0    0    0  501 -0.00000000000E+00 -0.00000000000E+00 -0.88392047976E+02  0.88392047976E+02  0.00000000000E+00 0.  1.
         25    2    1    2    0    0  0.74905105644E+02 -0.26638419620E+02  0.79863112535E+02  0.16838092290E+03  0.12511450036E+03 0.  0.
         23    2    1    2    0    0 -0.74905105644E+02  0.26638419620E+02  0.38775136187E+02  0.12704142178E+03  0.91190083939E+02 0.  0.
          5    1    3    3  502    0 -0.31826419772E+02  0.35746449956E+01  0.37689215558E+02  0.49635153387E+02  0.41800000000E+01 0.  1.
         -5    1    3    3    0  502  0.10673152542E+03 -0.30213064616E+02  0.42173896977E+02  0.11874576951E+03  0.41800000000E+01 0.  1.
        -11    1    4    4    0    0  0.12723291478E+02  0.29740150607E+02  0.35292939007E+01  0.32539431765E+02  0.00000000000E+00 0. -1.
         11    1    4    4    0    0 -0.87628397123E+02 -0.31017309865E+01  0.35245842287E+02  0.94501990010E+02  0.00000000000E+00 0.  1.
</event>
<event>
 8    1  0.7136454E-009  0.2128548E+03  0.7561462E-02  0.1139325E+00
          2   -1    0    0  501    0  0.00000000000E+00  0.00000000000E+00  0.20904001541E+04  0.20904001541E+04  0.00000000000E+00 0. -1.
         -2   -1    0    0    0  501 -0.00000000000E+00 -0.00000000000E+00 -0.22191154862E+02  0.22191154862E+02  0.00000000000E+00 0.  1.
         25    2    1    2    0    0  0.17113984648E+03 -0.64107665089E+02  0.12284244304E+04  0.12482283769E+04  0.12509540384E+03 0.  0.
         23    2    1    2    0    0 -0.17113984648E+03  0.64107665089E+02  0.83978456881E+03  0.86436293198E+03  0.92122290397E+02 0.  0.
          5    1    3    3  502    0  0.18761483604E+03 -0.39870593810E+02  0.10594387174E+04  0.10766693361E+04  0.41800000000E+01 0.  1.
         -5    1    3    3    0  502 -0.16474989557E+02 -0.24237071279E+02  0.16898571299E+03  0.17155904086E+03  0.41800000000E+01 0.  1.
        -11    1    4    4    0    0  0.57337109242E+01 -0.10758474052E+02  0.38658084437E+02  0.40534771459E+02  0.00000000000E+00 0. -1.
         11    1    4    4    0    0 -0.17687355740E+03  0.74866139141E+02  0.80112648438E+03  0.82382816052E+03  0.00000000000E+00 0.  1.
</event>
<event>
 8    1  0.7136454E-009  0.7264679E+02  0.7561462E-02  0.1351317E+00
          2   -1    0    0  501    0  0.00000000000E+00  0.00000000000E+00  0.31554393692E+02  0.31554393692E+02  0.00000000000E+00 0. -1.
         -2   -1    0    0    0  501 -0.00000000000E+00 -0.00000000000E+00 -0.40813566451E+03  0.40813566451E+03  0.00000000000E+00 0.  1.
         25    2    1    2    0    0 -0.18921156476E+02  0.35432168316E+02 -0.19811136867E+03  0.23772245155E+03  0.12510156218E+03 0.  0.
         23    2    1    2    0    0  0.18921156476E+02 -0.35432168316E+02 -0.17846990215E+03  0.20196760665E+03  0.85591818828E+02 0.  0.
          5    1    3    3  502    0 -0.35744682336E+02 -0.55194732554E+01 -0.18881277033E+03  0.19229113745E+03  0.41800000000E+01 0. -1.
         -5    1    3    3    0  502  0.16823525860E+02  0.40951641571E+02 -0.92985983339E+01  0.45431314098E+02  0.41800000000E+01 0. -1.
        -11    1    4    4    0    0  0.31300479729E+02 -0.51777123919E+01 -0.16253316225E+03  0.16560059652E+03  0.00000000000E+00 0.  1.
         11    1    4    4    0    0 -0.12379323253E+02 -0.30254455924E+02 -0.15936739900E+02  0.36367010134E+02  0.00000000000E+00 0. -1.
</event>
<event>
 8    1  0.7136454E-009  0.7197100E+02  0.7561462E-02  0.1353516E+00
          3   -1    0    0  501    0  0.00000000000E+00  0.00000000000E+00  0.51240026221E+02  0.51240026221E+02  0.00000000000E+00 0. -1.
         -3   -1    0    0    0  501 -0.00000000000E+00 -0.00000000000E+00 -0.28308391445E+03  0.28308391445E+03  0.00000000000E+00 0.  1.
         25    2    1    2    0    0 -0.56419880066E+01  0.63789617016E+01 -0.58786842825E+02  0.13847929278E+03  0.12509235972E+03 0.  0.
         23    2    1    2    0    0  0.56419880066E+01 -0.63789617016E+01 -0.17305704540E+03  0.19584464789E+03  0.91289988286E+02 0.  0.
          5    1    3    3  502    0  0.26175517760E+02 -0.71528554128E+01  0.31454040125E+02  0.41751049217E+02  0.41800000000E+01 0.  1.
         -5    1    3    3    0  502 -0.31817505766E+02  0.13531817114E+02 -0.90240882950E+02  0.96728243565E+02  0.41800000000E+01 0.  1.
        -11    1    4    4    0    0 -0.14408836934E+02  0.33806724476E+02 -0.12401854620E+03  0.12934878817E+03  0.00000000000E+00 0.  1.
         11    1    4    4    0    0  0.20050824940E+02 -0.40185686178E+02 -0.49038499206E+02  0.66495859711E+02  0.00000000000E+00 0. -1.
</event>
<event>
 8    1  0.7136454E-009  0.1481661E+03  0.7561462E-02  0.1202745E+00
         -1   -1    0    0    0  501 -0.00000000000E+00  0.00000000000E+00  0.23202879361E+02  0.23202879361E+02  0.00000000000E+00 0.  1.
          1   -1    0    0  501    0  0.00000000000E+00 -0.00000000000E+00 -0.12474073440E+04  0.12474073440E+04  0.00000000000E+00 0. -1.
         25    2    1    2    0    0 -0.10907772084E+03  0.71558015925E+02 -0.61778726554E+03  0.64368263130E+03  0.12509086915E+03 0.  0.
         23    2    1    2    0    0  0.10907772084E+03 -0.71558015925E+02 -0.60641719905E+03  0.62692759202E+03  0.90982896727E+02 0.  0.
          5    1    3    3  502    0 -0.30371267847E+02  0.46050398409E+02 -0.67870528540E+02  0.87561030993E+02  0.41800000000E+01 0. -1.
         -5    1    3    3    0  502 -0.78706452996E+02  0.25507617516E+02 -0.54991673700E+03  0.55612160030E+03  0.41800000000E+01 0. -1.
        -11    1    4    4    0    0 -0.60791265767E+01 -0.37628965489E+02 -0.17610341737E+03  0.18018132099E+03  0.00000000000E+00 0. -1.
         11    1    4    4    0    0  0.11515684742E+03 -0.33929050435E+02 -0.43031378168E+03  0.44674627103E+03  0.00000000000E+00 0.  1.
</event>
<event>
 8    1  0.7136454E-009  0.1151720E+03  0.7561462E-02  0.1251281E+00
         -1   -1    0    0    0  501 -0.00000000000E+00  0.00000000000E+00  0.19724330564E+02  0.19724330564E+02  0.00000000000E+00 0.  1.
          1   -1    0    0  501    0  0.00000000000E+00 -0.00000000000E+00 -0.11452541926E+04  0.11452541926E+04  0.00000000000E+00 0. -1.
         25    2    1    2    0    0  0.50749330128E+02  0.84439794832E+02 -0.72706988482E+03  0.74430046450E+03  0.12508793141E+03 0.  0.
         23    2    1    2    0    0 -0.50749330128E+02 -0.84439794832E+02 -0.39845997726E+03  0.42067805870E+03  0.92163453384E+02 0.  0.
          5    1    3    3  502    0 -0.17556576470E+00  0.62220094636E+01 -0.48149996896E+03  0.48155834198E+03  0.41800000000E+01 0.  1.
         -5    1    3    3    0  502  0.50924895892E+02  0.78217785368E+02 -0.24556991587E+03  0.26274212252E+03  0.41800000000E+01 0.  1.
        -11    1    4    4    0    0 -0.70078254116E+02 -0.39374069121E+02 -0.30139739298E+03  0.31193215210E+03  0.00000000000E+00 0. -1.
         11    1    4    4    0    0  0.19328923988E+02 -0.45065725710E+02 -0.97062584273E+02  0.10874590660E+03  0.00000000000E+00 0.  1.
</event>
<event>
 8    1  0.7136454E-009  0.2521051E+03  0.7561462E-02  0.1111982E+00
          1   -1    0    0  501    0  0.00000000000E+00  0.00000000000E+00  0.15880981562E+04  0.15880981562E+04  0.00000000000E+00 0. -1.
         -1   -1    0    0    0  501 -0.00000000000E+00 -0.00000000000E+00 -0.51126869859E+02  0.51126869859E+02  0.00000000000E+00 0.  1.
         25    2    1    2    0    0  0.77543590286E+01  0.24112092006E+03  0.46447942637E+03  0.53813555283E+03  0.12509719231E+03 0.  0.
         23    2    1    2    0    0 -0.77543590286E+01 -0.24112092006E+03  0.10724918599E+04  0.11010894732E+04  0.62927022677E+02 0.  0.
          5    1    3    3  502    0  0.14663451290E+02  0.24795085225E+03  0.38655269125E+03  0.45949439328E+03  0.41800000000E+01 0.  1.
         -5    1    3    3    0  502 -0.69090922611E+01 -0.68299321953E+01  0.77926735119E+02  0.78641159554E+02  0.41800000000E+01 0.  1.
        -11    1    4    4    0    0  0.16379319082E+02 -0.15214165441E+03  0.56846293133E+03  0.58869811397E+03  0.00000000000E+00 0.  1.
         11    1    4    4    0    0 -0.24133678111E+02 -0.88979265645E+02  0.50402892862E+03  0.51239135924E+03  0.00000000000E+00 0. -1.
</event>
<event>
 8    1  0.7136454E-009  0.1458293E+03  0.7561462E-02  0.1205694E+00
          2   -1    0    0  501    0  0.00000000000E+00  0.00000000000E+00  0.53243792142E+03  0.53243792142E+03  0.00000000000E+00 0. -1.
         -2   -1    0    0    0  501 -0.00000000000E+00 -0.00000000000E+00 -0.50688870035E+02  0.50688870035E+02  0.00000000000E+00 0.  1.
         25    2    1    2    0    0  0.85140326210E+02 -0.88607579318E+02  0.23911987735E+03  0.29652375166E+03  0.12509133180E+03 0.  0.
         23    2    1    2    0    0 -0.85140326210E+02  0.88607579318E+02  0.24262917403E+03  0.28660303980E+03  0.90400265886E+02 0.  0.
          5    1    3    3  502    0  0.92247508768E+02 -0.23681107563E+02  0.79930841456E+02  0.12440582601E+03  0.41800000000E+01 0.  1.
         -5    1    3    3    0  502 -0.71071825583E+01 -0.64926471754E+02  0.15918903590E+03  0.17211792565E+03  0.41800000000E+01 0.  1.
        -11    1    4    4    0    0 -0.10615318435E+02  0.41220547193E+02  0.19867866908E+02  0.46973935665E+02  0.00000000000E+00 0.  1.
         11    1    4    4    0    0 -0.74525007775E+02  0.47387032124E+02  0.22276130713E+03  0.23962910414E+03  0.00000000000E+00 0. -1.
</event>
<event>
 8    1  0.7136454E-009  0.8349663E+02  0.7561462E-02  0.1319411E+00
         -2   -1    0    0    0  501 -0.00000000000E+00  0.00000000000E+00  0.16316322033E+03  0.16316322033E+03  0.00000000000E+00 0.  1.
          2   -1    0    0  501    0  0.00000000000E+00 -0.00000000000E+00 -0.80911472342E+02  0.80911472342E+02  0.00000000000E+00 0. -1.
         25    2    1    2    0    0 -0.26843829698E+02 -0.17480517799E+02  0.72062583738E+02  0.14787160364E+03  0.12508731147E+03 0.  0.
         23    2    1    2    0    0  0.26843829698E+02  0.17480517799E+02  0.10189164248E+02  0.96203089033E+02  0.90139090167E+02 0.  0.
          5    1    3    3  502    0  0.38646025071E+02 -0.33120820832E+02  0.60924725090E+02  0.79497160664E+02  0.41800000000E+01 0.  1.
         -5    1    3    3    0  502 -0.65489854769E+02  0.15640303033E+02  0.11137858649E+02  0.68374442973E+02  0.41800000000E+01 0.  1.
        -11    1    4    4    0    0  0.29337639439E+00  0.21594431976E+02  0.46361223674E+02  0.51144585467E+02  0.00000000000E+00 0.  1.
         11    1    4    4    0    0  0.26550453303E+02 -0.41139141776E+01 -0.36172059426E+02  0.45058503566E+02  0.00000000000E+00 0. -1.
</event>
<event>
 8    1  0.7136454E-009  0.1280276E+03  0.7561462E-02  0.1230412E+00
         -1   -1    0    0    0  501 -0.00000000000E+00  0.00000000000E+00  0.27294694819E+02  0.27294694819E+02  0.00000000000E+00 0.  1.
          1   -1    0    0  501    0  0.00000000000E+00 -0.00000000000E+00 -0.97419402979E+03  0.97419402979E+03  0.00000000000E+00 0. -1.
         25    2    1    2    0    0 -0.10553347372E+03 -0.52888130934E+02 -0.58286704111E+03  0.60770988413E+03  0.12507136836E+03 0.  0.
         23    2    1    2    0    0  0.10553347372E+03  0.52888130934E+02 -0.36403229386E+03  0.39377884048E+03  0.92778207398E+02 0.  0.
          5    1    3    3  502    0 -0.82820543238E+02 -0.67901044984E+02 -0.56454217675E+03  0.57462608366E+03  0.41800000000E+01 0.  1.
         -5    1    3    3    0  502 -0.22712930485E+02  0.15012914050E+02 -0.18324864356E+02  0.33083800464E+02  0.41800000000E+01 0.  1.
        -11    1    4    4    0    0  0.48672273043E+02  0.40067123016E+02 -0.70759228791E+02  0.94769367250E+02  0.00000000000E+00 0. -1.
         11    1    4    4    0    0  0.56861200680E+02  0.12821007918E+02 -0.29327306507E+03  0.29900947323E+03  0.00000000000E+00 0.  1.
</event>
<event>
 8    1  0.7136454E-009  0.1812709E+03  0.7561462E-02  0.1166579E+00
         -1   -1    0    0    0  501 -0.00000000000E+00  0.00000000000E+00  0.34313498858E+03  0.34313498858E+03  0.00000000000E+00 0.  1.
          1   -1    0    0  501    0  0.00000000000E+00 -0.00000000000E+00 -0.10530890420E+03  0.10530890420E+03  0.00000000000E+00 0. -1.
         25    2    1    2    0    0  0.99525320310E+02 -0.11995477690E+03  0.10532516889E+03  0.22591086688E+03  0.12509152925E+03 0.  0.
         23    2    1    2    0    0 -0.99525320310E+02  0.11995477690E+03  0.13250091549E+03  0.22253302589E+03  0.87578633932E+02 0.  0.
          5    1    3    3  502    0  0.62552044021E+02 -0.14290092676E+03  0.85095070884E+02  0.17774160056E+03  0.41800000000E+01 0.  1.
         -5    1    3    3    0  502  0.36973276289E+02  0.22946149858E+02  0.20230098005E+02  0.48169266324E+02  0.41800000000E+01 0.  1.
        -11    1    4    4    0    0 -0.17803602039E+02  0.56720935840E+02  0.96056552816E+02  0.11296501293E+03  0.00000000000E+00 0.  1.
         11    1    4    4    0    0 -0.81721718271E+02  0.63233841062E+02  0.36444362676E+02  0.10956801296E+03  0.00000000000E+00 0. -1.
</event>
<event>
 8    1  0.7136454E-009  0.9100076E+02  0.7561462E-02  0.1300446E+00
         -1   -1    0    0    0  501 -0.00000000000E+00  0.00000000000E+00  0.13463009054E+03  0.13463009054E+03  0.00000000000E+00 0.  1.
          1   -1    0    0  501    0  0.00000000000E+00 -0.00000000000E+00 -0.11259672803E+03  0.11259672803E+03  0.00000000000E+00 0. -1.
         25    2    1    2    0    0 -0.78499215521E+00 -0.57236938959E+02  0.13249777651E+02  0.13820336847E+03  0.12509169059E+03 0.  0.
         23    2    1    2    0    0  0.78499215521E+00  0.57236938959E+02  0.87835848583E+01  0.10902345009E+03  0.92370330262E+02 0.  0.
          5    1    3    3  502    0 -0.22596017803E+02 -0.36288015983E+02 -0.51234686102E+02  0.66857053364E+02  0.41800000000E+01 0.  1.
         -5    1    3    3    0  502  0.21811025648E+02 -0.20948922976E+02  0.64484463753E+02  0.71346315106E+02  0.41800000000E+01 0.  1.
        -11    1    4    4    0    0 -0.40136774816E+02  0.54258068074E+02  0.82275121794E+01  0.67989635978E+02  0.00000000000E+00 0.  1.
         11    1    4    4    0    0  0.40921766971E+02  0.29788708850E+01  0.55607267890E+00  0.41033814113E+02  0.00000000000E+00 0. -1.
</event>
<event>
 8    1  0.7136454E-009  0.1178299E+03  0.7561462E-02  0.1246721E+00
         -3   -1    0    0    0  501 -0.00000000000E+00  0.00000000000E+00  0.39815752045E+03  0.39815752045E+03  0.00000000000E+00 0.  1.
          3   -1    0    0  501    0  0.00000000000E+00 -0.00000000000E+00 -0.45823702705E+02  0.45823702705E+02  0.00000000000E+00 0. -1.
         25    2    1    2    0    0  0.10185235676E+02  0.72804134570E+02  0.25187313984E+03  0.29067034159E+03  0.12507992592E+03 0.  0.
         23    2    1    2    0    0 -0.10185235676E+02 -0.72804134570E+02  0.10046067790E+03  0.15331088156E+03  0.89485739454E+02 0.  0.
          5    1    3    3  502    0  0.58954950184E+02  0.17652930600E+02  0.16813265634E+03  0.17909040912E+03  0.41800000000E+01 0. -1.
         -5    1    3    3    0  502 -0.48769714508E+02  0.55151203970E+02  0.83740483497E+02  0.11157993247E+03  0.41800000000E+01 0. -1.
        -11    1    4    4    0    0 -0.25725568296E+02 -0.79318616465E+02  0.43783743417E+02  0.94182078814E+02  0.00000000000E+00 0. -1.
         11    1    4    4    0    0  0.15540332621E+02  0.65144818947E+01  0.56676934484E+02  0.59128802751E+02  0.00000000000E+00 0.  1.
</event>
<event>
 8    1  0.7136454E-009  0.9951786E+02  0.7561462E-02  0.1281313E+00
          4   -1    0    0  501    0  0.00000000000E+00  0.00000000000E+00  0.66966498892E+03  0.66966498892E+03  0.00000000000E+00 0.  1.
         -4   -1    0    0    0  501 -0.00000000000E+00 -0.00000000000E+00 -0.18633222677E+02  0.18633222677E+02  0.00000000000E+00 0. -1.
         25    2    1    2    0    0  0.25295175079E+02 -0.12785349772E+02  0.38366854815E+03  0.40454092417E+03  0.12509393844E+03 0.  0.
         23    2    1    2    0    0 -0.25295175079E+02  0.12785349772E+02  0.26736321809E+03  0.28375728743E+03  0.90729249580E+02 0.  0.
          5    1    3    3  502    0  0.67727130565E+02 -0.88876650651E+01  0.32370966134E+03  0.33086458265E+03  0.41800000000E+01 0. -1.
         -5    1    3    3    0  502 -0.42431955486E+02 -0.38976847071E+01  0.59958886812E+02  0.73676341522E+02  0.41800000000E+01 0. -1.
        -11    1    4    4    0    0 -0.44794093201E+02 -0.20458293622E+02  0.93519286839E+02  0.10569252374E+03  0.00000000000E+00 0. -1.
         11    1    4    4    0    0  0.19498918122E+02  0.33243643394E+02  0.17384393126E+03  0.17806476369E+03  0.00000000000E+00 0.  1.
</event>
<event>
 8    1  0.7136454E-009  0.1260062E+03  0.7561462E-02  0.1233505E+00
          1   -1    0    0  501    0  0.00000000000E+00  0.00000000000E+00  0.47184556759E+03  0.47184556759E+03  0.00000000000E+00 0. -1.
         -1   -1    0    0    0  501 -0.00000000000E+00 -0.00000000000E+00 -0.43150343724E+02  0.43150343724E+02  0.00000000000E+00 0.  1.
         25    2    1    2    0    0 -0.73709552099E+02  0.48167801795E+02  0.27743470317E+03  0.31680967842E+03  0.12508046458E+03 0.  0.
         23    2    1    2    0    0  0.73709552099E+02 -0.48167801795E+02  0.15126052070E+03  0.19818623289E+03  0.92977430516E+02 0.  0.
          5    1    3    3  502    0  0.34950414154E+02  0.20326994696E+02  0.78057859618E+02  0.88006931608E+02  0.41800000000E+01 0.  1.
         -5    1    3    3    0  502 -0.10865996625E+03  0.27840807099E+02  0.19937684355E+03  0.22880274681E+03  0.41800000000E+01 0.  1.
        -11    1    4    4    0    0  0.79552377614E+02 -0.39911757335E+02  0.16111555298E+03  0.18406452827E+03  0.00000000000E+00 0. -1.
         11    1    4    4    0    0 -0.58428255143E+01 -0.82560444606E+01 -0.98550322781E+01  0.14121704618E+02  0.00000000000E+00 0.  1.
</event>
<event>
 8    1  0.7136454E-009  0.8940837E+02  0.7561462E-02  0.1304291E+00
          1   -1    0    0  501    0  0.00000000000E+00  0.00000000000E+00  0.15058153891E+03  0.15058153891E+03  0.00000000000E+00 0. -1.
         -1   -1    0    0    0  501 -0.00000000000E+00 -0.00000000000E+00 -0.11483781273E+03  0.11483781273E+03  0.00000000000E+00 0.  1.
         25    2    1    2    0    0 -0.24764609074E+02 -0.62054332672E+02  0.33220147561E+02  0.14563575203E+03  0.12506865314E+03 0.  0.
         23    2    1    2    0    0  0.24764609074E+02  0.62054332672E+02  0.25235786203E+01  0.11978359961E+03  0.99386700426E+02 0.  0.
          5    1    3    3  502    0 -0.11938594253E+02 -0.42043568433E+02  0.80984807885E+02  0.92120590464E+02  0.41800000000E+01 0. -1.
         -5    1    3    3    0  502 -0.12826014820E+02 -0.20010764239E+02 -0.47764660323E+02  0.53515161566E+02  0.41800000000E+01 0. -1.
        -11    1    4    4    0    0 -0.13420349643E+01 -0.22369738874E+02  0.19609957559E+02  0.29778460514E+02  0.00000000000E+00 0. -1.
         11    1    4    4    0    0  0.26106644038E+02  0.84424071545E+02 -0.17086378938E+02  0.90005139100E+02  0.00000000000E+00 0.  1.
</event>
<event>
 8    1  0.7136454E-009  0.1274689E+03  0.7561462E-02  0.1231261E+00
          1   -1    0    0  501    0  0.00000000000E+00  0.00000000000E+00  0.32525546487E+03  0.32525546487E+03  0.00000000000E+00 0. -1.
         -1   -1    0    0    0  501 -0.00000000000E+00 -0.00000000000E+00 -0.86606830970E+02  0.86606830970E+02  0.00000000000E+00 0.  1.
         25    2    1    2    0    0  0.11123015595E+03  0.58350927828E+02  0.97785862066E+02  0.20245208445E+03  0.12509114000E+03 0.  0.
         23    2    1    2    0    0 -0.11123015595E+03 -0.58350927828E+02  0.14086277184E+03  0.20941021139E+03  0.90737741742E+02 0.  0.
          5    1    3    3  502    0  0.62918045167E+02  0.20388182406E+02  0.11991757830E+03  0.13701115420E+03  0.41800000000E+01 0.  1.
         -5    1    3    3    0  502  0.48312110779E+02  0.37962745422E+02 -0.22131716238E+02  0.65440930247E+02  0.41800000000E+01 0.  1.
        -11    1    4    4    0    0 -0.52312018986E+02 -0.16644257834E+02  0.12352130559E+03  0.13517060178E+03  0.00000000000E+00 0. -1.
         11    1    4    4    0    0 -0.58918136960E+02 -0.41706669994E+02  0.17341466245E+02  0.74239609618E+02  0.00000000000E+00 0.  1.
</event>
<event>
 8    1  0.7136454E-009  0.1264140E+03  0.7561462E-02  0.1232876E+00
         -1   -1    0    0    0  501 -0.00000000000E+00  0.00000000000E+00  0.16578362449E+03  0.16578362449E+03  0.00000000000E+00 0.  1.
          1   -1    0    0  501    0  0.00000000000E+00 -0.00000000000E+00 -0.10148785207E+03  0.10148785207E+03  0.00000000000E+00 0. -1.
         25    2    1    2    0    0  0.12981635694E+02 -0.66874483522E+02  0.59202987537E+02  0.15424316182E+03  0.12508093309E+03 0.  0.
         23    2    1    2    0    0 -0.12981635694E+02  0.66874483522E+02  0.50927848896E+01  0.11302831475E+03  0.90048565033E+02 0.  0.
          5    1    3    3  502    0 -0.23208588809E+02 -0.92908719340E+02  0.28683637489E+02  0.10005444610E+03  0.41800000000E+01 0.  1.
         -5    1    3    3    0  502  0.36190224504E+02  0.26034235818E+02  0.30519350048E+02  0.54188715722E+02  0.41800000000E+01 0.  1.
        -11    1    4    4    0    0  0.32501046943E+02  0.14734108341E+01  0.72705968846E+01  0.33336925037E+02  0.00000000000E+00 0.  1.
         11    1    4    4    0    0 -0.45482682637E+02  0.65401072688E+02 -0.21778119950E+01  0.79691389708E+02  0.00000000000E+00 0. -1.
</event>
<event>
 8    1  0.7136454E-009  0.9393619E+02  0.7561462E-02  0.1293590E+00
         -2   -1    0    0    0  501 -0.00000000000E+00  0.00000000000E+00  0.19708760903E+03  0.19708760903E+03  0.00000000000E+00 0.  1.
          2   -1    0    0  501    0  0.00000000000E+00 -0.00000000000E+00 -0.80516315243E+02  0.80516315243E+02  0.00000000000E+00 0. -1.
         25    2    1    2    0    0  0.41907491735E+02  0.47372235161E+02  0.68156057842E+02  0.15586345459E+03  0.12509117366E+03 0.  0.
         23    2    1    2    0    0 -0.41907491735E+02 -0.47372235161E+02  0.48415235942E+02  0.12174046968E+03  0.92067042746E+02 0.  0.
          5    1    3    3  502    0  0.72403064459E+02  0.14815092823E+02 -0.33179020742E+00  0.74022112933E+02  0.41800000000E+01 0.  1.
         -5    1    3    3    0  502 -0.30495572724E+02  0.32557142338E+02  0.68487848050E+02  0.81841341652E+02  0.41800000000E+01 0.  1.
        -11    1    4    4    0    0 -0.44025296461E+02 -0.34314917566E+02  0.74146235370E+02  0.92808429120E+02  0.00000000000E+00 0.  1.
         11    1    4    4    0    0  0.21178047267E+01 -0.13057317595E+02 -0.25730999428E+02  0.28932040564E+02  0.00000000000E+00 0. -1.
</event>
<event>
 8    1  0.7136454E-009  0.1494194E+03  0.7561462E-02  0.1201188E+00
          2   -1    0    0  501    0  0.00000000000E+00  0.00000000000E+00  0.39927806866E+03  0.39927806866E+03  0.00000000000E+00 0. -1.
         -2   -1    0    0    0  501 -0.00000000000E+00 -0.00000000000E+00 -0.81622598932E+02  0.81622598932E+02  0.00000000000E+00 0.  1.
         25    2    1    2    0    0 -0.13995680827E+03 -0.11143597203E+02  0.21322033250E+03  0.28429596132E+03  0.12509674453E+03 0.  0.
         23    2    1    2    0    0  0.13995680827E+03  0.11143597203E+02  0.10443513723E+03  0.19660470627E+03  0.89636068078E+02 0.  0.
          5    1    3    3  502    0 -0.82869741391E+01  0.96358658094E+01 -0.14916450949E+02  0.20037384040E+02  0.41800000000E+01 0. -1.
         -5    1    3    3    0  502 -0.13166983413E+03 -0.20779463012E+02  0.22813678345E+03  0.26425857728E+03  0.41800000000E+01 0. -1.
        -11    1    4    4    0    0  0.13435668085E+02 -0.17803778981E+02 -0.91719058147E+01  0.24116707469E+02  0.00000000000E+00 0.  1.
         11    1    4    4    0    0  0.12652114019E+03  0.28947376184E+02  0.11360704304E+03  0.17248799880E+03  0.00000000000E+00 0. -1.
</event>
<event>
 8    1  0.7136454E-009  0.7149149E+02  0.7561462E-02  0.1355093E+00
         -1   -1    0    0    0  501 -0.00000000000E+00  0.00000000000E+00  0.16327523837E+03  0.16327523837E+03  0.00000000000E+00 0.  1.
          1   -1    0    0  501    0  0.00000000000E+00 -0.00000000000E+00 -0.76178511902E+02  0.76178511902E+02  0.00000000000E+00 0. -1.
         25    2    1    2    0    0 -0.25583727003E+02 -0.13118198169E+02  0.48794055163E+02  0.13726596395E+03  0.12503787758E+03 0.  0.
         23    2    1    2    0    0  0.25583727003E+02  0.13118198169E+02  0.38302671306E+02  0.10218778632E+03  0.90269789153E+02 0.  0.
          5    1    3    3  502    0 -0.38632613110E+02  0.28667666714E+01 -0.34076549685E+02  0.51762735488E+02  0.41800000000E+01 0. -1.
         -5    1    3    3    0  502  0.13048886107E+02 -0.15984964841E+02  0.82870604848E+02  0.85503228462E+02  0.41800000000E+01 0. -1.
        -11    1    4    4    0    0  0.45004945101E+02  0.32511236331E+02  0.56169713264E+00  0.55522437581E+02  0.00000000000E+00 0. -1.
         11    1    4    4    0    0 -0.19421218098E+02 -0.19393038162E+02  0.37740974173E+02  0.46665348741E+02  0.00000000000E+00 0.  1.
</event>
<event>
 8    1  0.7136454E-009  0.1410618E+03  0.7561462E-02  0.1211907E+00
          1   -1    0    0  501    0  0.00000000000E+00  0.00000000000E+00  0.25302932668E+03  0.25302932668E+03  0.00000000000E+00 0. -1.
         -1   -1    0    0    0  501 -0.00000000000E+00 -0.00000000000E+00 -0.12915541919E+03  0.12915541919E+03  0.00000000000E+00 0.  1.
         25    2    1    2    0    0  0.79471092654E+02 -0.67628826124E+02  0.17141349872E+03  0.23646954430E+03  0.12508375254E+03 0.  0.
         23    2    1    2    0    0 -0.79471092654E+02  0.67628826124E+02 -0.47539591226E+02  0.14571520157E+03  0.89908812379E+02 0.  0.
          5    1    3    3  502    0  0.10112286800E+03 -0.11613610264E+02  0.11900175502E+03  0.15665120642E+03  0.41800000000E+01 0.  1.
         -5    1    3    3    0  502 -0.21651775351E+02 -0.56015215860E+02  0.52411743701E+02  0.79818337877E+02  0.41800000000E+01 0.  1.
        -11    1    4    4    0    0 -0.57267390177E+01  0.41379539951E+02 -0.52723619925E+02  0.67266945555E+02  0.00000000000E+00 0.  1.
         11    1    4    4    0    0 -0.73744353637E+02  0.26249286173E+02  0.51840286986E+01  0.78448256012E+02  0.00000000000E+00 0. -1.
</event>
<event>
 8    1  0.7136454E-009  0.1166573E+03  0.7561462E-02  0.1248716E+00
          2   -1    0    0  501    0  0.00000000000E+00  0.00000000000E+00  0.10061413737E+03  0.10061413737E+03  0.00000000000E+00 0. -1.
         -2   -1    0    0    0  501 -0.00000000000E+00 -0.00000000000E+00 -0.17424830861E+03  0.17424830861E+03  0.00000000000E+00 0.  1.
         25    2    1    2    0    0 -0.33267570201E+02  0.64060013680E+02 -0.14900144807E+02  0.14518872065E+03  0.12508930294E+03 0.  0.
         23    2    1    2    0    0  0.33267570201E+02 -0.64060013680E+02 -0.58734026435E+02  0.12967372532E+03  0.90305994250E+02 0.  0.
          5    1    3    3  502    0  0.28884403452E+02 -0.28446244429E+01  0.31192265381E+02  0.42811569354E+02  0.41800000000E+01 0.  1.
         -5    1    3    3    0  502 -0.62151973653E+02  0.66904638123E+02 -0.46092410188E+02  0.10237715130E+03  0.41800000000E+01 0.  1.
        -11    1    4    4    0    0  0.38117354736E+02  0.91549617971E+01 -0.35008223613E+02  0.52557794647E+02  0.00000000000E+00 0.  1.
         11    1    4    4    0    0 -0.48497845357E+01 -0.73214975477E+02 -0.23725802821E+02  0.77115930673E+02  0.00000000000E+00 0. -1.
</event>
<event>
 8    1  0.7136454E-009  0.9690554E+02  0.7561462E-02  0.1286941E+00
          1   -1    0    0  501    0  0.00000000000E+00  0.00000000000E+00  0.10010708477E+04  0.10010708477E+04  0.00000000000E+00 0. -1.
         -1   -1    0    0    0  501 -0.00000000000E+00 -0.00000000000E+00 -0.18082314543E+02  0.18082314543E+02  0.00000000000E+00 0.  1.
         25    2    1    2    0    0 -0.62388184148E+02 -0.31193335947E+02  0.67255405896E+03  0.68763521724E+03  0.12509164654E+03 0.  0.
         23    2    1    2    0    0  0.62388184148E+02  0.31193335947E+02  0.31043447416E+03  0.33151794496E+03  0.93108943497E+02 0.  0.
          5    1    3    3  502    0 -0.34345197740E+02  0.11516240569E+02  0.44677930720E+02  0.57669804040E+02  0.41800000000E+01 0.  1.
         -5    1    3    3    0  502 -0.28042986409E+02 -0.42709576517E+02  0.62787612824E+03  0.62996541320E+03  0.41800000000E+01 0.  1.
        -11    1    4    4    0    0 -0.16676366205E+02  0.20298936254E+02  0.29665335499E+02  0.39625498521E+02  0.00000000000E+00 0.  1.
         11    1    4    4    0    0  0.79064550353E+02  0.10894399693E+02  0.28076913866E+03  0.29189244644E+03  0.00000000000E+00 0. -1.
</event>
<event>
 8    1  0.7136454E-009  0.1075614E+03  0.7561462E-02  0.1265154E+00
         -1   -1    0    0    0  501 -0.00000000000E+00  0.00000000000E+00  0.25272649671E+02  0.25272649671E+02  0.00000000000E+00 0.  1.
          1   -1    0    0  501    0  0.00000000000E+00 -0.00000000000E+00 -0.55234014565E+03  0.55234014565E+03  0.00000000000E+00 0. -1.
         25    2    1    2    0    0  0.31763338509E+02  0.33224924130E+02 -0.26122175700E+03  0.29325402405E+03  0.12509320939E+03 0.  0.
         23    2    1    2    0    0 -0.31763338509E+02 -0.33224924130E+02 -0.26584573898E+03  0.28435877127E+03  0.89850701760E+02 0.  0.
          5    1    3    3  502    0  0.71171287207E+02  0.76466897442E+01 -0.86894140202E+02  0.11265827971E+03  0.41800000000E+01 0.  1.
         -5    1    3    3    0  502 -0.39407948698E+02  0.25578234386E+02 -0.17432761680E+03  0.18059574434E+03  0.41800000000E+01 0.  1.
        -11    1    4    4    0    0  0.28379175619E+02 -0.19875358155E+02 -0.14026573603E+03  0.14448143194E+03  0.00000000000E+00 0. -1.
         11    1    4    4    0    0 -0.60142514129E+02 -0.13349565975E+02 -0.12558000295E+03  0.13987733933E+03  0.00000000000E+00 0.  1.
</event>
<event>
 8    1  0.7136454E-009  0.6921737E+02  0.7561462E-02  0.1362775E+00
         -2   -1    0    0    0  501 -0.00000000000E+00  0.00000000000E+00  0.48371162332E+02  0.48371162332E+02  0.00000000000E+00 0. -1.
          2   -1    0    0  501    0  0.00000000000E+00 -0.00000000000E+00 -0.35535275888E+03  0.35535275888E+03  0.00000000000E+00 0.  1.
         25    2    1    2    0    0  0.72596960582E+01 -0.50987777041E+02 -0.25073209733E+03  0.28489856884E+03  0.12509257891E+03 0.  0.
         23    2    1    2    0    0 -0.72596960582E+01  0.50987777041E+02 -0.56249499221E+02  0.11882535238E+03  0.91120807780E+02 0.  0.
          5    1    3    3  502    0 -0.66857710062E+01 -0.57427247567E+01  0.13371963755E+02  0.16551744206E+02  0.41800000000E+01 0. -1.
         -5    1    3    3    0  502  0.13945467064E+02 -0.45245052285E+02 -0.26410406109E+03  0.26834682463E+03  0.41800000000E+01 0. -1.
        -11    1    4    4    0    0  0.23477962210E+02  0.43628055150E+02 -0.68830308220E+02  0.84807035294E+02  0.00000000000E+00 0.  1.
         11    1    4    4    0    0 -0.30737658268E+02  0.73597218913E+01  0.12580808999E+02  0.34018317083E+02  0.00000000000E+00 0. -1.
</event>
<event>
 8    1  0.7136454E-009  0.1054098E+03  0.7561462E-02  0.1269314E+00
         -2   -1    0    0    0  501 -0.00000000000E+00  0.00000000000E+00  0.45084868051E+02  0.45084868051E+02  0.00000000000E+00 0.  1.
          2   -1    0    0  501    0  0.00000000000E+00 -0.00000000000E+00 -0.42866574726E+03  0.42866574726E+03  0.00000000000E+00 0. -1.
         25    2    1    2    0    0 -0.26096086192E+02  0.76128588527E+02 -0.26622702502E+03  0.30496627618E+03  0.12510408886E+03 0.  0.
         23    2    1    2    0    0  0.26096086192E+02 -0.76128588527E+02 -0.11735385419E+03  0.16878433913E+03  0.90772563792E+02 0.  0.
          5    1    3    3  502    0  0.29446569480E+02  0.65856510874E+02 -0.22091341055E+03  0.23243146912E+03  0.41800000000E+01 0.  1.
         -5    1    3    3    0  502 -0.55542655672E+02  0.10272077652E+02 -0.45313614477E+02  0.72534807061E+02  0.41800000000E+01 0.  1.
        -11    1    4    4    0    0  0.18142076986E+02 -0.29609572540E+02  0.73097670358E+01  0.35486538821E+02  0.00000000000E+00 0.  1.
         11    1    4    4    0    0  0.79540092060E+01 -0.46519015987E+02 -0.12466362122E+03  0.13329780031E+03  0.00000000000E+00 0. -1.
</event>
<event>
 8    1  0.7136454E-009  0.1036649E+03  0.7561462E-02  0.1272773E+00
         -3   -1    0    0    0  501 -0.00000000000E+00  0.00000000000E+00  0.86133762627E+02  0.86133762627E+02  0.00000000000E+00 0.  1.
          3   -1    0    0  501    0  0.00000000000E+00 -0.00000000000E+00 -0.21348016704E+03  0.21348016704E+03  0.00000000000E+00 0. -1.
         25    2    1    2    0    0 -0.34622707896E+02  0.53300941745E+02 -0.12837069374E+03  0.19017393381E+03  0.12508943919E+03 0.  0.
         23    2    1    2    0    0  0.34622707896E+02 -0.53300941745E+02  0.10242893230E+01  0.10943999586E+03  0.89086145009E+02 0.  0.
          5    1    3    3  502    0 -0.36059821354E+02 -0.10156345096E+02  0.90309428608E+01  0.38761996734E+02  0.41800000000E+01 0. -1.
         -5    1    3    3    0  502  0.14371134578E+01  0.63457286841E+02 -0.13740163660E+03  0.15141193708E+03  0.41800000000E+01 0. -1.
        -11    1    4    4    0    0  0.33117783776E+02 -0.76194397569E+02  0.12111344233E+02  0.83958671275E+02  0.00000000000E+00 0.  1.
         11    1    4    4    0    0  0.15049241203E+01  0.22893455823E+02 -0.11087054910E+02  0.25481324587E+02  0.00000000000E+00 0. -1.
</event>
<event>
 8    1  0.7136454E-009  0.1636084E+03  0.7561462E-02  0.1184682E+00
          1   -1    0    0  501    0  0.00000000000E+00  0.00000000000E+00  0.73015037449E+03  0.73015037449E+03  0.00000000000E+00 0. -1.
         -1   -1    0    0    0  501 -0.00000000000E+00 -0.00000000000E+00 -0.40644910433E+02  0.40644910433E+02  0.00000000000E+00 0.  1.
         25    2    1    2    0    0  0.13039486424E+03  0.36001099827E+02  0.37167905755E+03  0.41483920933E+03  0.12508935992E+03 0.  0.
         23    2    1    2    0    0 -0.13039486424E+03 -0.36001099827E+02  0.31782640651E+03  0.35595607559E+03  0.85977923161E+02 0.  0.
          5    1    3    3  502    0  0.12439265582E+03  0.73843284362E+02  0.30984851527E+03  0.34197944131E+03  0.41800000000E+01 0.  1.
         -5    1    3    3    0  502  0.60022084204E+01 -0.37842184535E+02  0.61830542280E+02  0.72859768013E+02  0.41800000000E+01 0.  1.
        -11    1    4    4    0    0 -0.33725302622E+02  0.12288963497E+02  0.24769528773E+02  0.43611285425E+02  0.00000000000E+00 0.  1.
         11    1    4    4    0    0 -0.96669561617E+02 -0.48290063323E+02  0.29305687773E+03  0.31234479017E+03  0.00000000000E+00 0. -1.
</event>
<event>
 8    1  0.7136454E-009  0.1031852E+03  0.7561462E-02  0.1273737E+00
         -1   -1    0    0    0  501 -0.00000000000E+00  0.00000000000E+00  0.38959275029E+02  0.38959275029E+02  0.00000000000E+00 0.  1.
          1   -1    0    0  501    0  0.00000000000E+00 -0.00000000000E+00 -0.50638045683E+03  0.50638045683E+03  0.00000000000E+00 0. -1.
         25    2    1    2    0    0 -0.77115275026E+02 -0.30477729813E+02 -0.28889877505E+03  0.32555510277E+03  0.12509182650E+03 0.  0.
         23    2    1    2    0    0  0.77115275026E+02  0.30477729813E+02 -0.17852240676E+03  0.21978462910E+03  0.97772060505E+02 0.  0.
          5    1    3    3  502    0 -0.80591026547E+02 -0.26315259514E+02 -0.80306177355E+02  0.11685016459E+03  0.41800000000E+01 0.  1.
         -5    1    3    3    0  502  0.34757515213E+01 -0.41624702991E+01 -0.20859259769E+03  0.20870493818E+03  0.41800000000E+01 0.  1.
        -11    1    4    4    0    0  0.31646595359E+02  0.54646828556E+02 -0.14549918422E+03  0.15861209121E+03  0.00000000000E+00 0. -1.
         11    1    4    4    0    0  0.45468679667E+02 -0.24169098742E+02 -0.33023222535E+02  0.61172537885E+02  0.00000000000E+00 0.  1.
</event>
<event>
 8    1  0.7136454E-009  0.7022888E+02  0.7561462E-02  0.1359316E+00
         -2   -1    0    0    0  501 -0.00000000000E+00  0.00000000000E+00  0.34854477571E+02  0.34854477571E+02  0.00000000000E+00 0.  1.
          2   -1    0    0  501    0  0.00000000000E+00 -0.00000000000E+00 -0.35094131360E+03  0.35094131360E+03  0.00000000000E+00 0. -1.
         25    2    1    2    0    0 -0.21345761459E+02  0.75022965104E+01 -0.16428487285E+03  0.20772209384E+03  0.12508806033E+03 0.  0.
         23    2    1    2    0    0  0.21345761459E+02 -0.75022965104E+01 -0.15180196318E+03  0.17807369733E+03  0.90302157615E+02 0.  0.
          5    1    3    3  502    0 -0.36946349844E+02  0.74369215457E+01 -0.18073428570E+03  0.18466915010E+03  0.41800000000E+01 0. -1.
         -5    1    3    3    0  502  0.15600588385E+02  0.65374964712E-01  0.16449412857E+02  0.23052943742E+02  0.41800000000E+01 0. -1.
        -11    1    4    4    0    0 -0.32299437936E+02 -0.63871496911E+00 -0.91683704734E+02  0.97208864624E+02  0.00000000000E+00 0. -1.
         11    1    4    4    0    0  0.53645199396E+02 -0.68635815413E+01 -0.60118258445E+02  0.80864832704E+02  0.00000000000E+00 0.  1.
</event>
<event>
 8    1  0.7136454E-009  0.2021553E+03  0.7561462E-02  0.1147933E+00
          1   -1    0    0  501    0  0.00000000000E+00  0.00000000000E+00  0.10422556028E+04  0.10422556028E+04  0.00000000000E+00 0. -1.
         -1   -1    0    0    0  501 -0.00000000000E+00 -0.00000000000E+00 -0.45844214071E+02  0.45844214071E+02  0.00000000000E+00 0.  1.
         25    2    1    2    0    0  0.45014852469E+02  0.18505926280E+03  0.53130062271E+03  0.57810000826E+03  0.12508397247E+03 0.  0.
         23    2    1    2    0    0 -0.45014852469E+02 -0.18505926280E+03  0.46511076599E+03  0.50999980859E+03  0.86593951427E+02 0.  0.
          5    1    3    3  502    0 -0.29371778036E+02  0.44945022877E+02  0.24413327894E+03  0.25000257341E+03  0.41800000000E+01 0.  1.
         -5    1    3    3    0  502  0.74386630504E+02  0.14011423992E+03  0.28716734377E+03  0.32809743485E+03  0.41800000000E+01 0.  1.
        -11    1    4    4    0    0 -0.46757912644E+02 -0.16123812190E+03  0.45322982739E+03  0.48332319496E+03  0.00000000000E+00 0. -1.
         11    1    4    4    0    0  0.17430601751E+01 -0.23821140897E+02  0.11880938601E+02  0.26676613625E+02  0.00000000000E+00 0.  1.
</event>
<event>
 8    1  0.7136454E-009  0.1023767E+03  0.7561462E-02  0.1275376E+00
         -3   -1    0    0    0  501 -0.00000000000E+00  0.00000000000E+00  0.58573598400E+02  0.58573598400E+02  0.00000000000E+00 0.  1.
          3   -1    0    0  501    0  0.00000000000E+00 -0.00000000000E+00 -0.25622495641E+03  0.25622495641E+03  0.00000000000E+00 0. -1.
         25    2    1    2    0    0  0.42238580938E+01 -0.57235202890E+02 -0.10396090346E+03  0.17247608479E+03  0.12508565445E+03 0.  0.
         23    2    1    2    0    0 -0.42238580938E+01  0.57235202890E+02 -0.93690454549E+02  0.14232247002E+03  0.90465876285E+02 0.  0.
          5    1    3    3  502    0 -0.48222950477E+02 -0.15554605818E+01 -0.70420396575E+01  0.48938074470E+02  0.41800000000E+01 0.  1.
         -5    1    3    3    0  502  0.52446808570E+02 -0.55679742308E+02 -0.96918863802E+02  0.12353801032E+03  0.41800000000E+01 0.  1.
        -11    1    4    4    0    0 -0.27801558682E+02  0.15619988149E+02  0.53523992406E+01  0.32335102792E+02  0.00000000000E+00 0.  1.
         11    1    4    4    0    0  0.23577700589E+02  0.41615214741E+02 -0.99042853789E+02  0.10998736723E+03  0.00000000000E+00 0. -1.
</event>
<event>
 8    1  0.7136454E-009  0.1316175E+03  0.7561462E-02  0.1225075E+00
         -2   -1    0    0    0  501 -0.00000000000E+00  0.00000000000E+00  0.35386035386E+02  0.35386035386E+02  0.00000000000E+00 0.  1.
          2   -1    0    0  501    0  0.00000000000E+00 -0.00000000000E+00 -0.97984761892E+03  0.97984761892E+03  0.00000000000E+00 0. -1.
         25    2    1    2    0    0 -0.11398979839E+03 -0.58963033339E+02 -0.70929602831E+03  0.73158726247E+03  0.12509497751E+03 0.  0.
         23    2    1    2    0    0  0.11398979839E+03  0.58963033339E+02 -0.23516555523E+03  0.28364639184E+03  0.93177914764E+02 0.  0.
          5    1    3    3  502    0 -0.27220073322E+01 -0.13852644963E+02 -0.28472376273E+01  0.14996141453E+02  0.41800000000E+01 0. -1.
         -5    1    3    3    0  502 -0.11126779106E+03 -0.45110388376E+02 -0.70644879068E+03  0.71659112102E+03  0.41800000000E+01 0. -1.
        -11    1    4    4    0    0  0.23357492674E+02  0.10679991781E+02 -0.14416980500E+03  0.14643963726E+03  0.00000000000E+00 0. -1.
         11    1    4    4    0    0  0.90632305717E+02  0.48283041558E+02 -0.90995750234E+02  0.13720675458E+03  0.00000000000E+00 0.  1.
</event>
<event>
 8    1  0.7136454E-009  0.1376556E+03  0.7561462E-02  0.1216519E+00
         -2   -1    0    0    0  501 -0.00000000000E+00  0.00000000000E+00  0.16116807434E+03  0.16116807434E+03  0.00000000000E+00 0.  1.
          2   -1    0    0  501    0  0.00000000000E+00 -0.00000000000E+00 -0.12489076441E+03  0.12489076441E+03  0.00000000000E+00 0. -1.
         25    2    1    2    0    0 -0.18477637703E+02  0.87386664996E+02  0.19673144444E+01  0.15369567692E+03  0.12506253821E+03 0.  0.
         23    2    1    2    0    0  0.18477637703E+02 -0.87386664996E+02  0.34309995480E+02  0.13236316183E+03  0.91460256429E+02 0.  0.
          5    1    3    3  502    0 -0.20635819864E+02  0.11773320524E+03  0.14601863060E+02  0.12048913429E+03  0.41800000000E+01 0. -1.
         -5    1    3    3    0  502  0.21581821606E+01 -0.30346540240E+02 -0.12634548615E+02  0.33206542631E+02  0.41800000000E+01 0. -1.
        -11    1    4    4    0    0  0.49565539229E+02 -0.25489481560E+02  0.29169254412E+02  0.62907088251E+02  0.00000000000E+00 0.  1.
         11    1    4    4    0    0 -0.31087901526E+02 -0.61897183436E+02  0.51407410679E+01  0.69456073581E+02  0.00000000000E+00 0. -1.
</event>
<event>
 8    1  0.7136454E-009  0.1070750E+03  0.7561462E-02  0.1266084E+00
         -1   -1    0    0    0  501 -0.00000000000E+00  0.00000000000E+00  0.10580297001E+03  0.10580297001E+03  0.00000000000E+00 0.  1.
          1   -1    0    0  501    0  0.00000000000E+00 -0.00000000000E+00 -0.16648386533E+03  0.16648386533E+03  0.00000000000E+00 0. -1.
         25    2    1    2    0    0 -0.11359192415E+02 -0.73983437389E+02 -0.45975825854E+02  0.15285168773E+03  0.12508909473E+03 0.  0.
         23    2    1    2    0    0  0.11359192415E+02  0.73983437389E+02 -0.14705069466E+02  0.11943514762E+03  0.91901769068E+02 0.  0.
          5    1    3    3  502    0  0.31448544336E+02 -0.51476190758E+02 -0.74963594040E+02  0.96311068872E+02  0.41800000000E+01 0. -1.
         -5    1    3    3    0  502 -0.42807736751E+02 -0.22507246631E+02  0.28987768186E+02  0.56540618860E+02  0.41800000000E+01 0. -1.
        -11    1    4    4    0    0 -0.50629464212E+01  0.85136595780E+02  0.12034862733E+02  0.86131941163E+02  0.00000000000E+00 0.  1.
         11    1    4    4    0    0  0.16422138836E+02 -0.11153158391E+02 -0.26739932199E+02  0.33303206453E+02  0.00000000000E+00 0. -1.
</event>
<event>
 7    1  0.7136454E-009  0.1096172E+03  0.7561462E-02  0.1261280E+00
          4   -1    0    0  501    0  0.00000000000E+00  0.00000000000E+00  0.38032992400E+02  0.38032992400E+02  0.00000000000E+00 0. -1.
         -4   -1    0    0    0  501 -0.00000000000E+00 -0.00000000000E+00 -0.42813124921E+03  0.42813124921E+03  0.00000000000E+00 0.  1.
         23    2    1    2    0    0 -0.54828245771E+02  0.42327278852E+01 -0.24485993002E+03  0.26679212120E+03  0.90540588064E+02 0.  0.
          5    1    1    2  502    0 -0.28696778442E-01  0.44809557837E+02 -0.10756518613E+03  0.11660033862E+03  0.41800000000E+01 0. -1.
         -5    1    1    2    0  502  0.54856942549E+02 -0.49042285722E+02 -0.37673140662E+02  0.82771781798E+02  0.41800000000E+01 0. -1.
        -11    1    3    3    0    0 -0.60252404454E+02  0.34735341735E+02 -0.12555617187E+03  0.14353135024E+03  0.00000000000E+00 0. -1.
         11    1    3    3    0    0  0.54241586825E+01 -0.30502613850E+02 -0.11930375815E+03  0.12326077096E+03  0.00000000000E+00 0.  1.
</event>
<event>
 7    1  0.7136454E-009  0.2314224E+03  0.7561462E-02  0.1125643E+00
          1   -1    0    0  501    0  0.00000000000E+00  0.00000000000E+00  0.15011861845E+03  0.15011861845E+03  0.00000000000E+00 0. -1.
         -1   -1    0    0    0  501 -0.00000000000E+00 -0.00000000000E+00 -0.49349563692E+03  0.49349563692E+03  0.00000000000E+00 0.  1.
         23    2    1    2    0    0  0.16680176843E+03 -0.15196765502E+03 -0.29355054188E+03  0.38103781380E+03  0.90004982020E+02 0.  0.
          5    1    1    2  502    0 -0.15867251529E+03  0.12140993079E+03  0.41504175730E+01  0.19988005595E+03  0.41800000000E+01 0.  1.
         -5    1    1    2    0  502 -0.81292531435E+01  0.30557724227E+02 -0.53976894168E+02  0.62696385626E+02  0.41800000000E+01 0.  1.
        -11    1    3    3    0    0  0.77599956967E+02 -0.38052527031E+02 -0.17029104425E+03  0.19096802844E+03  0.00000000000E+00 0.  1.
         11    1    3    3    0    0  0.89201811462E+02 -0.11391512798E+03 -0.12325949762E+03  0.19006978536E+03  0.00000000000E+00 0. -1.
</event>
<event>
 8    1  0.7136454E-009  0.1100692E+03  0.7561462E-02  0.1260442E+00
          1   -1    0    0  501    0  0.00000000000E+00  0.00000000000E+00  0.72873483297E+03  0.72873483297E+03  0.00000000000E+00 0. -1.
         -1   -1    0    0    0  501 -0.00000000000E+00 -0.00000000000E+00 -0.19825098536E+02  0.19825098536E+02  0.00000000000E+00 0.  1.
         25    2    1    2    0    0 -0.13632888129E+02 -0.20168746423E+02  0.54359632715E+03  0.55833370433E+03  0.12508766736E+03 0.  0.
         23    2    1    2    0    0  0.13632888129E+02  0.20168746423E+02  0.16531340728E+03  0.19022622718E+03  0.90911280423E+02 0.  0.
          5    1    3    3  502    0  0.12729443652E+02 -0.69781058048E+02  0.31031169674E+03  0.31834298536E+03  0.41800000000E+01 0. -1.
         -5    1    3    3    0  502 -0.26362331781E+02  0.49612311624E+02  0.23328463041E+03  0.23999071896E+03  0.41800000000E+01 0. -1.
        -11    1    4    4    0    0  0.34445824313E+02 -0.25300867777E+02  0.92478455737E+02  0.10187695273E+03  0.00000000000E+00 0.  1.
         11    1    4    4    0    0 -0.20812936185E+02  0.45469614200E+02  0.72834951545E+02  0.88349274444E+02  0.00000000000E+00 0. -1.
</event>
<event>
 8    1  0.7136454E-009  0.1174338E+03  0.7561462E-02  0.1247391E+00
         -1   -1    0    0    0  501 -0.00000000000E+00  0.00000000000E+00  0.40809205516E+02  0.40809205516E+02  0.00000000000E+00 0.  1.
          1   -1    0    0  501    0  0.00000000000E+00 -0.00000000000E+00 -0.36847237781E+03  0.36847237781E+03  0.00000000000E+00 0. -1.
         25    2    1    2    0    0  0.26472500995E+02  0.47201363264E+02 -0.14310145297E+03  0.19761890097E+03  0.12508573930E+03 0.  0.
         23    2    1    2    0    0 -0.26472500995E+02 -0.47201363264E+02 -0.18456171932E+03  0.21166268235E+03  0.88370248721E+02 0.  0.
          5    1    3    3  502    0  0.57122416184E+02 -0.21179284602E+02 -0.69172406950E+02  0.92270400509E+02  0.41800000000E+01 0.  1.
         -5    1    3    3    0  502 -0.30649915189E+02  0.68380647866E+02 -0.73929046017E+02  0.10534850046E+03  0.41800000000E+01 0.  1.
        -11    1    4    4    0    0  0.14253794259E+02  0.17331944435E+02 -0.73967357631E+02  0.77296422579E+02  0.00000000000E+00 0. -1.
         11    1    4    4    0    0 -0.40726295255E+02 -0.64533307700E+02 -0.11059436169E+03  0.13436625978E+03  0.00000000000E+00 0.  1.
</event>
<event>
 8    1  0.7136454E-009  0.9085716E+02  0.7561462E-02  0.1300789E+00
          2   -1    0    0  501    0  0.00000000000E+00  0.00000000000E+00  0.10373146116E+03  0.10373146116E+03  0.00000000000E+00 0. -1.
         -2   -1    0    0    0  501 -0.00000000000E+00 -0.00000000000E+00 -0.12800011529E+03  0.12800011529E+03  0.00000000000E+00 0.  1.
         25    2    1    2    0    0  0.13985477098E+02 -0.35278074315E+02 -0.16681737548E+02  0.13177964196E+03  0.12508979803E+03 0.  0.
         23    2    1    2    0    0 -0.13985477098E+02  0.35278074315E+02 -0.75869165795E+01  0.99951934492E+02  0.92155801816E+02 0.  0.
          5    1    3    3  502    0 -0.55800892149E+02 -0.15851785865E+02 -0.73487091272E+01  0.58621622338E+02  0.41800000000E+01 0.  1.
         -5    1    3    3    0  502  0.69786369247E+02 -0.19426288450E+02 -0.93330284208E+01  0.73158019623E+02  0.41800000000E+01 0.  1.
        -11    1    4    4    0    0  0.15077401331E+01  0.35468465778E+02  0.37881359690E+02  0.51916112691E+02  0.00000000000E+00 0. -1.
         11    1    4    4    0    0 -0.15493217231E+02 -0.19039146299E+00 -0.45468276270E+02  0.48035821800E+02  0.00000000000E+00 0.  1.
</event>
<event>
 8    1  0.7136454E-009  0.1003982E+03  0.7561462E-02  0.1279461E+00
         -4   -1    0    0    0  501 -0.00000000000E+00  0.00000000000E+00  0.20348347464E+03  0.20348347464E+03  0.00000000000E+00 0.  1.
          4   -1    0    0  501    0  0.00000000000E+00 -0.00000000000E+00 -0.75159685146E+02  0.75159685146E+02  0.00000000000E+00 0. -1.
         25    2    1    2    0    0  0.22530558020E+02 -0.35198576041E+02  0.12147062341E+03  0.17930600191E+03  0.12509581996E+03 0.  0.
         23    2    1    2    0    0 -0.22530558020E+02  0.35198576041E+02  0.68531660880E+01  0.99337157873E+02  0.89857327186E+02 0.  0.
          5    1    3    3  502    0 -0.27750402598E+02 -0.65364876417E+02  0.50956895778E+02  0.87502740190E+02  0.41800000000E+01 0.  1.
         -5    1    3    3    0  502  0.50280960618E+02  0.30166300377E+02  0.70513727628E+02  0.91803261723E+02  0.41800000000E+01 0.  1.
        -11    1    4    4    0    0 -0.36954979680E+02  0.41118797601E+02 -0.27399830539E+02  0.61702323723E+02  0.00000000000E+00 0. -1.
         11    1    4    4    0    0  0.14424421660E+02 -0.59202215606E+01  0.34252996627E+02  0.37634834150E+02  0.00000000000E+00 0.  1.
</event>
<event>
 8    1  0.7136454E-009  0.1044819E+03  0.7561462E-02  0.1271144E+00
         -2   -1    0    0    0  501 -0.00000000000E+00  0.00000000000E+00  0.63774138969E+02  0.63774138969E+02  0.00000000000E+00 0.  1.
          2   -1    0    0  501    0  0.00000000000E+00 -0.00000000000E+00 -0.20135600098E+03  0.20135600098E+03  0.00000000000E+00 0. -1.
         25    2    1    2    0    0 -0.18228877023E+02 -0.87568343482E+00 -0.41264830136E+02  0.13294973761E+03  0.12505913699E+03 0.  0.
         23    2    1    2    0    0  0.18228877023E+02  0.87568343482E+00 -0.96317031873E+02  0.13218040234E+03  0.88665829692E+02 0.  0.
          5    1    3    3  502    0  0.50536855446E+02  0.66083222445E+01  0.21359148381E+01  0.51182792162E+02  0.41800000000E+01 0. -1.
         -5    1    3    3    0  502 -0.68765732469E+02 -0.74840056793E+01 -0.43400744974E+02  0.81766945445E+02  0.41800000000E+01 0. -1.
        -11    1    4    4    0    0  0.38090657541E+02  0.33239947209E+02 -0.68375304882E+02  0.85035137443E+02  0.00000000000E+00 0. -1.
         11    1    4    4    0    0 -0.19861780517E+02 -0.32364263774E+02 -0.27941726991E+02  0.47145264897E+02  0.00000000000E+00 0.  1.
</event>
<event>
 8    1  0.7136454E-009  0.1125695E+03  0.7561462E-02  0.1255884E+00
          1   -1    0    0  501    0  0.00000000000E+00  0.00000000000E+00  0.13928577570E+04  0.13928577570E+04  0.00000000000E+00 0. -1.
         -1   -1    0    0    0  501 -0.00000000000E+00 -0.00000000000E+00 -0.14196793861E+02  0.14196793861E+02  0.00000000000E+00 0.  1.
         25    2    1    2    0    0 -0.88984092807E+02 -0.69766993924E+01  0.72957126271E+03  0.74557924278E+03  0.12508931524E+03 0.  0.
         23    2    1    2    0    0  0.88984092807E+02  0.69766993924E+01  0.64908970042E+03  0.66147530807E+03  0.90913700219E+02 0.  0.
          5    1    3    3  502    0 -0.19508131980E+02 -0.27360449784E+02  0.56159602766E+03  0.56261597215E+03  0.41800000000E+01 0. -1.
         -5    1    3    3    0  502 -0.69475960827E+02  0.20383750392E+02  0.16797523504E+03  0.18296327063E+03  0.41800000000E+01 0. -1.
        -11    1    4    4    0    0 -0.13714065286E+02  0.83284088788E+01  0.30956927283E+02  0.34867883903E+02  0.00000000000E+00 0.  1.
         11    1    4    4    0    0  0.10269815809E+03 -0.13517094865E+01  0.61813277313E+03  0.62660742416E+03  0.00000000000E+00 0. -1.
</event>
<event>
 8    1  0.7136454E-009  0.1921243E+03  0.7561462E-02  0.1156559E+00
          2   -1    0    0  501    0  0.00000000000E+00  0.00000000000E+00  0.16246133101E+03  0.16246133101E+03  0.00000000000E+00 0. -1.
         -2   -1    0    0    0  501 -0.00000000000E+00 -0.00000000000E+00 -0.28755581633E+03  0.28755581633E+03  0.00000000000E+00 0.  1.
         25    2    1    2    0    0  0.95490531970E+02  0.14682521644E+03 -0.12970220107E+03  0.25128972988E+03  0.12509109281E+03 0.  0.
         23    2    1    2    0    0 -0.95490531970E+02 -0.14682521644E+03  0.46077157558E+01  0.19872741746E+03  0.93783098306E+02 0.  0.
          5    1    3    3  502    0  0.38715569048E+01  0.10826949443E+03 -0.34985741403E+02  0.11392430328E+03  0.41800000000E+01 0.  1.
         -5    1    3    3    0  502  0.91618975065E+02  0.38555722008E+02 -0.94716459666E+02  0.13736542659E+03  0.41800000000E+01 0.  1.
        -11    1    4    4    0    0 -0.50525368735E+02 -0.95966951981E+02  0.47528010462E+02  0.11841191045E+03  0.00000000000E+00 0. -1.
         11    1    4    4    0    0 -0.44965163235E+02 -0.50858264457E+02 -0.42920294706E+02  0.80315507009E+02  0.00000000000E+00 0.  1.
</event>
<event>
 8    1  0.7136454E-009  0.8800285E+02  0.7561462E-02  0.1307761E+00
          2   -1    0    0  501    0  0.00000000000E+00  0.00000000000E+00  0.97881469358E+02  0.97881469358E+02  0.00000000000E+00 0.  1.
         -2   -1    0    0    0  501 -0.00000000000E+00 -0.00000000000E+00 -0.15960206945E+03  0.15960206945E+03  0.00000000000E+00 0. -1.
         25    2    1    2    0    0 -0.58023912066E+02  0.12623183575E+02 -0.17455326563E+02  0.13956537166E+03  0.12509070871E+03 0.  0.
         23    2    1    2    0    0  0.58023912066E+02 -0.12623183575E+02 -0.44265273527E+02  0.11791816715E+03  0.91755983830E+02 0.  0.
          5    1    3    3  502    0 -0.20559233639E+02 -0.18988018593E+02 -0.65159091804E+02  0.71038064322E+02  0.41800000000E+01 0. -1.
         -5    1    3    3    0  502 -0.37464678427E+02  0.31611202169E+02  0.47703765241E+02  0.68527307333E+02  0.41800000000E+01 0. -1.
        -11    1    4    4    0    0  0.27261212035E+02  0.33425729977E+02  0.54770263855E+01  0.43479316050E+02  0.00000000000E+00 0.  1.
         11    1    4    4    0    0  0.30762700031E+02 -0.46048913553E+02 -0.49742299912E+02  0.74438851100E+02  0.00000000000E+00 0. -1.
</event>
<event>
 8    1  0.7136454E-009  0.1177080E+03  0.7561462E-02  0.1246927E+00
         -1   -1    0    0    0  501 -0.00000000000E+00  0.00000000000E+00  0.13257131943E+03  0.13257131943E+03  0.00000000000E+00 0.  1.
          1   -1    0    0  501    0  0.00000000000E+00 -0.00000000000E+00 -0.11250868344E+03  0.11250868344E+03  0.00000000000E+00 0. -1.
         25    2    1    2    0    0  0.44197604135E+02 -0.28658933894E+02  0.35116302812E+02  0.14019645700E+03  0.12508848520E+03 0.  0.
         23    2    1    2    0    0 -0.44197604135E+02  0.28658933894E+02 -0.15053666826E+02  0.10488354587E+03  0.89438149609E+02 0.  0.
          5    1    3    3  502    0  0.58224692055E+02 -0.68216719058E+02  0.81916228938E+01  0.90156589386E+02  0.41800000000E+01 0.  1.
         -5    1    3    3    0  502 -0.14027087920E+02  0.39557785164E+02  0.26924679918E+02  0.50039867618E+02  0.41800000000E+01 0.  1.
        -11    1    4    4    0    0 -0.18548623629E+02  0.60088588940E+02 -0.13306985835E+02  0.64278813239E+02  0.00000000000E+00 0.  1.
         11    1    4    4    0    0 -0.25648980506E+02 -0.31429655046E+02 -0.17466809912E+01  0.40604732628E+02  0.00000000000E+00 0. -1.
</event>
<event>
 8    1  0.7136454E-009  0.1171079E+03  0.7561462E-02  0.1247946E+00
          1   -1    0    0  501    0  0.00000000000E+00  0.00000000000E+00  0.61322732359E+03  0.61322732359E+03  0.00000000000E+00 0. -1.
         -1   -1    0    0    0  501 -0.00000000000E+00 -0.00000000000E+00 -0.29217942437E+02  0.29217942437E+02  0.00000000000E+00 0.  1.
         25    2    1    2    0    0 -0.56245970714E+02 -0.52865000108E+02  0.36043762710E+03  0.38925773018E+03  0.12509188629E+03 0.  0.
         23    2    1    2    0    0  0.56245970714E+02  0.52865000108E+02  0.22357175405E+03  0.25318753585E+03  0.90339812054E+02 0.  0.
          5    1    3    3  502    0  0.15220683597E+02  0.15159910308E+02  0.80900666693E+01  0.23332673838E+02  0.41800000000E+01 0.  1.
         -5    1    3    3    0  502 -0.71466654311E+02 -0.68024910415E+02  0.35234756043E+03  0.36592505634E+03  0.41800000000E+01 0.  1.
        -11    1    4    4    0    0  0.37732721831E+02 -0.16938178781E+02  0.11997450534E+03  0.12690367264E+03  0.00000000000E+00 0. -1.
         11    1    4    4    0    0  0.18513248882E+02  0.69803178888E+02  0.10359724871E+03  0.12628386321E+03  0.00000000000E+00 0.  1.
</event>
<event>
 8    1  0.7136454E-009  0.2475114E+03  0.7561462E-02  0.1114888E+00
         -2   -1    0    0    0  501 -0.00000000000E+00  0.00000000000E+00  0.19281625823E+03  0.19281625823E+03  0.00000000000E+00 0.  1.
          2   -1    0    0  501    0  0.00000000000E+00 -0.00000000000E+00 -0.47277829200E+03  0.47277829200E+03  0.00000000000E+00 0. -1.
         25    2    1    2    0    0 -0.23212957713E+03 -0.55625764115E+02 -0.30652350019E+03  0.40814123809E+03  0.12507696768E+03 0.  0.
         23    2    1    2    0    0  0.23212957713E+03  0.55625764115E+02  0.26561466424E+02  0.25745331214E+03  0.92727181669E+02 0.  0.
          5    1    3    3  502    0 -0.16483808530E+02 -0.44758531618E+01 -0.11154788910E+03  0.11292543189E+03  0.41800000000E+01 0.  1.
         -5    1    3    3    0  502 -0.21564576860E+03 -0.51149910954E+02 -0.19497561109E+03  0.29521580620E+03  0.41800000000E+01 0.  1.
        -11    1    4    4    0    0  0.68377723042E+02  0.61423802191E+02  0.34787965577E+01  0.91980968191E+02  0.00000000000E+00 0. -1.
         11    1    4    4    0    0  0.16375185409E+03 -0.57980380752E+01  0.23082669866E+02  0.16547234395E+03  0.00000000000E+00 0.  1.
</event>
<event>
 8    1  0.7136454E-009  0.1965811E+03  0.7561462E-02  0.1152656E+00
          2   -1    0    0  501    0  0.00000000000E+00  0.00000000000E+00  0.75701551579E+03  0.75701551579E+03  0.00000000000E+00 0. -1.
         -2   -1    0    0    0  501 -0.00000000000E+00 -0.00000000000E+00 -0.61512559131E+02  0.61512559131E+02  0.00000000000E+00 0.  1.
         25    2    1    2    0    0  0.15822261453E+03 -0.90733706506E+02  0.43231980592E+03  0.48560672088E+03  0.12508585662E+03 0.  0.
         23    2    1    2    0    0 -0.15822261453E+03  0.90733706506E+02  0.26318315074E+03  0.33292135404E+03  0.91127690079E+02 0.  0.
          5    1    3    3  502    0  0.15894748215E+03 -0.60392942768E+02  0.26072301212E+03  0.31129659662E+03  0.41800000000E+01 0.  1.
         -5    1    3    3    0  502 -0.72486761733E+00 -0.30340763738E+02  0.17159679380E+03  0.17431012426E+03  0.41800000000E+01 0.  1.
        -11    1    4    4    0    0 -0.10355339380E+03  0.24229031307E+02  0.89208142038E+02  0.13881082066E+03  0.00000000000E+00 0.  1.
         11    1    4    4    0    0 -0.54669220731E+02  0.66504675198E+02  0.17397500870E+03  0.19411053338E+03  0.00000000000E+00 0. -1.
</event>
<event>
 8    1  0.7136454E-009  0.9387337E+02  0.7561462E-02  0.1293734E+00
          3   -1    0    0  501    0  0.00000000000E+00  0.00000000000E+00  0.50636188858E+02  0.50636188858E+02  0.00000000000E+00 0. -1.
         -3   -1    0    0    0  501 -0.00000000000E+00 -0.00000000000E+00 -0.36709758198E+03  0.36709758198E+03  0.00000000000E+00 0.  1.
         25    2    1    2    0    0 -0.64998255430E+02 -0.33344198298E+02 -0.11271120434E+03  0.18354389713E+03  0.12509171763E+03 0.  0.
         23    2    1    2    0    0  0.64998255430E+02  0.33344198298E+02 -0.20375018879E+03  0.23418987371E+03  0.89410003632E+02 0.  0.
          5    1    3    3  502    0 -0.32165911239E+02 -0.37977363664E+02  0.14507824395E+02  0.52008416294E+02  0.41800000000E+01 0. -1.
         -5    1    3    3    0  502 -0.32832344191E+02  0.46331653669E+01 -0.12721902873E+03  0.13153548083E+03  0.41800000000E+01 0. -1.
        -11    1    4    4    0    0 -0.96234735026E+01  0.27956790696E+02 -0.11182127901E+03  0.11566413371E+03  0.00000000000E+00 0.  1.
         11    1    4    4    0    0  0.74621728933E+02  0.53874076020E+01 -0.91928909780E+02  0.11852574000E+03  0.00000000000E+00 0. -1.
</event>
<event>
 8    1  0.7136454E-009  0.1285057E+03  0.7561462E-02  0.1229690E+00
          2   -1    0    0  501    0  0.00000000000E+00  0.00000000000E+00  0.23951322456E+03  0.23951322456E+03  0.00000000000E+00 0.  1.
         -2   -1    0    0    0  501 -0.00000000000E+00 -0.00000000000E+00 -0.81666276737E+02  0.81666276737E+02  0.00000000000E+00 0. -1.
         25    2    1    2    0    0  0.78904049809E+02 -0.56728676806E+01  0.46924845849E+02  0.15526328299E+03  0.12508683137E+03 0.  0.
         23    2    1    2    0    0 -0.78904049809E+02  0.56728676806E+01  0.11092210198E+03  0.16591621831E+03  0.94691331638E+02 0.  0.
          5    1    3    3  502    0  0.11306810548E+03 -0.16732495752E+01  0.32519895406E+02  0.11773789636E+03  0.41800000000E+01 0.  1.
         -5    1    3    3    0  502 -0.34164055670E+02 -0.39996181054E+01  0.14404950443E+02  0.37525386635E+02  0.41800000000E+01 0.  1.
        -11    1    4    4    0    0 -0.20062331998E+02  0.37334868503E+02  0.83593181016E+02  0.93724113673E+02  0.00000000000E+00 0.  1.
         11    1    4    4    0    0 -0.58841717811E+02 -0.31662000823E+02  0.27328920961E+02  0.72192104637E+02  0.00000000000E+00 0. -1.
</event>
<event>
 8    1  0.7136454E-009  0.1462001E+03  0.7561462E-02  0.1205222E+00
         -2   -1    0    0    0  501 -0.00000000000E+00  0.00000000000E+00  0.46225459526E+02  0.46225459526E+02  0.00000000000E+00 0.  1.
          2   -1    0    0  501    0  0.00000000000E+00 -0.00000000000E+00 -0.53636635939E+03  0.53636635939E+03  0.00000000000E+00 0. -1.
         25    2    1    2    0    0  0.54106962332E+01 -0.10904358152E+03 -0.21249730419E+03  0.26967016932E+03  0.12508843923E+03 0.  0.
         23    2    1    2    0    0 -0.54106962332E+01  0.10904358152E+03 -0.27764359567E+03  0.31292164959E+03  0.94415116696E+02 0.  0.
          5    1    3    3  502    0 -0.25551109840E+02 -0.11573322313E+03 -0.10801314116E+03  0.16040994114E+03  0.41800000000E+01 0.  1.
         -5    1    3    3    0  502  0.30961806074E+02  0.66896416113E+01 -0.10448416303E+03  0.10926022819E+03  0.41800000000E+01 0.  1.
        -11    1    4    4    0    0 -0.36676062374E+01 -0.16194843638E+02 -0.17099097896E+02  0.23834920701E+02  0.00000000000E+00 0.  1.
         11    1    4    4    0    0 -0.17430899957E+01  0.12523842516E+03 -0.26054449778E+03  0.28908672889E+03  0.00000000000E+00 0. -1.
</event>
<event>
 8    1  0.7136454E-009  0.1233525E+03  0.7561462E-02  0.1237667E+00
         -1   -1    0    0    0  501 -0.00000000000E+00  0.00000000000E+00  0.81799633214E+02  0.81799633214E+02  0.00000000000E+00 0.  1.
          1   -1    0    0  501    0  0.00000000000E+00 -0.00000000000E+00 -0.22171476009E+03  0.22171476009E+03  0.00000000000E+00 0. -1.
         25    2    1    2    0    0  0.56589337144E+02  0.30010117608E+02 -0.13025920886E+03  0.19161908481E+03  0.12508977550E+03 0.  0.
         23    2    1    2    0    0 -0.56589337144E+02 -0.30010117608E+02 -0.96559180158E+01  0.11189530849E+03  0.91237947543E+02 0.  0.
          5    1    3    3  502    0  0.70424124090E+02 -0.27673853698E+02 -0.46548620572E+02  0.88936190100E+02  0.41800000000E+01 0. -1.
         -5    1    3    3    0  502 -0.13834786946E+02  0.57683971306E+02 -0.83710588287E+02  0.10268289471E+03  0.41800000000E+01 0. -1.
        -11    1    4    4    0    0  0.16412671387E+02 -0.34615276251E+02 -0.43658512300E+01  0.38557149648E+02  0.00000000000E+00 0.  1.
         11    1    4    4    0    0 -0.73002008531E+02  0.46051586427E+01 -0.52900667858E+01  0.73338158841E+02  0.00000000000E+00 0. -1.
</event>
<event>
 8    1  0.7136454E-009  0.8045174E+02  0.7561462E-02  0.1327774E+00
          2   -1    0    0  501    0  0.00000000000E+00  0.00000000000E+00  0.97841932048E+02  0.97841932048E+02  0.00000000000E+00 0. -1.
         -2   -1    0    0    0  501 -0.00000000000E+00 -0.00000000000E+00 -0.13536074459E+03  0.13536074459E+03  0.00000000000E+00 0.  1.
         25    2    1    2    0    0  0.72051054979E+01  0.32882152693E+02 -0.42711535723E+02  0.13639783669E+03  0.12508774944E+03 0.  0.
         23    2    1    2    0    0 -0.72051054979E+01 -0.32882152693E+02  0.51927231768E+01  0.96804839952E+02  0.90614916836E+02 0.  0.
          5    1    3    3  502    0  0.14358989762E+02 -0.13930823573E+02 -0.75779707145E+02  0.78487482106E+02  0.41800000000E+01 0. -1.
         -5    1    3    3    0  502 -0.71538842640E+01  0.46812976266E+02  0.33068171422E+02  0.57910354584E+02  0.41800000000E+01 0. -1.
        -11    1    4    4    0    0  0.19511093497E+02  0.23493562191E+02 -0.10816183330E+02  0.32397840294E+02  0.00000000000E+00 0.  1.
         11    1    4    4    0    0 -0.26716198995E+02 -0.56375714884E+02  0.16008906507E+02  0.64406999658E+02  0.00000000000E+00 0. -1.
</event>
<event>
 8    1  0.7136454E-009  0.1382956E+03  0.7561462E-02  0.1215641E+00
         -1   -1    0    0    0  501 -0.00000000000E+00  0.00000000000E+00  0.41291158627E+03  0.41291158627E+03  0.00000000000E+00 0.  1.
          1   -1    0    0  501    0  0.00000000000E+00 -0.00000000000E+00 -0.70234878296E+02  0.70234878296E+02  0.00000000000E+00 0. -1.
         25    2    1    2    0    0 -0.23083527245E+02  0.11957422131E+03  0.11478046137E+03  0.20893610298E+03  0.12509555222E+03 0.  0.
         23    2    1    2    0    0  0.23083527245E+02 -0.11957422131E+03  0.22789624661E+03  0.27421036158E+03  0.91781150299E+02 0.  0.
          5    1    3    3  502    0 -0.14755917827E+02 -0.84536790139E+01 -0.17396557006E+02  0.24684294510E+02  0.41800000000E+01 0. -1.
         -5    1    3    3    0  502 -0.83276094181E+01  0.12802790032E+03  0.13217701837E+03  0.18425180847E+03  0.41800000000E+01 0. -1.
        -11    1    4    4    0    0 -0.12473644444E+02 -0.60420256065E+02  0.17979155526E+03  0.19008209409E+03  0.00000000000E+00 0.  1.
         11    1    4    4    0    0  0.35557171689E+02 -0.59153965245E+02  0.48104691345E+02  0.84128267497E+02  0.00000000000E+00 0. -1.
</event>
<event>
 8    1  0.7136454E-009  0.1672841E+03  0.7561462E-02  0.1180710E+00
          1   -1    0    0  501    0  0.00000000000E+00  0.00000000000E+00  0.51756753161E+03  0.51756753161E+03  0.00000000000E+00 0. -1.
         -1   -1    0    0    0  501 -0.00000000000E+00 -0.00000000000E+00 -0.65693169102E+02  0.65693169102E+02  0.00000000000E+00 0.  1.
         25    2    1    2    0    0  0.19909911983E+02 -0.13010065546E+03  0.34671209476E+03  0.39136662721E+03  0.12504389269E+03 0.  0.
         23    2    1    2    0    0 -0.19909911983E+02  0.13010065546E+03  0.10516226775E+03  0.19189407350E+03  0.91878440011E+02 0.  0.
          5    1    3    3  502    0 -0.43609136816E+02 -0.10380335307E+03  0.21448450045E+03  0.24227663167E+03  0.41800000000E+01 0. -1.
         -5    1    3    3    0  502  0.63519048799E+02 -0.26297302389E+02  0.13222759431E+03  0.14908999554E+03  0.41800000000E+01 0. -1.
        -11    1    4    4    0    0  0.35746985960E+01  0.12948229994E+03  0.63953891703E+02  0.14445949166E+03  0.00000000000E+00 0.  1.
         11    1    4    4    0    0 -0.23484610579E+02  0.61835552307E+00  0.41208376045E+02  0.47434581835E+02  0.00000000000E+00 0. -1.
</event>
<event>
 8    1  0.7136454E-009  0.1010958E+03  0.7561462E-02  0.1278008E+00
          1   -1    0    0  501    0  0.00000000000E+00  0.00000000000E+00  0.31732583016E+03  0.31732583016E+03  0.00000000000E+00 0. -1.
         -1   -1    0    0    0  501 -0.00000000000E+00 -0.00000000000E+00 -0.42965908232E+02  0.42965908232E+02  0.00000000000E+00 0.  1.
         25    2    1    2    0    0  0.42409972510E+02  0.14513065189E+02  0.15236404700E+03  0.20216742574E+03  0.12509048877E+03 0.  0.
         23    2    1    2    0    0 -0.42409972510E+02 -0.14513065189E+02  0.12199587493E+03  0.15812431266E+03  0.90061478579E+02 0.  0.
          5    1    3    3  502    0  0.19966955696E+02  0.64606179324E+02  0.44470804029E+02  0.81041733309E+02  0.41800000000E+01 0. -1.
         -5    1    3    3    0  502  0.22443016814E+02 -0.50093114135E+02  0.10789324297E+03  0.12112569243E+03  0.41800000000E+01 0. -1.
        -11    1    4    4    0    0 -0.60028171776E+02 -0.14578827403E+02  0.38497063736E+02  0.72787001116E+02  0.00000000000E+00 0.  1.
         11    1    4    4    0    0  0.17618199266E+02  0.65762213622E-01  0.83498811195E+02  0.85337311541E+02  0.00000000000E+00 0. -1.
</event>
<event>
 8    1  0.7136454E-009  0.1046535E+03  0.7561462E-02  0.1270804E+00
         -4   -1    0    0    0  501 -0.00000000000E+00  0.00000000000E+00  0.38763101888E+03  0.38763101888E+03  0.00000000000E+00 0. -1.
          4   -1    0    0  501    0  0.00000000000E+00 -0.00000000000E+00 -0.32197562696E+02  0.32197562696E+02  0.00000000000E+00 0.  1.
         25    2    1    2    0    0  0.14543049046E+01 -0.35163566641E+02  0.20632792135E+03  0.24383897220E+03  0.12509053446E+03 0.  0.
         23    2    1    2    0    0 -0.14543049046E+01  0.35163566641E+02  0.14910553484E+03  0.17598960938E+03  0.86609991740E+02 0.  0.
          5    1    3    3  502    0  0.19556789698E+02 -0.77740156923E+02  0.15539790300E+03  0.17490563364E+03  0.41800000000E+01 0. -1.
         -5    1    3    3    0  502 -0.18102484794E+02  0.42576590282E+02  0.50930018348E+02  0.68933338557E+02  0.41800000000E+01 0. -1.
        -11    1    4    4    0    0 -0.31685214527E+02 -0.52452903918E+01  0.21184814795E+02  0.38474176648E+02  0.00000000000E+00 0.  1.
         11    1    4    4    0    0  0.30230909622E+02  0.40408857033E+02  0.12792072004E+03  0.13751543273E+03  0.00000000000E+00 0. -1.
</event>
<event>
 8    1  0.7136454E-009  0.8607042E+02  0.7561462E-02  0.1312657E+00
          2   -1    0    0  501    0  0.00000000000E+00  0.00000000000E+00  0.68818644839E+03  0.68818644839E+03  0.00000000000E+00 0. -1.
         -2   -1    0    0    0  501 -0.00000000000E+00 -0.00000000000E+00 -0.19091329926E+02  0.19091329926E+02  0.00000000000E+00 0.  1.
         25    2    1    2    0    0 -0.32518523476E+02 -0.18019617529E+02  0.37147137945E+03  0.39372739705E+03  0.12509243164E+03 0.  0.
         23    2    1    2    0    0  0.32518523476E+02  0.18019617529E+02  0.29762373902E+03  0.31355038127E+03  0.91388131518E+02 0.  0.
          5    1    3    3  502    0  0.19309865108E+02 -0.12792571188E+02  0.31831829408E+03  0.31918729536E+03  0.41800000000E+01 0.  1.
         -5    1    3    3    0  502 -0.51828388584E+02 -0.52270463414E+01  0.53153085361E+02  0.74540101690E+02  0.41800000000E+01 0.  1.
        -11    1    4    4    0    0 -0.28103070179E+02 -0.96413550000E+01  0.12574098034E+03  0.12920345358E+03  0.00000000000E+00 0. -1.
         11    1    4    4    0    0  0.60621593654E+02  0.27660972529E+02  0.17188275868E+03  0.18434692769E+03  0.00000000000E+00 0.  1.
</event>
<event>
 8    1  0.7136454E-009  0.1821312E+03  0.7561462E-02  0.1165756E+00
          2   -1    0    0  501    0  0.00000000000E+00  0.00000000000E+00  0.15774248295E+04  0.15774248295E+04  0.00000000000E+00 0.  1.
         -2   -1    0    0    0  501 -0.00000000000E+00 -0.00000000000E+00 -0.41477636205E+02  0.41477636205E+02  0.00000000000E+00 0. -1.
         25    2    1    2    0    0 -0.16495873563E+00  0.16432824164E+03  0.13020819149E+04  0.13183583130E+04  0.12509008897E+03 0.  0.
         23    2    1    2    0    0  0.16495873563E+00 -0.16432824164E+03  0.23386527846E+03  0.30054415269E+03  0.92897906502E+02 0.  0.
          5    1    3    3  502    0 -0.25709713194E+02  0.12967744162E+03  0.57608276019E+03  0.59107194758E+03  0.41800000000E+01 0. -1.
         -5    1    3    3    0  502  0.25544754458E+02  0.34650800015E+02  0.72599915467E+03  0.72728636547E+03  0.41800000000E+01 0. -1.
        -11    1    4    4    0    0  0.37791303766E+02 -0.27240297390E+02  0.55595517208E+02  0.72533288743E+02  0.00000000000E+00 0. -1.
         11    1    4    4    0    0 -0.37626345030E+02 -0.13708794425E+03  0.17826976126E+03  0.22801086395E+03  0.00000000000E+00 0.  1.
</event>
<event>
 8    1  0.7136454E-009  0.1112664E+03  0.7561462E-02  0.1258242E+00
          1   -1    0    0  501    0  0.00000000000E+00  0.00000000000E+00  0.83165641473E+02  0.83165641473E+02  0.00000000000E+00 0. -1.
         -1   -1    0    0    0  501 -0.00000000000E+00 -0.00000000000E+00 -0.15390176510E+03  0.15390176510E+03  0.00000000000E+00 0.  1.
         25    2    1    2    0    0  0.37743363469E+02  0.74571424115E+01 -0.34476772686E+02  0.13532759011E+03  0.12507892841E+03 0.  0.
         23    2    1    2    0    0 -0.37743363469E+02 -0.74571424115E+01 -0.36259350943E+02  0.10173981646E+03  0.86925711180E+02 0.  0.
          5    1    3    3  502    0  0.22508028644E+01 -0.55167853156E+02  0.75276353115E-01  0.55371799699E+02  0.41800000000E+01 0.  1.
         -5    1    3    3    0  502  0.35492560604E+02  0.62624995567E+02 -0.34552049039E+02  0.79955790415E+02  0.41800000000E+01 0.  1.
        -11    1    4    4    0    0 -0.58216553697E+02  0.19329668091E+02 -0.23768297790E+02  0.65785524036E+02  0.00000000000E+00 0.  1.
         11    1    4    4    0    0  0.20473190228E+02 -0.26786810503E+02 -0.12491053153E+02  0.35954292427E+02  0.00000000000E+00 0. -1.
</event>
<event>
 8    1  0.7136454E-009  0.9833728E+02  0.7561462E-02  0.1283832E+00
         -1   -1    0    0    0  501 -0.00000000000E+00  0.00000000000E+00  0.44754703391E+02  0.44754703391E+02  0.00000000000E+00 0.  1.
          1   -1    0    0  501    0  0.00000000000E+00 -0.00000000000E+00 -0.27909061311E+03  0.27909061311E+03  0.00000000000E+00 0. -1.
         25    2    1    2    0    0  0.26914466059E+02 -0.99907880168E+01 -0.13473422845E+03  0.18607679865E+03  0.12508820228E+03 0.  0.
         23    2    1    2    0    0 -0.26914466059E+02  0.99907880168E+01 -0.99601681262E+02  0.13776851785E+03  0.90749464303E+02 0.  0.
          5    1    3    3  502    0  0.59894306550E+02 -0.29526455996E+02 -0.13130099711E+03  0.14736540912E+03  0.41800000000E+01 0.  1.
         -5    1    3    3    0  502 -0.32979840491E+02  0.19535667979E+02 -0.34332313398E+01  0.38711389533E+02  0.41800000000E+01 0.  1.
        -11    1    4    4    0    0 -0.48135667855E+02 -0.21914990797E+02 -0.37641765058E+02  0.64916960943E+02  0.00000000000E+00 0.  1.
         11    1    4    4    0    0  0.21221201795E+02  0.31905778814E+02 -0.61959916205E+02  0.72851556905E+02  0.00000000000E+00 0. -1.
</event>
<event>
 8    1  0.7136454E-009  0.1107935E+03  0.7561462E-02  0.1259107E+00
         -2   -1    0    0    0  501 -0.00000000000E+00  0.00000000000E+00  0.67474564841E+02  0.67474564841E+02  0.00000000000E+00 0. -1.
          2   -1    0    0  501    0  0.00000000000E+00 -0.00000000000E+00 -0.27458323326E+03  0.27458323326E+03  0.00000000000E+00 0.  1.
         25    2    1    2    0    0  0.64435127597E+02  0.40124748324E+02 -0.73349225483E+02  0.16367240529E+03  0.12508663509E+03 0.  0.
         23    2    1    2    0    0 -0.64435127597E+02 -0.40124748324E+02 -0.13375944293E+03  0.17838539281E+03  0.90376317126E+02 0.  0.
          5    1    3    3  502    0  0.91479074121E+02  0.37607336252E+02 -0.16272249667E+02  0.10032442998E+03  0.41800000000E+01 0. -1.
         -5    1    3    3    0  502 -0.27043946524E+02  0.25174120723E+01 -0.57076975815E+02  0.63347975306E+02  0.41800000000E+01 0. -1.
        -11    1    4    4    0    0 -0.26706782652E+02  0.13198147122E+02 -0.29256127752E+00  0.29791423584E+02  0.00000000000E+00 0. -1.
         11    1    4    4    0    0 -0.37728344945E+02 -0.53322895446E+02 -0.13346688165E+03  0.14859396922E+03  0.00000000000E+00 0.  1.
</event>
<event>
 8    1  0.7136454E-009  0.3777001E+03  0.7561462E-02  0.1051787E+00
          2   -1    0    0  501    0  0.00000000000E+00  0.00000000000E+00  0.21657368869E+04  0.21657368869E+04  0.00000000000E+00 0. -1.
         -2   -1    0    0    0  501 -0.00000000000E+00 -0.00000000000E+00 -0.77006131834E+02  0.77006131834E+02  0.00000000000E+00 0.  1.
         25    2    1    2    0    0 -0.13876480566E+03 -0.35053118909E+03  0.13602681376E+04  0.14170758550E+04  0.12508711678E+03 0.  0.
         23    2    1    2    0    0  0.13876480566E+03  0.35053118909E+03  0.72846261742E+03  0.82566716371E+03  0.94555245420E+02 0.  0.
          5    1    3    3  502    0 -0.13501345883E+03 -0.34308549576E+03  0.13584149583E+04  0.14075670367E+04  0.41800000000E+01 0.  1.
         -5    1    3    3    0  502 -0.37513468234E+01 -0.74456933322E+01  0.18531793397E+01  0.95088183205E+01  0.41800000000E+01 0.  1.
        -11    1    4    4    0    0  0.11371447285E+03  0.26860329709E+03  0.46778790665E+03  0.55127510206E+03  0.00000000000E+00 0.  1.
         11    1    4    4    0    0  0.25050332806E+02  0.81927892001E+02  0.26067471078E+03  0.27439206165E+03  0.00000000000E+00 0. -1.
</event>
<event>
 8    1  0.7136454E-009  0.1455209E+03  0.7561462E-02  0.1206087E+00
          1   -1    0    0  501    0  0.00000000000E+00  0.00000000000E+00  0.34410356565E+03  0.34410356565E+03  0.00000000000E+00 0. -1.
         -1   -1    0    0    0  501 -0.00000000000E+00 -0.00000000000E+00 -0.65251169943E+02  0.65251169943E+02  0.00000000000E+00 0.  1.
         25    2    1    2    0    0  0.95576720130E+02  0.15999602420E+02  0.19942368128E+03  0.25457435686E+03  0.12508957514E+03 0.  0.
         23    2    1    2    0    0 -0.95576720130E+02 -0.15999602420E+02  0.79428714434E+02  0.15478037874E+03  0.90868851960E+02 0.  0.
          5    1    3    3  502    0  0.12620541400E+03  0.16168532172E+02  0.16189792337E+03  0.20595542709E+03  0.41800000000E+01 0.  1.
         -5    1    3    3    0  502 -0.30628693873E+02 -0.16892975281E+00  0.37525757906E+02  0.48618929770E+02  0.41800000000E+01 0.  1.
        -11    1    4    4    0    0 -0.22445426550E+02 -0.48006400171E+02  0.30289533600E+02  0.61039884306E+02  0.00000000000E+00 0.  1.
         11    1    4    4    0    0 -0.73131293579E+02  0.32006797751E+02  0.49139180834E+02  0.93740494430E+02  0.00000000000E+00 0. -1.
</event>
<event>
 8    1  0.7136454E-009  0.9774046E+02  0.7561462E-02  0.1285120E+00
          2   -1    0    0  501    0  0.00000000000E+00  0.00000000000E+00  0.76599041895E+03  0.76599041895E+03  0.00000000000E+00 0.  1.
         -2   -1    0    0    0  501 -0.00000000000E+00 -0.00000000000E+00 -0.28970376802E+02  0.28970376802E+02  0.00000000000E+00 0. -1.
         25    2    1    2    0    0 -0.53122586422E+02  0.14999754594E+02  0.62932189710E+03  0.64400352886E+03  0.12508994041E+03 0.  0.
         23    2    1    2    0    0  0.53122586422E+02 -0.14999754594E+02  0.10769814504E+03  0.15095726688E+03  0.90234162895E+02 0.  0.
          5    1    3    3  502    0 -0.69861116645E+02 -0.29549332733E+02  0.50741047855E+03  0.51306588742E+03  0.41800000000E+01 0. -1.
         -5    1    3    3    0  502  0.16738530223E+02  0.44549087327E+02  0.12191141855E+03  0.13093764145E+03  0.41800000000E+01 0. -1.
        -11    1    4    4    0    0  0.15637580422E+02  0.16531809879E+02 -0.89415204771E+01  0.24449651281E+02  0.00000000000E+00 0. -1.
         11    1    4    4    0    0  0.37485005999E+02 -0.31531564473E+02  0.11663966552E+03  0.12650761560E+03  0.00000000000E+00 0.  1.
</event>
<event>
 8    1  0.7136454E-009  0.1376696E+03  0.7561462E-02  0.1216500E+00
          1   -1    0    0  501    0  0.00000000000E+00  0.00000000000E+00  0.21442681393E+04  0.21442681393E+04  0.00000000000E+00 0. -1.
         -1   -1    0    0    0  501 -0.00000000000E+00 -0.00000000000E+00 -0.21347691986E+02  0.21347691986E+02  0.00000000000E+00 0.  1.
         25    2    1    2    0    0  0.64534616746E+02  0.67563592031E+02  0.19057249857E+04  0.19121103439E+04  0.12509472476E+03 0.  0.
         23    2    1    2    0    0 -0.64534616746E+02 -0.67563592031E+02  0.21719546154E+03  0.25350548737E+03  0.91441827890E+02 0.  0.
          5    1    3    3  502    0 -0.10599045875E+02  0.74696579289E+02  0.11924225937E+04  0.11948142253E+04  0.41800000000E+01 0.  1.
         -5    1    3    3    0  502  0.75133662622E+02 -0.71329872581E+01  0.71330239209E+03  0.71729611858E+03  0.41800000000E+01 0.  1.
        -11    1    4    4    0    0 -0.82070914252E+02 -0.68102322497E+02  0.20788282808E+03  0.23364252932E+03  0.00000000000E+00 0. -1.
         11    1    4    4    0    0  0.17536297505E+02  0.53873046592E+00  0.93126334586E+01  0.19862958054E+02  0.00000000000E+00 0.  1.
</event>
<event>
 8    1  0.7136454E-009  0.1456801E+03  0.7561462E-02  0.1205884E+00
          1   -1    0    0  501    0  0.00000000000E+00  0.00000000000E+00  0.19017709905E+03  0.19017709905E+03  0.00000000000E+00 0. -1.
         -1   -1    0    0    0  501 -0.00000000000E+00 -0.00000000000E+00 -0.17933233091E+03  0.17933233091E+03  0.00000000000E+00 0.  1.
         25    2    1    2    0    0 -0.13346918089E+02 -0.13776767548E+03 -0.46898838850E+02  0.19236360025E+03  0.12508469525E+03 0.  0.
         23    2    1    2    0    0  0.13346918089E+02  0.13776767548E+03  0.57743606994E+02  0.17714582970E+03  0.94277506345E+02 0.  0.
          5    1    3    3  502    0  0.10601289992E+02 -0.12492574400E+03  0.13335470456E+02  0.12615124270E+03  0.41800000000E+01 0.  1.
         -5    1    3    3    0  502 -0.23948208081E+02 -0.12841931484E+02 -0.60234309306E+02  0.66212357549E+02  0.41800000000E+01 0.  1.
        -11    1    4    4    0    0  0.64263920413E+01  0.58062983953E+02 -0.23643198868E+02  0.63020706699E+02  0.00000000000E+00 0.  1.
         11    1    4    4    0    0  0.69205260477E+01  0.79704691529E+02  0.81386805862E+02  0.11412512300E+03  0.00000000000E+00 0. -1.
</event>
<event>
 8    1  0.7136454E-009  0.1228164E+03  0.7561462E-02  0.1238522E+00
         -2   -1    0    0    0  501 -0.00000000000E+00  0.00000000000E+00  0.49175864560E+02  0.49175864560E+02  0.00000000000E+00 0.  1.
          2   -1    0    0  501    0  0.00000000000E+00 -0.00000000000E+00 -0.53881248244E+03  0.53881248244E+03  0.00000000000E+00 0. -1.
         25    2    1    2    0    0  0.90095491141E+02  0.28040805908E+02 -0.39736130928E+03  0.42713651713E+03  0.12508441082E+03 0.  0.
         23    2    1    2    0    0 -0.90095491141E+02 -0.28040805908E+02 -0.92275308600E+02  0.16085182987E+03  0.91951586587E+02 0.  0.
          5    1    3    3  502    0  0.40788161907E+01  0.27191447912E+02 -0.88374326450E+01  0.29181915578E+02  0.41800000000E+01 0. -1.
         -5    1    3    3    0  502  0.86016674951E+02  0.84935799653E+00 -0.38852387664E+03  0.39795460155E+03  0.41800000000E+01 0. -1.
        -11    1    4    4    0    0 -0.38058349077E+02  0.33783585934E+02 -0.33442402343E+02  0.60894686857E+02  0.00000000000E+00 0. -1.
         11    1    4    4    0    0 -0.52037142065E+02 -0.61824391842E+02 -0.58832906257E+02  0.99957143014E+02  0.00000000000E+00 0.  1.
</event>
<event>
 8    1  0.7136454E-009  0.9117256E+02  0.7561462E-02  0.1300037E+00
          2   -1    0    0  501    0  0.00000000000E+00  0.00000000000E+00  0.32097384642E+03  0.32097384642E+03  0.00000000000E+00 0. -1.
         -2   -1    0    0    0  501 -0.00000000000E+00 -0.00000000000E+00 -0.41670375684E+02  0.41670375684E+02  0.00000000000E+00 0.  1.
         25    2    1    2    0    0  0.35786665599E+01  0.35917309875E+02  0.17691116814E+03  0.21965572838E+03  0.12509283591E+03 0.  0.
         23    2    1    2    0    0 -0.35786665599E+01 -0.35917309875E+02  0.10239230260E+03  0.14298849372E+03  0.93051951629E+02 0.  0.
          5    1    3    3  502    0  0.17950047648E+02  0.55376885051E+02  0.18485761807E+03  0.19385204401E+03  0.41800000000E+01 0. -1.
         -5    1    3    3    0  502 -0.14371381088E+02 -0.19459575175E+02 -0.79464499381E+01  0.25803684369E+02  0.41800000000E+01 0. -1.
        -11    1    4    4    0    0  0.43789562336E+02 -0.26353692285E+02  0.58810389073E+02  0.77914727296E+02  0.00000000000E+00 0.  1.
         11    1    4    4    0    0 -0.47368228896E+02 -0.95636175901E+01  0.43581913529E+02  0.65073766427E+02  0.00000000000E+00 0. -1.
</event>
<event>
 8    1  0.7136454E-009  0.1195157E+03  0.7561462E-02  0.1243898E+00
          2   -1    0    0  501    0  0.00000000000E+00  0.00000000000E+00  0.17680422372E+04  0.17680422372E+04  0.00000000000E+00 0.  1.
         -2   -1    0    0    0  501 -0.00000000000E+00 -0.00000000000E+00 -0.50963363707E+02  0.50963363707E+02  0.00000000000E+00 0. -1.
         25    2    1    2    0    0 -0.55244441576E+02  0.77865632124E+02  0.16750832825E+04  0.16824584704E+04  0.12508995335E+03 0.  0.
         23    2    1    2    0    0  0.55244441576E+02 -0.77865632124E+02  0.41995591029E+02  0.13654713051E+03  0.88127658503E+02 0.  0.
          5    1    3    3  502    0 -0.78516126375E+01 -0.85919777021E+01  0.10116781897E+04  0.10117537753E+04  0.41800000000E+01 0. -1.
         -5    1    3    3    0  502 -0.47392828939E+02  0.86457609826E+02  0.66340509277E+03  0.67070469511E+03  0.41800000000E+01 0. -1.
        -11    1    4    4    0    0  0.63550523581E+02 -0.15964914668E+02  0.97112837373E+01  0.66240898089E+02  0.00000000000E+00 0.  1.
         11    1    4    4    0    0 -0.83060820045E+01 -0.61900717456E+02  0.32284307292E+02  0.70306232421E+02  0.00000000000E+00 0. -1.
</event>
<event>
 8    1  0.7136454E-009  0.6840210E+02  0.7561462E-02  0.1365613E+00
         -2   -1    0    0    0  501 -0.00000000000E+00  0.00000000000E+00  0.45267145838E+02  0.45267145838E+02  0.00000000000E+00 0.  1.
          2   -1    0    0  501    0  0.00000000000E+00 -0.00000000000E+00 -0.35062529277E+03  0.35062529277E+03  0.00000000000E+00 0. -1.
         25    2    1    2    0    0 -0.10152114073E+02  0.36416623586E+02 -0.89091592953E+02  0.15814993257E+03  0.12507938817E+03 0.  0.
         23    2    1    2    0    0  0.10152114073E+02 -0.36416623586E+02 -0.21626655398E+03  0.23774250603E+03  0.91219739701E+02 0.  0.
          5    1    3    3  502    0  0.12369905022E+02  0.18091362035E+02  0.28931919418E+02  0.36535466218E+02  0.41800000000E+01 0. -1.
         -5    1    3    3    0  502 -0.22522019096E+02  0.18325261551E+02 -0.11802351237E+03  0.12161446636E+03  0.41800000000E+01 0. -1.
        -11    1    4    4    0    0 -0.24560872462E+02 -0.43289378915E+02 -0.62188705046E+02  0.79653259935E+02  0.00000000000E+00 0.  1.
         11    1    4    4    0    0  0.34712986536E+02  0.68727553288E+01 -0.15407784893E+03  0.15808924609E+03  0.00000000000E+00 0. -1.
</event>
<event>
 8    1  0.7136454E-009  0.2012638E+03  0.7561462E-02  0.1148677E+00
         -2   -1    0    0    0  501 -0.00000000000E+00  0.00000000000E+00  0.39052916465E+02  0.39052916465E+02  0.00000000000E+00 0.  1.
          2   -1    0    0  501    0  0.00000000000E+00 -0.00000000000E+00 -0.12047685716E+04  0.12047685716E+04  0.00000000000E+00 0. -1.
         25    2    1    2    0    0 -0.75334715981E+02  0.15995324812E+03 -0.77582413381E+03  0.80548799161E+03  0.12508979578E+03 0.  0.
         23    2    1    2    0    0  0.75334715981E+02 -0.15995324812E+03 -0.38989152135E+03  0.43833349648E+03  0.94130200791E+02 0.  0.
          5    1    3    3  502    0 -0.13076167134E+02 -0.14089590582E+02 -0.19396273843E+03  0.19495773647E+03  0.41800000000E+01 0. -1.
         -5    1    3    3    0  502 -0.62258548847E+02  0.17404283870E+03 -0.58186139538E+03  0.61053025514E+03  0.41800000000E+01 0. -1.
        -11    1    4    4    0    0 -0.66833090281E+01 -0.89768395582E+02 -0.14445249512E+03  0.17020445004E+03  0.00000000000E+00 0. -1.
         11    1    4    4    0    0  0.82018025009E+02 -0.70184852536E+02 -0.24543902623E+03  0.26812904645E+03  0.00000000000E+00 0.  1.
</event>
<event>
 8    1  0.7136454E-009  0.1051778E+03  0.7561462E-02  0.1269770E+00
          1   -1    0    0  501    0  0.00000000000E+00  0.00000000000E+00  0.39850996799E+03  0.39850996799E+03  0.00000000000E+00 0. -1.
         -1   -1    0    0    0  501 -0.00000000000E+00 -0.00000000000E+00 -0.53158033681E+02  0.53158033681E+02  0.00000000000E+00 0.  1.
         25    2    1    2    0    0  0.53377671319E+02 -0.55844480060E+02  0.25571441914E+03  0.29496759286E+03  0.12509290521E+03 0.  0.
         23    2    1    2    0    0 -0.53377671319E+02  0.55844480060E+02  0.89637515170E+02  0.15670040881E+03  0.10272464284E+03 0.  0.
          5    1    3    3  502    0  0.51317886412E+02 -0.20090392289E+01  0.23650667258E+02  0.56695574485E+02  0.41800000000E+01 0.  1.
         -5    1    3    3    0  502  0.20597849070E+01 -0.53835440832E+02  0.23206375188E+03  0.23827201837E+03  0.41800000000E+01 0.  1.
        -11    1    4    4    0    0 -0.69476880536E+02  0.33184716451E+02  0.16893773293E+02  0.78826784223E+02  0.00000000000E+00 0.  1.
         11    1    4    4    0    0  0.16099209217E+02  0.22659763610E+02  0.72743741877E+02  0.77873624589E+02  0.00000000000E+00 0. -1.
</event>
<event>
 7    1  0.7136454E-009  0.1908335E+03  0.7561462E-02  0.1157712E+00
          3   -1    0    0  501    0  0.00000000000E+00  0.00000000000E+00  0.32371206105E+03  0.32371206105E+03  0.00000000000E+00 0. -1.
         -3   -1    0    0    0  501 -0.00000000000E+00 -0.00000000000E+00 -0.13432665814E+03  0.13432665814E+03  0.00000000000E+00 0.  1.
         23    2    1    2    0    0  0.49053203403E+01  0.17675524442E+03  0.11320967897E+03  0.22848492171E+03  0.90124632821E+02 0.  0.
          5    1    1    2  502    0  0.12270532734E+02 -0.15435280747E+03  0.10645151984E+03  0.18794880586E+03  0.41800000000E+01 0. -1.
         -5    1    1    2    0  502 -0.17175853074E+02 -0.22402436950E+02 -0.30275795899E+02  0.41604991617E+02  0.41800000000E+01 0. -1.
        -11    1    3    3    0    0  0.45005340959E+02  0.61545825886E+02  0.48951535037E+02  0.90606965413E+02  0.00000000000E+00 0. -1.
         11    1    3    3    0    0 -0.40100020619E+02  0.11520941853E+03  0.64258143929E+02  0.13787795630E+03  0.00000000000E+00 0.  1.
</event>
<event>
 8    1  0.7136454E-009  0.1261890E+03  0.7561462E-02  0.1233223E+00
          1   -1    0    0  501    0  0.00000000000E+00  0.00000000000E+00  0.58257389305E+03  0.58257389305E+03  0.00000000000E+00 0. -1.
         -1   -1    0    0    0  501 -0.00000000000E+00 -0.00000000000E+00 -0.66049253531E+02  0.66049253531E+02  0.00000000000E+00 0.  1.
         25    2    1    2    0    0 -0.69873641344E+02 -0.75603754212E+02  0.62006027421E+02  0.17346376575E+03  0.12508667869E+03 0.  0.
         23    2    1    2    0    0  0.69873641344E+02  0.75603754212E+02  0.45451861210E+03  0.47515938083E+03  0.92687728662E+02 0.  0.
          5    1    3    3  502    0 -0.62904528989E+02 -0.29124630907E+02 -0.25555359166E+02  0.73998464004E+02  0.41800000000E+01 0.  1.
         -5    1    3    3    0  502 -0.69691123545E+01 -0.46479123305E+02  0.87561386587E+02  0.99465301745E+02  0.41800000000E+01 0.  1.
        -11    1    4    4    0    0  0.12623344709E+01  0.66527068845E+02  0.17564125285E+03  0.18782250685E+03  0.00000000000E+00 0.  1.
         11    1    4    4    0    0  0.68611306873E+02  0.90766853667E+01  0.27887735925E+03  0.28733687398E+03  0.00000000000E+00 0. -1.
</event>
<event>
 8    1  0.7136454E-009  0.1082688E+03  0.7561462E-02  0.1263810E+00
         -2   -1    0    0    0  501 -0.00000000000E+00  0.00000000000E+00  0.38727606510E+02  0.38727606510E+02  0.00000000000E+00 0.  1.
          2   -1    0    0  501    0  0.00000000000E+00 -0.00000000000E+00 -0.43750495734E+03  0.43750495734E+03  0.00000000000E+00 0. -1.
         25    2    1    2    0    0 -0.69271208273E+02  0.53177869644E+02 -0.21602753611E+03  0.26446554614E+03  0.12509093741E+03 0.  0.
         23    2    1    2    0    0  0.69271208273E+02 -0.53177869644E+02 -0.18274981472E+03  0.21176701771E+03  0.61817383431E+02 0.  0.
          5    1    3    3  502    0 -0.32277995769E+02 -0.24597150738E+02 -0.11318069348E+02  0.42337453030E+02  0.41800000000E+01 0. -1.
         -5    1    3    3    0  502 -0.36993212504E+02  0.77775020382E+02 -0.20470946676E+03  0.22212809311E+03  0.41800000000E+01 0. -1.
        -11    1    4    4    0    0  0.16432829016E+02 -0.24200532593E+02 -0.13708533304E+02  0.32305224540E+02  0.00000000000E+00 0.  1.
         11    1    4    4    0    0  0.52838379257E+02 -0.28977337051E+02 -0.16904128142E+03  0.17946179317E+03  0.00000000000E+00 0. -1.
</event>
<event>
 8    1  0.7136454E-009  0.8261541E+02  0.7561462E-02  0.1321789E+00
         -2   -1    0    0    0  501 -0.00000000000E+00  0.00000000000E+00  0.25162719869E+03  0.25162719869E+03  0.00000000000E+00 0.  1.
          2   -1    0    0  501    0  0.00000000000E+00 -0.00000000000E+00 -0.67380120667E+02  0.67380120667E+02  0.00000000000E+00 0. -1.
         25    2    1    2    0    0  0.32140179882E+02  0.61119672070E+02  0.79578319425E+02  0.16355115375E+03  0.12509062911E+03 0.  0.
         23    2    1    2    0    0 -0.32140179882E+02 -0.61119672070E+02  0.10466875860E+03  0.15545616561E+03  0.91882887000E+02 0.  0.
          5    1    3    3  502    0  0.18989699937E+02  0.13755375692E+01  0.97689543785E+02  0.99615361126E+02  0.41800000000E+01 0. -1.
         -5    1    3    3    0  502  0.13150479945E+02  0.59744134501E+02 -0.18111224360E+02  0.63935792619E+02  0.41800000000E+01 0. -1.
        -11    1    4    4    0    0  0.52252684004E+01 -0.42230208340E+02  0.10531049250E+03  0.11358254160E+03  0.00000000000E+00 0.  1.
         11    1    4    4    0    0 -0.37365448282E+02 -0.18889463730E+02 -0.64173390117E+00  0.41873624010E+02  0.00000000000E+00 0. -1.
</event>
<event>
 8    1  0.7136454E-009  0.1821355E+03  0.7561462E-02  0.1165752E+00
         -1   -1    0    0    0  501 -0.00000000000E+00  0.00000000000E+00  0.24228006751E+02  0.24228006751E+02  0.00000000000E+00 0.  1.
          1   -1    0    0  501    0  0.00000000000E+00 -0.00000000000E+00 -0.15856436846E+04  0.15856436846E+04  0.00000000000E+00 0. -1.
         25    2    1    2    0    0 -0.15204748387E+03  0.57064390596E+02 -0.89383570951E+03  0.91704117333E+03  0.12508979156E+03 0.  0.
         23    2    1    2    0    0  0.15204748387E+03 -0.57064390596E+02 -0.66757996837E+03  0.69283051805E+03  0.89310304865E+02 0.  0.
          5    1    3    3  502    0 -0.28008682162E+02 -0.18360660065E+02 -0.47117114671E+02  0.57957700173E+02  0.41800000000E+01 0.  1.
         -5    1    3    3    0  502 -0.12403880171E+03  0.75425050661E+02 -0.84671859484E+03  0.85908347315E+03  0.41800000000E+01 0.  1.
        -11    1    4    4    0    0  0.10425118726E+03 -0.80825504274E+02 -0.46785542820E+03  0.48609646561E+03  0.00000000000E+00 0.  1.
         11    1    4    4    0    0  0.47796296612E+02  0.23761113678E+02 -0.19972454017E+03  0.20673405244E+03  0.00000000000E+00 0. -1.
</event>
<event>
 8    1  0.7136454E-009  0.1075986E+03  0.7561462E-02  0.1265083E+00
         -1   -1    0    0    0  501 -0.00000000000E+00  0.00000000000E+00  0.60503900569E+02  0.60503900569E+02  0.00000000000E+00 0.  1.
          1   -1    0    0  501    0  0.00000000000E+00 -0.00000000000E+00 -0.31116489577E+03  0.31116489577E+03  0.00000000000E+00 0. -1.
         25    2    1    2    0    0  0.58341647949E+02 -0.13577834984E+02 -0.55719711905E+02  0.14945511740E+03  0.12507613815E+03 0.  0.
         23    2    1    2    0    0 -0.58341647949E+02  0.13577834984E+02 -0.19494128330E+03  0.22221367894E+03  0.88253666690E+02 0.  0.
          5    1    3    3  502    0  0.93875676300E+02 -0.10226419106E+02 -0.15958772785E+02  0.95861238659E+02  0.41800000000E+01 0. -1.
         -5    1    3    3    0  502 -0.35534028351E+02 -0.33514158778E+01 -0.39760939119E+02  0.53593878745E+02  0.41800000000E+01 0. -1.
        -11    1    4    4    0    0 -0.13375799256E+02 -0.23111687593E+02 -0.13922515853E+03  0.14176285436E+03  0.00000000000E+00 0. -1.
         11    1    4    4    0    0 -0.44965848693E+02  0.36689522577E+02 -0.55716124771E+02  0.80450824577E+02  0.00000000000E+00 0.  1.
</event>
<event>
 8    1  0.7136454E-009  0.1185136E+03  0.7561462E-02  0.1245569E+00
          2   -1    0    0  501    0  0.00000000000E+00  0.00000000000E+00  0.55899659333E+03  0.55899659333E+03  0.00000000000E+00 0. -1.
         -2   -1    0    0    0  501 -0.00000000000E+00 -0.00000000000E+00 -0.44668702841E+02  0.44668702841E+02  0.00000000000E+00 0.  1.
         25    2    1    2    0    0 -0.42121280090E+02 -0.69476395183E+02  0.12090940496E+03  0.19201020836E+03  0.12509062388E+03 0.  0.
         23    2    1    2    0    0  0.42121280090E+02  0.69476395183E+02  0.39341848552E+03  0.41165508781E+03  0.89892351417E+02 0.  0.
          5    1    3    3  502    0  0.28906977432E+02  0.19729036066E+01 -0.60370705611E+01  0.29890204313E+02  0.41800000000E+01 0.  1.
         -5    1    3    3    0  502 -0.71028257523E+02 -0.71449298789E+02  0.12694647552E+03  0.16212000404E+03  0.41800000000E+01 0.  1.
        -11    1    4    4    0    0 -0.18652623869E+02  0.74608128758E+01  0.20275049823E+02  0.28542280065E+02  0.00000000000E+00 0.  1.
         11    1    4    4    0    0  0.60773903959E+02  0.62015582307E+02  0.37314343570E+03  0.38311280775E+03  0.00000000000E+00 0. -1.
</event>
<event>
 8    1  0.7136454E-009  0.1327431E+03  0.7561462E-02  0.1223441E+00
         -4   -1    0    0    0  501 -0.00000000000E+00  0.00000000000E+00  0.13976625515E+03  0.13976625515E+03  0.00000000000E+00 0.  1.
          4   -1    0    0  501    0  0.00000000000E+00 -0.00000000000E+00 -0.17175759481E+03  0.17175759481E+03  0.00000000000E+00 0. -1.
         25    2    1    2    0    0  0.10021723854E+03  0.94737325961E+01 -0.61273971500E+02  0.17186320283E+03  0.12509682008E+03 0.  0.
         23    2    1    2    0    0 -0.10021723854E+03 -0.94737325961E+01  0.29282631849E+02  0.13966064713E+03  0.92273383599E+02 0.  0.
          5    1    3    3  502    0  0.85005332488E+02  0.40573300274E+02  0.76759430970E+01  0.94596467952E+02  0.41800000000E+01 0. -1.
         -5    1    3    3    0  502  0.15211906047E+02 -0.31099567678E+02 -0.68949914597E+02  0.77266734876E+02  0.41800000000E+01 0. -1.
        -11    1    4    4    0    0  0.14137352247E+02 -0.16538115530E+02  0.76555779217E+01  0.23064732107E+02  0.00000000000E+00 0.  1.
         11    1    4    4    0    0 -0.11435459078E+03  0.70643829338E+01  0.21627053928E+02  0.11659591503E+03  0.00000000000E+00 0. -1.
</event>
<event>
 8    1  0.7136454E-009  0.1263702E+03  0.7561462E-02  0.1232943E+00
          2   -1    0    0  501    0  0.00000000000E+00  0.00000000000E+00  0.45745658917E+02  0.45745658917E+02  0.00000000000E+00 0.  1.
         -2   -1    0    0    0  501 -0.00000000000E+00 -0.00000000000E+00 -0.46524047751E+03  0.46524047751E+03  0.00000000000E+00 0. -1.
         25    2    1    2    0    0 -0.85409831447E+02  0.33701363388E+01 -0.30583251721E+03  0.34130174074E+03  0.12508857872E+03 0.  0.
         23    2    1    2    0    0  0.85409831447E+02 -0.33701363388E+01 -0.11366230138E+03  0.16968439568E+03  0.92560673376E+02 0.  0.
          5    1    3    3  502    0  0.21360537947E+02  0.33734298757E+02 -0.90518831000E+02  0.99022253356E+02  0.41800000000E+01 0. -1.
         -5    1    3    3    0  502 -0.10677036939E+03 -0.30364162418E+02 -0.21531368621E+03  0.24227948739E+03  0.41800000000E+01 0. -1.
        -11    1    4    4    0    0  0.24348885563E+02  0.24365383593E+02 -0.93516861142E+02  0.99659136378E+02  0.00000000000E+00 0. -1.
         11    1    4    4    0    0  0.61060945884E+02 -0.27735519931E+02 -0.20145440240E+02  0.70025259303E+02  0.00000000000E+00 0.  1.
</event>
<event>
 8    1  0.7136454E-009  0.1707760E+03  0.7561462E-02  0.1177041E+00
         -1   -1    0    0    0  501 -0.00000000000E+00  0.00000000000E+00  0.14313824886E+03  0.14313824886E+03  0.00000000000E+00 0.  1.
          1   -1    0    0  501    0  0.00000000000E+00 -0.00000000000E+00 -0.43810132086E+03  0.43810132086E+03  0.00000000000E+00 0. -1.
         25    2    1    2    0    0 -0.89201771809E+02 -0.10700531505E+03  0.54117671955E+02  0.19489198899E+03  0.12508825450E+03 0.  0.
         23    2    1    2    0    0  0.89201771809E+02  0.10700531505E+03 -0.34908074395E+03  0.38634758073E+03  0.89442684422E+02 0.  0.
          5    1    3    3  502    0 -0.11790503502E+03 -0.93835688642E+02  0.27185700980E+02  0.15317724532E+03  0.41800000000E+01 0. -1.
         -5    1    3    3    0  502  0.28703263215E+02 -0.13169626405E+02  0.26931970975E+02  0.41714743670E+02  0.41800000000E+01 0. -1.
        -11    1    4    4    0    0  0.65959226868E+02  0.20044779890E+02 -0.99645202574E+02  0.12116756664E+03  0.00000000000E+00 0.  1.
         11    1    4    4    0    0  0.23242544941E+02  0.86960535157E+02 -0.24943554137E+03  0.26518001409E+03  0.00000000000E+00 0. -1.
</event>
<event>
 8    1  0.7136454E-009  0.9541815E+02  0.7561462E-02  0.1290237E+00
         -2   -1    0    0    0  501 -0.00000000000E+00  0.00000000000E+00  0.49493400414E+02  0.49493400414E+02  0.00000000000E+00 0.  1.
          2   -1    0    0  501    0  0.00000000000E+00 -0.00000000000E+00 -0.26939249470E+03  0.26939249470E+03  0.00000000000E+00 0. -1.
         25    2    1    2    0    0  0.42428919640E+01 -0.25685675572E+02 -0.79520938326E+02  0.15049422243E+03  0.12508866972E+03 0.  0.
         23    2    1    2    0    0 -0.42428919640E+01  0.25685675572E+02 -0.14037815596E+03  0.16839167268E+03  0.89285904239E+02 0.  0.
          5    1    3    3  502    0  0.38172017884E+01 -0.73456287731E+02 -0.69953516381E+02  0.10159411445E+03  0.41800000000E+01 0. -1.
         -5    1    3    3    0  502  0.42569017551E+00  0.47770612159E+02 -0.95674219449E+01  0.48900107984E+02  0.41800000000E+01 0. -1.
        -11    1    4    4    0    0 -0.21311891324E+02 -0.14344538596E+02 -0.11537978099E+03  0.11820514524E+03  0.00000000000E+00 0. -1.
         11    1    4    4    0    0  0.17068999360E+02  0.40030214168E+02 -0.24998374965E+02  0.50186527439E+02  0.00000000000E+00 0.  1.
</event>
<event>
 8    1  0.7136454E-009  0.2880264E+03  0.7561462E-02  0.1091384E+00
         -1   -1    0    0    0  501 -0.00000000000E+00  0.00000000000E+00  0.51322121873E+03  0.51322121873E+03  0.00000000000E+00 0.  1.
          1   -1    0    0  501    0  0.00000000000E+00 -0.00000000000E+00 -0.27324138470E+03  0.27324138470E+03  0.00000000000E+00 0. -1.
         25    2    1    2    0    0 -0.16772812079E+03  0.21722957730E+03  0.36331382898E+03  0.47219230325E+03  0.12508885307E+03 0.  0.
         23    2    1    2    0    0  0.16772812079E+03 -0.21722957730E+03 -0.12333399496E+03  0.31427030018E+03  0.90736627157E+02 0.  0.
          5    1    3    3  502    0 -0.12442296411E+02  0.88496547482E+02  0.59327261679E+02  0.10734824654E+03  0.41800000000E+01 0. -1.
         -5    1    3    3    0  502 -0.15528582438E+03  0.12873302982E+03  0.30398656731E+03  0.36484405672E+03  0.41800000000E+01 0. -1.
        -11    1    4    4    0    0  0.11499396865E+03 -0.86569709335E+02 -0.89057860489E+02  0.16926083397E+03  0.00000000000E+00 0.  1.
         11    1    4    4    0    0  0.52734152139E+02 -0.13065986797E+03 -0.34276134469E+02  0.14500946622E+03  0.00000000000E+00 0. -1.
</event>
<event>
 8    1  0.7136454E-009  0.1251711E+03  0.7561462E-02  0.1234802E+00
          2   -1    0    0  501    0  0.00000000000E+00  0.00000000000E+00  0.58517250558E+03  0.58517250558E+03  0.00000000000E+00 0. -1.
         -2   -1    0    0    0  501 -0.00000000000E+00 -0.00000000000E+00 -0.37786201742E+02  0.37786201742E+02  0.00000000000E+00 0.  1.
         25    2    1    2    0    0 -0.78447575824E+02  0.55300391814E+02  0.37169440100E+03  0.40375317663E+03  0.12509094458E+03 0.  0.
         23    2    1    2    0    0  0.78447575824E+02 -0.55300391814E+02  0.17569190284E+03  0.21920553070E+03  0.89281938133E+02 0.  0.
          5    1    3    3  502    0  0.29955466721E+01  0.35112066535E+02  0.17191791757E+02  0.39431720988E+02  0.41800000000E+01 0. -1.
         -5    1    3    3    0  502 -0.81443122496E+02  0.20188325279E+02  0.35450260924E+03  0.36432145564E+03  0.41800000000E+01 0. -1.
        -11    1    4    4    0    0  0.51313803861E+02  0.16649538471E+02  0.65941733680E+02  0.85197569442E+02  0.00000000000E+00 0.  1.
         11    1    4    4    0    0  0.27133771963E+02 -0.71949930285E+02  0.10975016916E+03  0.13400796125E+03  0.00000000000E+00 0. -1.
</event>
<event>
 8    1  0.7136454E-009  0.1712220E+03  0.7561462E-02  0.1176579E+00
         -2   -1    0    0    0  501 -0.00000000000E+00  0.00000000000E+00  0.47228949545E+02  0.47228949545E+02  0.00000000000E+00 0.  1.
          2   -1    0    0  501    0  0.00000000000E+00 -0.00000000000E+00 -0.78151194118E+03  0.78151194118E+03  0.00000000000E+00 0. -1.
         25    2    1    2    0    0 -0.15329029755E+03  0.31386042226E+01 -0.30258747687E+03  0.36154613877E+03  0.12509461676E+03 0.  0.
         23    2    1    2    0    0  0.15329029755E+03 -0.31386042226E+01 -0.43169551476E+03  0.46719475195E+03  0.91663256702E+02 0.  0.
          5    1    3    3  502    0 -0.14569556601E+03 -0.16289584297E+02 -0.30662169515E+03  0.33989246071E+03  0.41800000000E+01 0. -1.
         -5    1    3    3    0  502 -0.75947315387E+01  0.19428188520E+02  0.40342182800E+01  0.21653678058E+02  0.41800000000E+01 0. -1.
        -11    1    4    4    0    0  0.94510074382E+02 -0.42642751128E+02 -0.30371051019E+03  0.32092153618E+03  0.00000000000E+00 0. -1.
         11    1    4    4    0    0  0.58780223164E+02  0.39504146905E+02 -0.12798500457E+03  0.14627321578E+03  0.00000000000E+00 0.  1.
</event>
<event>
 8    1  0.7136454E-009  0.1176194E+03  0.7561462E-02  0.1247077E+00
          2   -1    0    0  501    0  0.00000000000E+00  0.00000000000E+00  0.62566726469E+03  0.62566726469E+03  0.00000000000E+00 0. -1.
         -2   -1    0    0    0  501 -0.00000000000E+00 -0.00000000000E+00 -0.32632398916E+02  0.32632398916E+02  0.00000000000E+00 0.  1.
         25    2    1    2    0    0  0.70519566422E+02  0.68518798598E+01  0.45662324006E+03  0.47871875352E+03  0.12508758574E+03 0.  0.
         23    2    1    2    0    0 -0.70519566422E+02 -0.68518798598E+01  0.13641162572E+03  0.17958091009E+03  0.92850493432E+02 0.  0.
          5    1    3    3  502    0  0.72791356741E+02 -0.33721994604E+02  0.15734715695E+03  0.17666735617E+03  0.41800000000E+01 0. -1.
         -5    1    3    3    0  502 -0.22717903185E+01  0.40573874464E+02  0.29927608311E+03  0.30205139735E+03  0.41800000000E+01 0. -1.
        -11    1    4    4    0    0  0.20137665362E+01 -0.35874295269E+02  0.62174873029E+02  0.71810411173E+02  0.00000000000E+00 0. -1.
         11    1    4    4    0    0 -0.72533332958E+02  0.29022415409E+02  0.74236752689E+02  0.10777049891E+03  0.00000000000E+00 0.  1.
</event>
<event>
 8    1  0.7136454E-009  0.6224078E+02  0.7561462E-02  0.1388662E+00
          3   -1    0    0  501    0  0.00000000000E+00  0.00000000000E+00  0.37978837607E+03  0.37978837607E+03  0.00000000000E+00 0. -1.
         -3   -1    0    0    0  501 -0.00000000000E+00 -0.00000000000E+00 -0.36025334898E+02  0.36025334898E+02  0.00000000000E+00 0.  1.
         25    2    1    2    0    0 -0.25541629257E+02 -0.36254507222E+02  0.21664766483E+03  0.25406615600E+03  0.12508651737E+03 0.  0.
         23    2    1    2    0    0  0.25541629257E+02  0.36254507222E+02  0.12711537633E+03  0.16174755496E+03  0.89650368193E+02 0.  0.
          5    1    3    3  502    0 -0.26106745549E+02 -0.35913347374E+02  0.79178370249E+01  0.45293434690E+02  0.41800000000E+01 0.  1.
         -5    1    3    3    0  502  0.56511629225E+00 -0.34115984760E+00  0.20872982781E+03  0.20877272131E+03  0.41800000000E+01 0.  1.
        -11    1    4    4    0    0  0.34939060689E+02 -0.32096164027E+01  0.11374496658E+03  0.11903342817E+03  0.00000000000E+00 0. -1.
         11    1    4    4    0    0 -0.93974314321E+01  0.39464123625E+02  0.13370409756E+02  0.42714126797E+02  0.00000000000E+00 0.  1.
</event>
<event>
 8    1  0.7136454E-009  0.9272193E+02  0.7561462E-02  0.1296391E+00
         -2   -1    0    0    0  501 -0.00000000000E+00  0.00000000000E+00  0.50977689919E+02  0.50977689919E+02  0.00000000000E+00 0.  1.
          2   -1    0    0  501    0  0.00000000000E+00 -0.00000000000E+00 -0.32300075546E+03  0.32300075546E+03  0.00000000000E+00 0. -1.
         25    2    1    2    0    0  0.42063936765E+02 -0.10642788757E+02 -0.22779807113E+03  0.26348080868E+03  0.12509009397E+03 0.  0.
         23    2    1    2    0    0 -0.42063936765E+02  0.10642788757E+02 -0.44224994420E+02  0.11049763670E+03  0.91494447129E+02 0.  0.
          5    1    3    3  502    0 -0.14167129747E+02 -0.34526686991E+02 -0.18499548668E+03  0.18876864722E+03  0.41800000000E+01 0. -1.
         -5    1    3    3    0  502  0.56231066512E+02  0.23883898235E+02 -0.42802584441E+02  0.74712161465E+02  0.41800000000E+01 0. -1.
        -11    1    4    4    0    0  0.21529389421E+02  0.81237845618E+01  0.11663565312E+02  0.25798241030E+02  0.00000000000E+00 0.  1.
         11    1    4    4    0    0 -0.63593326186E+02  0.25190041949E+01 -0.55888559731E+02  0.84699395667E+02  0.00000000000E+00 0. -1.
</event>
<event>
 8    1  0.7136454E-009  0.3459900E+03  0.7561462E-02  0.1064273E+00
         -1   -1    0    0    0  501 -0.00000000000E+00  0.00000000000E+00  0.12306418980E+03  0.12306418980E+03  0.00000000000E+00 0.  1.
          1   -1    0    0  501    0  0.00000000000E+00 -0.00000000000E+00 -0.10274007721E+04  0.10274007721E+04  0.00000000000E+00 0. -1.
         25    2    1    2    0    0 -0.33696700780E+03  0.25999271623E+02 -0.47099833031E+03  0.59305098771E+03  0.12508924974E+03 0.  0.
         23    2    1    2    0    0  0.33696700780E+03 -0.25999271623E+02 -0.43333825199E+03  0.55741397419E+03  0.93303652228E+02 0.  0.
          5    1    3    3  502    0 -0.27683651804E+03  0.42602438113E+02 -0.29748449654E+03  0.40861708669E+03  0.41800000000E+01 0.  1.
         -5    1    3    3    0  502 -0.60130489761E+02 -0.16603166490E+02 -0.17351383377E+03  0.18443390102E+03  0.41800000000E+01 0.  1.
        -11    1    4    4    0    0  0.63975324550E+02 -0.40905047152E+02 -0.75437636664E+02  0.10703691914E+03  0.00000000000E+00 0.  1.
         11    1    4    4    0    0  0.27299168325E+03  0.14905775529E+02 -0.35790061532E+03  0.45037705505E+03  0.00000000000E+00 0. -1.
</event>
<event>
 8    1  0.7136454E-009  0.1668249E+03  0.7561462E-02  0.1181200E+00
         -3   -1    0    0    0  501 -0.00000000000E+00  0.00000000000E+00  0.25044865474E+03  0.25044865474E+03  0.00000000000E+00 0.  1.
          3   -1    0    0  501    0  0.00000000000E+00 -0.00000000000E+00 -0.29378289256E+03  0.29378289256E+03  0.00000000000E+00 0. -1.
         25    2    1    2    0    0 -0.50796771510E+02 -0.15195132060E+03 -0.21233215173E+03  0.29393911075E+03  0.12508294184E+03 0.  0.
         23    2    1    2    0    0  0.50796771510E+02  0.15195132060E+03  0.16899791392E+03  0.25029243655E+03  0.91741446780E+02 0.  0.
          5    1    3    3  502    0 -0.20945002014E+02 -0.13224304644E+03 -0.78320137065E+02  0.15517226785E+03  0.41800000000E+01 0. -1.
         -5    1    3    3    0  502 -0.29851769496E+02 -0.19708274168E+02 -0.13401201467E+03  0.13876684290E+03  0.41800000000E+01 0. -1.
        -11    1    4    4    0    0 -0.18564629614E+01  0.39151895665E+02  0.10124090262E+03  0.10856351944E+03  0.00000000000E+00 0.  1.
         11    1    4    4    0    0  0.52653234472E+02  0.11279942494E+03  0.67757011297E+02  0.14172891712E+03  0.00000000000E+00 0. -1.
</event>
<event>
 8    1  0.7136454E-009  0.6653908E+02  0.7561462E-02  0.1372274E+00
         -1   -1    0    0    0  501 -0.00000000000E+00  0.00000000000E+00  0.30579316928E+02  0.30579316928E+02  0.00000000000E+00 0.  1.
          1   -1    0    0  501    0  0.00000000000E+00 -0.00000000000E+00 -0.43023551535E+03  0.43023551535E+03  0.00000000000E+00 0. -1.
         25    2    1    2    0    0 -0.22116436899E+02 -0.13902289323E+02 -0.18453814254E+03  0.22446339217E+03  0.12508828059E+03 0.  0.
         23    2    1    2    0    0  0.22116436899E+02  0.13902289323E+02 -0.21511805588E+03  0.23635144011E+03  0.94360027803E+02 0.  0.
          5    1    3    3  502    0  0.41364465439E+01  0.38739892920E+01  0.18045664686E+02  0.19371019513E+02  0.41800000000E+01 0.  1.
         -5    1    3    3    0  502 -0.26252883443E+02 -0.17776278615E+02 -0.20258380723E+03  0.20509237266E+03  0.41800000000E+01 0.  1.
        -11    1    4    4    0    0  0.50364257636E+02  0.32770270704E+02 -0.16675610988E+03  0.17725137312E+03  0.00000000000E+00 0. -1.
         11    1    4    4    0    0 -0.28247820737E+02 -0.18867981380E+02 -0.48361945999E+02  0.59100066993E+02  0.00000000000E+00 0.  1.
</event>
<event>
 8    1  0.7136454E-009  0.1381851E+03  0.7561462E-02  0.1215792E+00
          1   -1    0    0  501    0  0.00000000000E+00  0.00000000000E+00  0.94045989617E+03  0.94045989617E+03  0.00000000000E+00 0. -1.
         -1   -1    0    0    0  501 -0.00000000000E+00 -0.00000000000E+00 -0.22612950228E+02  0.22612950228E+02  0.00000000000E+00 0.  1.
         25    2    1    2    0    0 -0.28571209417E+01 -0.94933756148E+02  0.57014879491E+03  0.59138628655E+03  0.12509000913E+03 0.  0.
         23    2    1    2    0    0  0.28571209417E+01  0.94933756148E+02  0.34769815103E+03  0.37168655985E+03  0.90754136794E+02 0.  0.
          5    1    3    3  502    0 -0.40492537168E+01 -0.12543500258E+03  0.47826667043E+03  0.49447630557E+03  0.41800000000E+01 0.  1.
         -5    1    3    3    0  502  0.11921327752E+01  0.30501246429E+02  0.91882124478E+02  0.96909980977E+02  0.41800000000E+01 0.  1.
        -11    1    4    4    0    0  0.38028500823E+02  0.45052036908E+02  0.24697230362E+03  0.25391173990E+03  0.00000000000E+00 0.  1.
         11    1    4    4    0    0 -0.35171379881E+02  0.49881719240E+02  0.10072584742E+03  0.11777481995E+03  0.00000000000E+00 0. -1.
</event>
<event>
 8    1  0.7136454E-009  0.1475805E+03  0.7561462E-02  0.1203478E+00
          2   -1    0    0  501    0  0.00000000000E+00  0.00000000000E+00  0.32810774328E+03  0.32810774328E+03  0.00000000000E+00 0. -1.
         -2   -1    0    0    0  501 -0.00000000000E+00 -0.00000000000E+00 -0.74142151043E+02  0.74142151043E+02  0.00000000000E+00 0.  1.
         25    2    1    2    0    0 -0.56327190988E+02  0.93523645947E+02  0.16267412327E+03  0.23244291954E+03  0.12508963054E+03 0.  0.
         23    2    1    2    0    0  0.56327190988E+02 -0.93523645947E+02  0.91291468976E+02  0.16980697479E+03  0.92632886075E+02 0.  0.
          5    1    3    3  502    0 -0.72302604930E+01 -0.27288007279E+02  0.59907641642E+02  0.66357440692E+02  0.41800000000E+01 0. -1.
         -5    1    3    3    0  502 -0.49096930494E+02  0.12081165323E+03  0.10276648162E+03  0.16608547885E+03  0.41800000000E+01 0. -1.
        -11    1    4    4    0    0 -0.19505081662E+02 -0.36086795101E+02  0.49151675000E+01  0.41314208970E+02  0.00000000000E+00 0.  1.
         11    1    4    4    0    0  0.75832272650E+02 -0.57436850847E+02  0.86376301476E+02  0.12849276582E+03  0.00000000000E+00 0. -1.
</event>
<event>
 7    1  0.7136454E-009  0.2117816E+03  0.7561462E-02  0.1140163E+00
         -2   -1    0    0    0  501 -0.00000000000E+00  0.00000000000E+00  0.27741218826E+02  0.27741218826E+02  0.00000000000E+00 0.  1.
          2   -1    0    0  501    0  0.00000000000E+00 -0.00000000000E+00 -0.17716199179E+04  0.17716199179E+04  0.00000000000E+00 0. -1.
         23    2    1    2    0    0 -0.77257327504E+02 -0.17177063946E+03 -0.66974495586E+03  0.70171475197E+03  0.91495573679E+02 0.  0.
          5    1    1    2  502    0  0.25076897491E+02  0.16195269556E+03 -0.65782221977E+03  0.67794179072E+03  0.41800000000E+01 0. -1.
         -5    1    1    2    0  502  0.52180430013E+02  0.98179439051E+01 -0.41631152349E+03  0.41970459407E+03  0.41800000000E+01 0. -1.
        -11    1    3    3    0    0 -0.43636562397E+02 -0.16676004960E+03 -0.59758620917E+03  0.62195043301E+03  0.00000000000E+00 0. -1.
         11    1    3    3    0    0 -0.33620765107E+02 -0.50105898624E+01 -0.72158746684E+02  0.79764318966E+02  0.00000000000E+00 0.  1.
</event>
<event>
 8    1  0.7136454E-009  0.8033529E+02  0.7561462E-02  0.1328103E+00
          1   -1    0    0  501    0  0.00000000000E+00  0.00000000000E+00  0.23202558234E+03  0.23202558234E+03  0.00000000000E+00 0. -1.
         -1   -1    0    0    0  501 -0.00000000000E+00 -0.00000000000E+00 -0.54749028703E+02  0.54749028703E+02  0.00000000000E+00 0.  1.
         25    2    1    2    0    0  0.21187325700E+01  0.29230951055E+02  0.92967788000E+02  0.15858765180E+03  0.12509235057E+03 0.  0.
         23    2    1    2    0    0 -0.21187325700E+01 -0.29230951055E+02  0.84308765636E+02  0.12818695924E+03  0.92005385865E+02 0.  0.
          5    1    3    3  502    0 -0.54104253651E+02  0.10205558768E+02  0.94159180736E+01  0.56013887618E+02  0.41800000000E+01 0. -1.
         -5    1    3    3    0  502  0.56222986221E+02  0.19025392287E+02  0.83551869926E+02  0.10257376419E+03  0.41800000000E+01 0. -1.
        -11    1    4    4    0    0 -0.18772881452E+02 -0.14559259667E+02 -0.13884335582E+02  0.27516683932E+02  0.00000000000E+00 0.  1.
         11    1    4    4    0    0  0.16654148882E+02 -0.14671691387E+02  0.98193101218E+02  0.10067027530E+03  0.00000000000E+00 0. -1.
</event>
<event>
 8    1  0.7136454E-009  0.9160129E+02  0.7561462E-02  0.1299020E+00
          2   -1    0    0  501    0  0.00000000000E+00  0.00000000000E+00  0.52889909955E+03  0.52889909955E+03  0.00000000000E+00 0. -1.
         -2   -1    0    0    0  501 -0.00000000000E+00 -0.00000000000E+00 -0.27605491456E+02  0.27605491456E+02  0.00000000000E+00 0.  1.
         25    2    1    2    0    0 -0.11599601351E+02 -0.49345657466E+02  0.23364638552E+03  0.26983148935E+03  0.12509538169E+03 0.  0.
         23    2    1    2    0    0  0.11599601351E+02  0.49345657466E+02  0.26764722258E+03  0.28667310165E+03  0.89313418894E+02 0.  0.
          5    1    3    3  502    0  0.88614898010E+01 -0.73029873721E+02  0.22548273579E+03  0.23721683118E+03  0.41800000000E+01 0. -1.
         -5    1    3    3    0  502 -0.20461091152E+02  0.23684216255E+02  0.81636497259E+01  0.32614658171E+02  0.41800000000E+01 0. -1.
        -11    1    4    4    0    0  0.18034974997E+02 -0.83601281652E+01  0.94181972007E+01  0.21996693038E+02  0.00000000000E+00 0.  1.
         11    1    4    4    0    0 -0.64353736464E+01  0.57705785631E+02  0.25822902538E+03  0.26467640862E+03  0.00000000000E+00 0. -1.
</event>
<event>
 8    1  0.7136454E-009  0.1009090E+03  0.7561462E-02  0.1278396E+00
          3   -1    0    0  501    0  0.00000000000E+00  0.00000000000E+00  0.36060877324E+03  0.36060877324E+03  0.00000000000E+00 0. -1.
         -3   -1    0    0    0  501 -0.00000000000E+00 -0.00000000000E+00 -0.39377104256E+02  0.39377104256E+02  0.00000000000E+00 0.  1.
         25    2    1    2    0    0  0.48098608262E+02  0.76512304634E+01  0.16949990586E+03  0.21621839872E+03  0.12509260735E+03 0.  0.
         23    2    1    2    0    0 -0.48098608262E+02 -0.76512304634E+01  0.15173176313E+03  0.18376747878E+03  0.91520166469E+02 0.  0.
          5    1    3    3  502    0  0.85785729681E+02  0.15141867702E+01  0.15067613012E+03  0.17344236151E+03  0.41800000000E+01 0. -1.
         -5    1    3    3    0  502 -0.37687121419E+02  0.61370436932E+01  0.18823775736E+02  0.42776037207E+02  0.41800000000E+01 0. -1.
        -11    1    4    4    0    0 -0.88355046340E+01 -0.30721132353E+02  0.12893966742E+03  0.13284311029E+03  0.00000000000E+00 0. -1.
         11    1    4    4    0    0 -0.39263103628E+02  0.23069901890E+02  0.22792095703E+02  0.50924368491E+02  0.00000000000E+00 0.  1.
</event>
<event>
 8    1  0.7136454E-009  0.1181161E+03  0.7561462E-02  0.1246238E+00
          1   -1    0    0  501    0  0.00000000000E+00  0.00000000000E+00  0.41234284455E+03  0.41234284455E+03  0.00000000000E+00 0. -1.
         -1   -1    0    0    0  501 -0.00000000000E+00 -0.00000000000E+00 -0.46621886419E+02  0.46621886419E+02  0.00000000000E+00 0.  1.
         25    2    1    2    0    0  0.70204374865E+02 -0.39445385762E+02  0.15673483312E+03  0.21609593463E+03  0.12508817827E+03 0.  0.
         23    2    1    2    0    0 -0.70204374865E+02  0.39445385762E+02  0.20898612501E+03  0.24286879634E+03  0.93943914543E+02 0.  0.
          5    1    3    3  502    0  0.81052933609E+02  0.34338311605E+01  0.38707585343E+02  0.89983991944E+02  0.41800000000E+01 0. -1.
         -5    1    3    3    0  502 -0.10848558744E+02 -0.42879216922E+02  0.11802724778E+03  0.12611194269E+03  0.41800000000E+01 0. -1.
        -11    1    4    4    0    0 -0.80054780203E+02  0.51358942280E+02  0.20631185335E+03  0.22718074218E+03  0.00000000000E+00 0. -1.
         11    1    4    4    0    0  0.98504053382E+01 -0.11913556519E+02  0.26742716590E+01  0.15688054155E+02  0.00000000000E+00 0.  1.
</event>
<event>
 8    1  0.7136454E-009  0.1044370E+03  0.7561462E-02  0.1271233E+00
          1   -1    0    0  501    0  0.00000000000E+00  0.00000000000E+00  0.87255553797E+03  0.87255553797E+03  0.00000000000E+00 0. -1.
         -1   -1    0    0    0  501 -0.00000000000E+00 -0.00000000000E+00 -0.23847796714E+02  0.23847796714E+02  0.00000000000E+00 0.  1.
         25    2    1    2    0    0 -0.60620183034E+02 -0.40615719522E+02  0.65529881107E+03  0.67110952201E+03  0.12508803093E+03 0.  0.
         23    2    1    2    0    0  0.60620183034E+02  0.40615719522E+02  0.19340893019E+03  0.22529381267E+03  0.89587077692E+02 0.  0.
          5    1    3    3  502    0  0.24070334140E+02  0.18102225821E+02  0.28811731682E+03  0.28971733157E+03  0.41800000000E+01 0. -1.
         -5    1    3    3    0  502 -0.84690517174E+02 -0.58717945343E+02  0.36718149425E+03  0.38139219044E+03  0.41800000000E+01 0. -1.
        -11    1    4    4    0    0  0.11048086159E+02  0.17347485979E+02 -0.35436753022E+01  0.20869909252E+02  0.00000000000E+00 0.  1.
         11    1    4    4    0    0  0.49572096875E+02  0.23268233543E+02  0.19695260549E+03  0.20442390342E+03  0.00000000000E+00 0. -1.
</event>
<event>
 7    1  0.7136454E-009  0.9674463E+02  0.7561462E-02  0.1287294E+00
          2   -1    0    0  501    0  0.00000000000E+00  0.00000000000E+00  0.13505426650E+03  0.13505426650E+03  0.00000000000E+00 0. -1.
         -2   -1    0    0    0  501 -0.00000000000E+00 -0.00000000000E+00 -0.12715508250E+03  0.12715508250E+03  0.00000000000E+00 0.  1.
         23    2    1    2    0    0  0.26697770329E+02  0.35134131739E+02  0.57737948123E+02  0.12056807174E+03  0.96207126114E+02 0.  0.
          5    1    1    2  502    0 -0.12064071923E+02 -0.63031737915E+02  0.17952933389E+02  0.66770667461E+02  0.41800000000E+01 0.  1.
         -5    1    1    2    0  502 -0.14633698406E+02  0.27897606175E+02 -0.67791697515E+02  0.74870609797E+02  0.41800000000E+01 0.  1.
        -11    1    3    3    0    0  0.44763406633E+02 -0.12481557066E+02  0.51326555135E+02  0.69238479924E+02  0.00000000000E+00 0.  1.
         11    1    3    3    0    0 -0.18065636304E+02  0.47615688806E+02  0.64113929877E+01  0.51329591812E+02  0.00000000000E+00 0. -1.
</event>
<event>
 8    1  0.7136454E-009  0.1218121E+03  0.7561462E-02  0.1240137E+00
          2   -1    0    0  501    0  0.00000000000E+00  0.00000000000E+00  0.69079965138E+03  0.69079965138E+03  0.00000000000E+00 0. -1.
         -2   -1    0    0    0  501 -0.00000000000E+00 -0.00000000000E+00 -0.33101517845E+02  0.33101517845E+02  0.00000000000E+00 0.  1.
         25    2    1    2    0    0  0.38660036400E+02  0.66168786601E+02  0.18557458094E+03  0.23655726325E+03  0.12509399254E+03 0.  0.
         23    2    1    2    0    0 -0.38660036400E+02 -0.66168786601E+02  0.47212355260E+03  0.48734390598E+03  0.93437289348E+02 0.  0.
          5    1    3    3  502    0 -0.19573409724E+02  0.64543091869E+02  0.15825325292E+03  0.17207699886E+03  0.41800000000E+01 0.  1.
         -5    1    3    3    0  502  0.58233446124E+02  0.16256947324E+01  0.27321328014E+02  0.64480264386E+02  0.41800000000E+01 0.  1.
        -11    1    4    4    0    0 -0.57343074982E+02 -0.96920314714E+01  0.28924529746E+03  0.29503390623E+03  0.00000000000E+00 0. -1.
         11    1    4    4    0    0  0.18683038582E+02 -0.56476755130E+02  0.18287825514E+03  0.19230999975E+03  0.00000000000E+00 0.  1.
</event>
<event>
 8    1  0.7136454E-009  0.8992591E+02  0.7561462E-02  0.1303031E+00
         -2   -1    0    0    0  501 -0.00000000000E+00  0.00000000000E+00  0.20616902398E+02  0.20616902398E+02  0.00000000000E+00 0. -1.
          2   -1    0    0  501    0  0.00000000000E+00 -0.00000000000E+00 -0.61777851126E+03  0.61777851126E+03  0.00000000000E+00 0.  1.
         25    2    1    2    0    0  0.16229263315E+02 -0.31699077390E+02 -0.36602530057E+03  0.38844769665E+03  0.12509545106E+03 0.  0.
         23    2    1    2    0    0 -0.16229263315E+02  0.31699077390E+02 -0.23113630829E+03  0.24994771701E+03  0.88213648236E+02 0.  0.
          5    1    3    3  502    0  0.43890102056E+02  0.12011516371E+02 -0.48217276794E+02  0.66430382849E+02  0.41800000000E+01 0. -1.
         -5    1    3    3    0  502 -0.27660838741E+02 -0.43710593761E+02 -0.31780802378E+03  0.32201731380E+03  0.41800000000E+01 0. -1.
        -11    1    4    4    0    0 -0.43053756939E+02  0.32766998829E+01 -0.18258513816E+03  0.18762114866E+03  0.00000000000E+00 0.  1.
         11    1    4    4    0    0  0.26824493624E+02  0.28422377507E+02 -0.48551170128E+02  0.62326568349E+02  0.00000000000E+00 0. -1.
</event>
<event>
 8    1  0.7136454E-009  0.1541884E+03  0.7561462E-02  0.1195419E+00
         -2   -1    0    0    0  501 -0.00000000000E+00  0.00000000000E+00  0.31058087860E+02  0.31058087860E+02  0.00000000000E+00 0.  1.
          2   -1    0    0  501    0  0.00000000000E+00 -0.00000000000E+00 -0.10825102550E+04  0.10825102550E+04  0.00000000000E+00 0. -1.
         25    2    1    2    0    0  0.10215170389E+03  0.10384837994E+03 -0.46410216741E+03  0.50225258449E+03  0.12508948881E+03 0.  0.
         23    2    1    2    0    0 -0.10215170389E+03 -0.10384837994E+03 -0.58734999970E+03  0.61131575834E+03  0.86645701690E+02 0.  0.
          5    1    3    3  502    0  0.46782803279E+02  0.78533402671E+02 -0.11072113005E+03  0.14364110504E+03  0.41800000000E+01 0. -1.
         -5    1    3    3    0  502  0.55368900608E+02  0.25314977273E+02 -0.35338103736E+03  0.35861147945E+03  0.41800000000E+01 0. -1.
        -11    1    4    4    0    0 -0.10566189263E+03 -0.82084553315E+02 -0.56206033198E+03  0.57776649802E+03  0.00000000000E+00 0. -1.
         11    1    4    4    0    0  0.35101887477E+01 -0.21763826629E+02 -0.25289667721E+02  0.33549260320E+02  0.00000000000E+00 0.  1.
</event>
<event>
 8    1  0.7136454E-009  0.1093686E+03  0.7561462E-02  0.1261744E+00
          1   -1    0    0  501    0  0.00000000000E+00  0.00000000000E+00  0.82633793241E+03  0.82633793241E+03  0.00000000000E+00 0. -1.
         -1   -1    0    0    0  501 -0.00000000000E+00 -0.00000000000E+00 -0.22077102964E+02  0.22077102964E+02  0.00000000000E+00 0.  1.
         25    2    1    2    0    0 -0.10709613569E+02  0.21249332836E+02  0.68217892541E+03  0.69396205784E+03  0.12509604901E+03 0.  0.
         23    2    1    2    0    0  0.10709613569E+02 -0.21249332836E+02  0.12208190403E+03  0.15445297753E+03  0.91572381249E+02 0.  0.
          5    1    3    3  502    0 -0.54984458699E+02 -0.27242483942E+02  0.33797123678E+03  0.34352215783E+03  0.41800000000E+01 0. -1.
         -5    1    3    3    0  502  0.44274845130E+02  0.48491816778E+02  0.34420768863E+03  0.35043990001E+03  0.41800000000E+01 0. -1.
        -11    1    4    4    0    0 -0.38019211851E+02 -0.19372569781E+02  0.37433910931E+02  0.56763144885E+02  0.00000000000E+00 0.  1.
         11    1    4    4    0    0  0.48728825421E+02 -0.18767630553E+01  0.84647993100E+02  0.97689832646E+02  0.00000000000E+00 0. -1.
</event>
<event>
 8    1  0.7136454E-009  0.9932212E+02  0.7561462E-02  0.1281728E+00
         -2   -1    0    0    0  501 -0.00000000000E+00  0.00000000000E+00  0.14063088057E+02  0.14063088057E+02  0.00000000000E+00 0.  1.
          2   -1    0    0  501    0  0.00000000000E+00 -0.00000000000E+00 -0.10481661562E+04  0.10481661562E+04  0.00000000000E+00 0. -1.
         25    2    1    2    0    0 -0.16707976394E+02  0.42331331054E+02 -0.72260895483E+03  0.73476631385E+03  0.12508691498E+03 0.  0.
         23    2    1    2    0    0  0.16707976394E+02 -0.42331331054E+02 -0.31149411331E+03  0.32746293041E+03  0.90179211021E+02 0.  0.
          5    1    3    3  502    0  0.32041013424E+02 -0.82420000299E+01 -0.50420010114E+03  0.50530166385E+03  0.41800000000E+01 0.  1.
         -5    1    3    3    0  502 -0.48748989817E+02  0.50573331084E+02 -0.21840885369E+03  0.22946464999E+03  0.41800000000E+01 0.  1.
        -11    1    4    4    0    0  0.46972252948E+02 -0.44345770295E+02 -0.15276197654E+03  0.16585885978E+03  0.00000000000E+00 0.  1.
         11    1    4    4    0    0 -0.30264276554E+02  0.20144392414E+01 -0.15873213677E+03  0.16160407063E+03  0.00000000000E+00 0. -1.
</event>
<event>
 8    1  0.7136454E-009  0.1194849E+03  0.7561462E-02  0.1243949E+00
         -1   -1    0    0    0  501 -0.00000000000E+00  0.00000000000E+00  0.98339709201E+02  0.98339709201E+02  0.00000000000E+00 0.  1.
          1   -1    0    0  501    0  0.00000000000E+00 -0.00000000000E+00 -0.25153000745E+03  0.25153000745E+03  0.00000000000E+00 0. -1.
         25    2    1    2    0    0 -0.14377371431E+02 -0.96498984085E+02 -0.16450593676E+03  0.22853421079E+03  0.12508764740E+03 0.  0.
         23    2    1    2    0    0  0.14377371431E+02  0.96498984085E+02  0.11315638506E+02  0.12133550587E+03  0.71242533439E+02 0.  0.
          5    1    3    3  502    0  0.25951389361E+02 -0.67049171241E+01  0.93573390072E+01  0.28696040087E+02  0.41800000000E+01 0.  1.
         -5    1    3    3    0  502 -0.40328760792E+02 -0.89794066961E+02 -0.17386327576E+03  0.19983817070E+03  0.41800000000E+01 0.  1.
        -11    1    4    4    0    0 -0.20165947411E+02  0.16070482004E+02 -0.15127295447E+02  0.29895834063E+02  0.00000000000E+00 0. -1.
         11    1    4    4    0    0  0.34543318842E+02  0.80428502082E+02  0.26442933953E+02  0.91439671805E+02  0.00000000000E+00 0.  1.
</event>
<event>
 8    1  0.7136454E-009  0.1814487E+03  0.7561462E-02  0.1166408E+00
          1   -1    0    0  501    0  0.00000000000E+00  0.00000000000E+00  0.59250272734E+03  0.59250272734E+03  0.00000000000E+00 0. -1.
         -1   -1    0    0    0  501 -0.00000000000E+00 -0.00000000000E+00 -0.11479057457E+03  0.11479057457E+03  0.00000000000E+00 0.  1.
         25    2    1    2    0    0  0.14034250490E+03  0.10888376016E+03  0.45861505588E+03  0.50747261958E+03  0.12509595611E+03 0.  0.
         23    2    1    2    0    0 -0.14034250490E+03 -0.10888376016E+03  0.19097096884E+02  0.19982068232E+03  0.89509295981E+02 0.  0.
          5    1    3    3  502    0  0.29262267409E+02  0.47109638092E+02  0.29526295112E+03  0.30045512310E+03  0.41800000000E+01 0. -1.
         -5    1    3    3    0  502  0.11108023749E+03  0.61774122064E+02  0.16335210476E+03  0.20701749648E+03  0.41800000000E+01 0. -1.
        -11    1    4    4    0    0 -0.26257685126E+02 -0.36636558566E+02 -0.32172431248E+02  0.55378414424E+02  0.00000000000E+00 0.  1.
         11    1    4    4    0    0 -0.11408481978E+03 -0.72247201590E+02  0.51269528132E+02  0.14444226790E+03  0.00000000000E+00 0. -1.
</event>
<event>
 8    1  0.7136454E-009  0.1138015E+03  0.7561462E-02  0.1253688E+00
          3   -1    0    0  501    0  0.00000000000E+00  0.00000000000E+00  0.57083636691E+03  0.57083636691E+03  0.00000000000E+00 0. -1.
         -3   -1    0    0    0  501 -0.00000000000E+00 -0.00000000000E+00 -0.30844051393E+02  0.30844051393E+02  0.00000000000E+00 0.  1.
         25    2    1    2    0    0  0.65092511445E+02 -0.13877520484E+02  0.20586652565E+03  0.24991153509E+03  0.12508048755E+03 0.  0.
         23    2    1    2    0    0 -0.65092511445E+02  0.13877520484E+02  0.33412578987E+03  0.35176888322E+03  0.87588144882E+02 0.  0.
          5    1    3    3  502    0  0.44804070256E+02  0.41736405611E+02  0.38782522622E+02  0.72600886536E+02  0.41800000000E+01 0.  1.
         -5    1    3    3    0  502  0.20288441189E+02 -0.55613926095E+02  0.16708400303E+03  0.17731064855E+03  0.41800000000E+01 0.  1.
        -11    1    4    4    0    0 -0.24426671860E+02  0.47960257588E+02  0.12657252709E+03  0.13754073295E+03  0.00000000000E+00 0.  1.
         11    1    4    4    0    0 -0.40665839585E+02 -0.34082737104E+02  0.20755326278E+03  0.21422815027E+03  0.00000000000E+00 0. -1.
</event>
<event>
 8    1  0.7136454E-009  0.7367717E+02  0.7561462E-02  0.1348017E+00
         -2   -1    0    0    0  501 -0.00000000000E+00  0.00000000000E+00  0.15475032303E+02  0.15475032303E+02  0.00000000000E+00 0.  1.
          2   -1    0    0  501    0  0.00000000000E+00 -0.00000000000E+00 -0.96952698589E+03  0.96952698589E+03  0.00000000000E+00 0. -1.
         25    2    1    2    0    0  0.26507405622E+02 -0.16990267850E+02 -0.73564825767E+03  0.74687193187E+03  0.12509201351E+03 0.  0.
         23    2    1    2    0    0 -0.26507405622E+02  0.16990267850E+02 -0.21840369591E+03  0.23813008632E+03  0.89523471051E+02 0.  0.
          5    1    3    3  502    0  0.31275414750E+02 -0.45191967155E+02 -0.13907463737E+03  0.14959843790E+03  0.41800000000E+01 0.  1.
         -5    1    3    3    0  502 -0.47680091282E+01  0.28201699306E+02 -0.59657362030E+03  0.59727349397E+03  0.41800000000E+01 0.  1.
        -11    1    4    4    0    0  0.13460875705E+02  0.19031433587E+02 -0.90828004673E+01  0.25017751766E+02  0.00000000000E+00 0.  1.
         11    1    4    4    0    0 -0.39968281326E+02 -0.20411657375E+01 -0.20932089544E+03  0.21311233455E+03  0.00000000000E+00 0. -1.
</event>
<event>
 8    1  0.7136454E-009  0.6723445E+02  0.7561462E-02  0.1369758E+00
          2   -1    0    0  501    0  0.00000000000E+00  0.00000000000E+00  0.42546424455E+03  0.42546424455E+03  0.00000000000E+00 0. -1.
         -2   -1    0    0    0  501 -0.00000000000E+00 -0.00000000000E+00 -0.49374881978E+02  0.49374881978E+02  0.00000000000E+00 0.  1.
         25    2    1    2    0    0  0.28304204489E+02 -0.56597063575E+02  0.84651682296E+02  0.16376240766E+03  0.12509141957E+03 0.  0.
         23    2    1    2    0    0 -0.28304204489E+02  0.56597063575E+02  0.29143768028E+03  0.31107671887E+03  0.88478516830E+02 0.  0.
          5    1    3    3  502    0  0.28003499419E+02 -0.50314959782E+02  0.11704005237E+03  0.13050531567E+03  0.41800000000E+01 0.  1.
         -5    1    3    3    0  502  0.30070507025E+00 -0.62821037926E+01 -0.32388370077E+02  0.33257091993E+02  0.41800000000E+01 0.  1.
        -11    1    4    4    0    0 -0.17996882914E+02  0.83367125508E+01  0.50478980188E+01  0.20466310004E+02  0.00000000000E+00 0.  1.
         11    1    4    4    0    0 -0.10307321575E+02  0.48260351024E+02  0.28638978226E+03  0.29061040887E+03  0.00000000000E+00 0. -1.
</event>
<event>
 8    1  0.7136454E-009  0.8294498E+02  0.7561462E-02  0.1320896E+00
         -1   -1    0    0    0  501 -0.00000000000E+00  0.00000000000E+00  0.55173681308E+02  0.55173681308E+02  0.00000000000E+00 0.  1.
          1   -1    0    0  501    0  0.00000000000E+00 -0.00000000000E+00 -0.21911538872E+03  0.21911538872E+03  0.00000000000E+00 0. -1.
         25    2    1    2    0    0  0.10935424667E+02  0.16143226135E+02 -0.92156141198E+02  0.15658928791E+03  0.12508902215E+03 0.  0.
         23    2    1    2    0    0 -0.10935424667E+02 -0.16143226135E+02 -0.71785566214E+02  0.11769978212E+03  0.91213397766E+02 0.  0.
          5    1    3    3  502    0  0.57904515461E+02  0.11355053050E+02 -0.75816700362E+01  0.59639116870E+02  0.41800000000E+01 0.  1.
         -5    1    3    3    0  502 -0.46969090794E+02  0.47881730850E+01 -0.84574471162E+02  0.96950171035E+02  0.41800000000E+01 0.  1.
        -11    1    4    4    0    0 -0.33572579841E+02 -0.14713624852E+02  0.55801547838E+01  0.37077580839E+02  0.00000000000E+00 0.  1.
         11    1    4    4    0    0  0.22637155174E+02 -0.14296012835E+01 -0.77365720998E+02  0.80622201283E+02  0.00000000000E+00 0. -1.
</event>
<event>
 8    1  0.7136454E-009  0.1067065E+03  0.7561462E-02  0.1266793E+00
          2   -1    0    0  501    0  0.00000000000E+00  0.00000000000E+00  0.42924716230E+03  0.42924716230E+03  0.00000000000E+00 0. -1.
         -2   -1    0    0    0  501 -0.00000000000E+00 -0.00000000000E+00 -0.37930039854E+02  0.37930039854E+02  0.00000000000E+00 0.  1.
         25    2    1    2    0    0  0.17335821512E+00 -0.65670462604E+01  0.95114168641E+02  0.15728008191E+03  0.12508862034E+03 0.  0.
         23    2    1    2    0    0 -0.17335821512E+00  0.65670462604E+01  0.29620295381E+03  0.30989712025E+03  0.90867371178E+02 0.  0.
          5    1    3    3  502    0 -0.14926507767E+02  0.55850714534E+02  0.28257065300E+02  0.64482843357E+02  0.41800000000E+01 0. -1.
         -5    1    3    3    0  502  0.15099865982E+02 -0.62417760794E+02  0.66857103341E+02  0.92797238549E+02  0.41800000000E+01 0. -1.
        -11    1    4    4    0    0  0.42999552816E+02 -0.11163639111E+02  0.14642634702E+03  0.15301719995E+03  0.00000000000E+00 0.  1.
         11    1    4    4    0    0 -0.43172911031E+02  0.17730685371E+02  0.14977660679E+03  0.15687992029E+03  0.00000000000E+00 0. -1.
</event>
<event>
 8    1  0.7136454E-009  0.1235851E+03  0.7561462E-02  0.1237297E+00
         -1   -1    0    0    0  501 -0.00000000000E+00  0.00000000000E+00  0.78184592608E+02  0.78184592608E+02  0.00000000000E+00 0.  1.
          1   -1    0    0  501    0  0.00000000000E+00 -0.00000000000E+00 -0.24818382508E+03  0.24818382508E+03  0.00000000000E+00 0. -1.
         25    2    1    2    0    0  0.29322969056E+02 -0.59789530910E+02 -0.25625278262E+02  0.14400926964E+03  0.12508952928E+03 0.  0.
         23    2    1    2    0    0 -0.29322969056E+02  0.59789530910E+02 -0.14437395421E+03  0.18235914805E+03  0.89310669579E+02 0.  0.
          5    1    3    3  502    0 -0.50116528864E+01 -0.91060262143E+02 -0.10470558515E+01  0.91299817810E+02  0.41800000000E+01 0.  1.
         -5    1    3    3    0  502  0.34334621942E+02  0.31270731233E+02 -0.24578222410E+02  0.52709451834E+02  0.41800000000E+01 0.  1.
        -11    1    4    4    0    0  0.12416055798E+01 -0.21947936467E+02 -0.45172237353E+02  0.50237282242E+02  0.00000000000E+00 0.  1.
         11    1    4    4    0    0 -0.30564574636E+02  0.81737467377E+02 -0.99201716857E+02  0.13212186580E+03  0.00000000000E+00 0. -1.
</event>
<event>
 8    1  0.7136454E-009  0.1627971E+03  0.7561462E-02  0.1185575E+00
         -2   -1    0    0    0  501 -0.00000000000E+00  0.00000000000E+00  0.38440206459E+02  0.38440206459E+02  0.00000000000E+00 0.  1.
          2   -1    0    0  501    0  0.00000000000E+00 -0.00000000000E+00 -0.74518846874E+03  0.74518846874E+03  0.00000000000E+00 0. -1.
         25    2    1    2    0    0 -0.12511735543E+03  0.26867779601E+02 -0.32811864210E+03  0.37374573412E+03  0.12509116780E+03 0.  0.
         23    2    1    2    0    0  0.12511735543E+03 -0.26867779601E+02 -0.37862962018E+03  0.40988294109E+03  0.90925276493E+02 0.  0.
          5    1    3    3  502    0  0.14595686798E+02  0.25280234176E+02 -0.11615360002E+03  0.11983845589E+03  0.41800000000E+01 0.  1.
         -5    1    3    3    0  502 -0.13971304223E+03  0.15875454255E+01 -0.21196504209E+03  0.25390727823E+03  0.41800000000E+01 0.  1.
        -11    1    4    4    0    0  0.98139818516E+02  0.21931783925E+02 -0.26113776311E+03  0.27983094620E+03  0.00000000000E+00 0. -1.
         11    1    4    4    0    0  0.26977536916E+02 -0.48799563526E+02 -0.11749185707E+03  0.13005199489E+03  0.00000000000E+00 0.  1.
</event>
<event>
 8    1  0.7136454E-009  0.8257975E+02  0.7561462E-02  0.1321886E+00
         -2   -1    0    0    0  501 -0.00000000000E+00  0.00000000000E+00  0.69813803669E+02  0.69813803669E+02  0.00000000000E+00 0.  1.
          2   -1    0    0  501    0  0.00000000000E+00 -0.00000000000E+00 -0.20720781049E+03  0.20720781049E+03  0.00000000000E+00 0. -1.
         25    2    1    2    0    0 -0.35441954991E+02 -0.22637741571E+02 -0.11312118641E+03  0.17380650805E+03  0.12507477727E+03 0.  0.
         23    2    1    2    0    0  0.35441954991E+02  0.22637741571E+02 -0.24272820406E+02  0.10321510610E+03  0.91080122973E+02 0.  0.
          5    1    3    3  502    0  0.88089260316E+01  0.41321199354E+02 -0.77049180419E+02  0.87972082487E+02  0.41800000000E+01 0. -1.
         -5    1    3    3    0  502 -0.44250881023E+02 -0.63958940925E+02 -0.36072005991E+02  0.85834425563E+02  0.41800000000E+01 0. -1.
        -11    1    4    4    0    0  0.26710256694E+02  0.81941613365E+01 -0.58624225935E+02  0.64941373247E+02  0.00000000000E+00 0. -1.
         11    1    4    4    0    0  0.87316982967E+01  0.14443580234E+02  0.34351405528E+02  0.38273732858E+02  0.00000000000E+00 0.  1.
</event>
<event>
 8    1  0.7136454E-009  0.1013693E+03  0.7561462E-02  0.1277443E+00
          1   -1    0    0  501    0  0.00000000000E+00  0.00000000000E+00  0.70668257666E+03  0.70668257666E+03  0.00000000000E+00 0. -1.
         -1   -1    0    0    0  501 -0.00000000000E+00 -0.00000000000E+00 -0.28231404157E+02  0.28231404157E+02  0.00000000000E+00 0.  1.
         25    2    1    2    0    0 -0.73879211439E+02 -0.34150541661E+02  0.45287423115E+03  0.47683024630E+03  0.12509043596E+03 0.  0.
         23    2    1    2    0    0  0.73879211439E+02  0.34150541661E+02  0.22557694135E+03  0.25808373451E+03  0.95382703746E+02 0.  0.
          5    1    3    3  502    0 -0.46796564294E+02 -0.45788255200E+02  0.83174723013E+02  0.10593389303E+03  0.41800000000E+01 0.  1.
         -5    1    3    3    0  502 -0.27082647145E+02  0.11637713539E+02  0.36969950814E+03  0.37089635327E+03  0.41800000000E+01 0.  1.
        -11    1    4    4    0    0  0.13255192321E+02 -0.21375913032E+02  0.94832917372E+01  0.26880524615E+02  0.00000000000E+00 0.  1.
         11    1    4    4    0    0  0.60624019118E+02  0.55526454693E+02  0.21609364961E+03  0.23120320990E+03  0.00000000000E+00 0. -1.
</event>
<event>
 8    1  0.7136454E-009  0.9015123E+02  0.7561462E-02  0.1302486E+00
         -1   -1    0    0    0  501 -0.00000000000E+00  0.00000000000E+00  0.40612747184E+02  0.40612747184E+02  0.00000000000E+00 0.  1.
          1   -1    0    0  501    0  0.00000000000E+00 -0.00000000000E+00 -0.46838001215E+03  0.46838001215E+03  0.00000000000E+00 0. -1.
         25    2    1    2    0    0 -0.56888637134E+02  0.38565082625E+02 -0.31847727254E+03  0.34899958820E+03  0.12509738927E+03 0.  0.
         23    2    1    2    0    0  0.56888637134E+02 -0.38565082625E+02 -0.10928999243E+03  0.15999317114E+03  0.94498305459E+02 0.  0.
          5    1    3    3  502    0 -0.21684810301E+02 -0.29553053959E+01  0.33878005458E+01  0.22536956767E+02  0.41800000000E+01 0. -1.
         -5    1    3    3    0  502 -0.35203826833E+02  0.41520388021E+02 -0.32186507309E+03  0.32646263143E+03  0.41800000000E+01 0. -1.
        -11    1    4    4    0    0 -0.18809721517E+02 -0.15258903836E+02 -0.64732285057E+02  0.69115182837E+02  0.00000000000E+00 0. -1.
         11    1    4    4    0    0  0.75698358651E+02 -0.23306178790E+02 -0.44557707368E+02  0.90877988304E+02  0.00000000000E+00 0.  1.
</event>
<event>
 8    1  0.7136454E-009  0.1401048E+03  0.7561462E-02  0.1213188E+00
          1   -1    0    0  501    0  0.00000000000E+00  0.00000000000E+00  0.93515085191E+02  0.93515085191E+02  0.00000000000E+00 0. -1.
         -1   -1    0    0    0  501 -0.00000000000E+00 -0.00000000000E+00 -0.30117788724E+03  0.30117788724E+03  0.00000000000E+00 0.  1.
         25    2    1    2    0    0 -0.92263148551E+02  0.61426703630E+02 -0.35184170772E+02  0.17079654387E+03  0.12509118684E+03 0.  0.
         23    2    1    2    0    0  0.92263148551E+02 -0.61426703630E+02 -0.17247863127E+03  0.22389642856E+03  0.89972240032E+02 0.  0.
          5    1    3    3  502    0 -0.34805698189E+02 -0.33271239490E+02 -0.35472565387E+02  0.59951541254E+02  0.41800000000E+01 0. -1.
         -5    1    3    3    0  502 -0.57457450362E+02  0.94697943120E+02  0.28839461472E+00  0.11084500262E+03  0.41800000000E+01 0. -1.
        -11    1    4    4    0    0  0.33496224825E+02 -0.51499571823E+02 -0.14654069704E+03  0.15889738470E+03  0.00000000000E+00 0.  1.
         11    1    4    4    0    0  0.58766923726E+02 -0.99271318071E+01 -0.25937934230E+02  0.64999043857E+02  0.00000000000E+00 0. -1.
</event>
<event>
 8    1  0.7136454E-009  0.1222588E+03  0.7561462E-02  0.1239417E+00
         -1   -1    0    0    0  501 -0.00000000000E+00  0.00000000000E+00  0.16377697918E+03  0.16377697918E+03  0.00000000000E+00 0.  1.
          1   -1    0    0  501    0  0.00000000000E+00 -0.00000000000E+00 -0.12340236219E+03  0.12340236219E+03  0.00000000000E+00 0. -1.
         25    2    1    2    0    0  0.76103925850E+02 -0.22831447829E+02 -0.23902050494E+02  0.15010612094E+03  0.12508979569E+03 0.  0.
         23    2    1    2    0    0 -0.76103925850E+02  0.22831447829E+02  0.64276667485E+02  0.13707322044E+03  0.91348208731E+02 0.  0.
          5    1    3    3  502    0  0.28998329254E+01 -0.63344981586E+02 -0.18376703562E+02  0.66152636810E+02  0.41800000000E+01 0. -1.
         -5    1    3    3    0  502  0.73204092925E+02  0.40513533757E+02 -0.55253469320E+01  0.83953484128E+02  0.41800000000E+01 0. -1.
        -11    1    4    4    0    0 -0.67082741307E+02  0.39784733439E+02  0.80388561916E+02  0.11200553595E+03  0.00000000000E+00 0.  1.
         11    1    4    4    0    0 -0.90211845431E+01 -0.16953285609E+02 -0.16111894431E+02  0.25067684490E+02  0.00000000000E+00 0. -1.
</event>
<event>
 8    1  0.7136454E-009  0.1260002E+03  0.7561462E-02  0.1233514E+00
         -2   -1    0    0    0  501 -0.00000000000E+00  0.00000000000E+00  0.15355927916E+02  0.15355927916E+02  0.00000000000E+00 0.  1.
          2   -1    0    0  501    0  0.00000000000E+00 -0.00000000000E+00 -0.12518786133E+04  0.12518786133E+04  0.00000000000E+00 0. -1.
         25    2    1    2    0    0 -0.85295440910E+02 -0.61252492480E+00 -0.63682619192E+03  0.65457615400E+03  0.12508659096E+03 0.  0.
         23    2    1    2    0    0  0.85295440910E+02  0.61252492480E+00 -0.59969649344E+03  0.61265838720E+03  0.91862548027E+02 0.  0.
          5    1    3    3  502    0 -0.43652013798E+02  0.46987538117E+02 -0.14401674829E+03  0.15770739752E+03  0.41800000000E+01 0.  1.
         -5    1    3    3    0  502 -0.41643427112E+02 -0.47600063042E+02 -0.49280944364E+03  0.49686875648E+03  0.41800000000E+01 0.  1.
        -11    1    4    4    0    0  0.63427332670E+02  0.43014311594E+02 -0.40626779402E+03  0.41343291836E+03  0.00000000000E+00 0. -1.
         11    1    4    4    0    0  0.21868108240E+02 -0.42401786669E+02 -0.19342869943E+03  0.19922546884E+03  0.00000000000E+00 0.  1.
</event>
<event>
 8    1  0.7136454E-009  0.1088212E+03  0.7561462E-02  0.1262769E+00
          1   -1    0    0  501    0  0.00000000000E+00  0.00000000000E+00  0.20795667184E+03  0.20795667184E+03  0.00000000000E+00 0. -1.
         -1   -1    0    0    0  501 -0.00000000000E+00 -0.00000000000E+00 -0.13482630176E+03  0.13482630176E+03  0.00000000000E+00 0.  1.
         25    2    1    2    0    0 -0.21134266342E+02  0.85822982345E+01  0.16690222237E+03  0.20982045676E+03  0.12509180303E+03 0.  0.
         23    2    1    2    0    0  0.21134266342E+02 -0.85822982345E+01 -0.93771852287E+02  0.13296251684E+03  0.91463421901E+02 0.  0.
          5    1    3    3  502    0 -0.14238584728E+02  0.66557212342E+02  0.98364796192E+02  0.11969003860E+03  0.41800000000E+01 0.  1.
         -5    1    3    3    0  502 -0.68956816146E+01 -0.57974914108E+02  0.68537426178E+02  0.90130418161E+02  0.41800000000E+01 0.  1.
        -11    1    4    4    0    0 -0.26359166877E+02 -0.29028371435E+02 -0.58293877796E+02  0.70254026326E+02  0.00000000000E+00 0.  1.
         11    1    4    4    0    0  0.47493433219E+02  0.20446073201E+02 -0.35477974491E+02  0.62708490512E+02  0.00000000000E+00 0. -1.
</event>
<event>
 8    1  0.7136454E-009  0.1861875E+03  0.7561462E-02  0.1161946E+00
         -2   -1    0    0    0  501 -0.00000000000E+00  0.00000000000E+00  0.67086708354E+02  0.67086708354E+02  0.00000000000E+00 0.  1.
          2   -1    0    0  501    0  0.00000000000E+00 -0.00000000000E+00 -0.63932580653E+03  0.63932580653E+03  0.00000000000E+00 0. -1.
         25    2    1    2    0    0  0.90437409187E+02 -0.13341649940E+03 -0.41850437014E+03  0.46558857848E+03  0.12509168353E+03 0.  0.
         23    2    1    2    0    0 -0.90437409187E+02  0.13341649940E+03 -0.15373472803E+03  0.24082393640E+03  0.91558257141E+02 0.  0.
          5    1    3    3  502    0  0.11209002595E+03 -0.72816933467E+02 -0.33012536343E+03  0.35618353092E+03  0.41800000000E+01 0. -1.
         -5    1    3    3    0  502 -0.21652616764E+02 -0.60599565931E+02 -0.88379006711E+02  0.10940504756E+03  0.41800000000E+01 0. -1.
        -11    1    4    4    0    0 -0.32372645995E+02  0.10428465543E+03 -0.54047340917E+02  0.12183756657E+03  0.00000000000E+00 0. -1.
         11    1    4    4    0    0 -0.58064763192E+02  0.29131843968E+02 -0.99687387113E+02  0.11898636984E+03  0.00000000000E+00 0.  1.
</event>
<event>
 8    1  0.7136454E-009  0.1049662E+03  0.7561462E-02  0.1270186E+00
         -2   -1    0    0    0  501 -0.00000000000E+00  0.00000000000E+00  0.46543164812E+02  0.46543164812E+02  0.00000000000E+00 0.  1.
          2   -1    0    0  501    0  0.00000000000E+00 -0.00000000000E+00 -0.38033925448E+03  0.38033925448E+03  0.00000000000E+00 0. -1.
         25    2    1    2    0    0  0.60483124039E+02 -0.27979457799E+02 -0.24395170990E+03  0.28213537451E+03  0.12508746713E+03 0.  0.
         23    2    1    2    0    0 -0.60483124039E+02  0.27979457799E+02 -0.89844379766E+02  0.14474704478E+03  0.91862048993E+02 0.  0.
          5    1    3    3  502    0  0.10400240868E+02  0.46996416669E+02 -0.11495601124E+03  0.12469637168E+03  0.41800000000E+01 0.  1.
         -5    1    3    3    0  502  0.50082883170E+02 -0.74975874469E+02 -0.12899569866E+03  0.15743900283E+03  0.41800000000E+01 0.  1.
        -11    1    4    4    0    0 -0.33387245927E+02  0.14248207923E+01  0.12436412999E+02  0.35656733911E+02  0.00000000000E+00 0.  1.
         11    1    4    4    0    0 -0.27095878111E+02  0.26554637007E+02 -0.10228079276E+03  0.10909031087E+03  0.00000000000E+00 0. -1.
</event>
<event>
 8    1  0.7136454E-009  0.1106777E+03  0.7561462E-02  0.1259320E+00
          2   -1    0    0  501    0  0.00000000000E+00  0.00000000000E+00  0.91644242957E+02  0.91644242957E+02  0.00000000000E+00 0. -1.
         -2   -1    0    0    0  501 -0.00000000000E+00 -0.00000000000E+00 -0.23933905673E+03  0.23933905673E+03  0.00000000000E+00 0.  1.
         25    2    1    2    0    0 -0.16300389156E+02 -0.88533546325E+02 -0.31395122825E+02  0.15726392950E+03  0.12506957372E+03 0.  0.
         23    2    1    2    0    0  0.16300389156E+02  0.88533546325E+02 -0.11629969095E+03  0.17371937019E+03  0.92460315560E+02 0.  0.
          5    1    3    3  502    0 -0.53409185790E+02 -0.73441899488E+02  0.18879423075E+02  0.92844809994E+02  0.41800000000E+01 0. -1.
         -5    1    3    3    0  502  0.37108796633E+02 -0.15091646837E+02 -0.50274545900E+02  0.64419119501E+02  0.41800000000E+01 0. -1.
        -11    1    4    4    0    0  0.91551075803E+00  0.15968102492E+02  0.15631663509E+02  0.22364421772E+02  0.00000000000E+00 0. -1.
         11    1    4    4    0    0  0.15384878398E+02  0.72565443833E+02 -0.13193135445E+03  0.15135494842E+03  0.00000000000E+00 0.  1.
</event>
<event>
 8    1  0.7136454E-009  0.1296006E+03  0.7561462E-02  0.1228050E+00
         -1   -1    0    0    0  501 -0.00000000000E+00  0.00000000000E+00  0.52752502694E+02  0.52752502694E+02  0.00000000000E+00 0.  1.
          1   -1    0    0  501    0  0.00000000000E+00 -0.00000000000E+00 -0.32506572577E+03  0.32506572577E+03  0.00000000000E+00 0. -1.
         25    2    1    2    0    0 -0.70156938511E+02 -0.15509309838E+02 -0.17450584317E+03  0.22641180187E+03  0.12508988773E+03 0.  0.
         23    2    1    2    0    0  0.70156938511E+02  0.15509309838E+02 -0.97807379905E+02  0.15140642659E+03  0.90526723882E+02 0.  0.
          5    1    3    3  502    0 -0.10561136842E+02 -0.65150917339E+02 -0.89180864348E+02  0.11102647706E+03  0.41800000000E+01 0.  1.
         -5    1    3    3    0  502 -0.59595801669E+02  0.49641607501E+02 -0.85324978822E+02  0.11538532482E+03  0.41800000000E+01 0.  1.
        -11    1    4    4    0    0  0.26190122925E+01  0.42558675569E+02 -0.40289726660E+02  0.58663124413E+02  0.00000000000E+00 0.  1.
         11    1    4    4    0    0  0.67537926218E+02 -0.27049365731E+02 -0.57517653245E+02  0.92743302179E+02  0.00000000000E+00 0. -1.
</event>
<event>
 8    1  0.7136454E-009  0.1504283E+03  0.7561462E-02  0.1199948E+00
          1   -1    0    0  501    0  0.00000000000E+00  0.00000000000E+00  0.26071842487E+03  0.26071842487E+03  0.00000000000E+00 0. -1.
         -1   -1    0    0    0  501 -0.00000000000E+00 -0.00000000000E+00 -0.10559507380E+03  0.10559507380E+03  0.00000000000E+00 0.  1.
         25    2    1    2    0    0  0.12150117047E+03 -0.24106163945E+02  0.85059048130E+02  0.19551223492E+03  0.12508537392E+03 0.  0.
         23    2    1    2    0    0 -0.12150117047E+03  0.24106163945E+02  0.70064302941E+02  0.17080126376E+03  0.94447994095E+02 0.  0.
          5    1    3    3  502    0  0.51505627588E+02  0.42537498110E+02  0.35544957524E+00  0.66931809800E+02  0.41800000000E+01 0.  1.
         -5    1    3    3    0  502  0.69995542880E+02 -0.66643662055E+02  0.84703598555E+02  0.12858042512E+03  0.41800000000E+01 0.  1.
        -11    1    4    4    0    0 -0.77066877584E+02  0.43734186380E+02  0.38704613012E+01  0.88695902665E+02  0.00000000000E+00 0.  1.
         11    1    4    4    0    0 -0.44434292884E+02 -0.19628022434E+02  0.66193841640E+02  0.82105361091E+02  0.00000000000E+00 0. -1.
</event>
<event>
 8    1  0.7136454E-009  0.1372447E+03  0.7561462E-02  0.1217085E+00
         -2   -1    0    0    0  501 -0.00000000000E+00  0.00000000000E+00  0.61031637730E+02  0.61031637730E+02  0.00000000000E+00 0.  1.
          2   -1    0    0  501    0  0.00000000000E+00 -0.00000000000E+00 -0.40650494070E+03  0.40650494070E+03  0.00000000000E+00 0. -1.
         25    2    1    2    0    0 -0.11042396661E+03 -0.22720529634E+02 -0.17130623058E+03  0.24021566906E+03  0.12509223858E+03 0.  0.
         23    2    1    2    0    0  0.11042396661E+03  0.22720529634E+02 -0.17416707239E+03  0.22732090937E+03  0.92902916343E+02 0.  0.
          5    1    3    3  502    0 -0.10792075978E+03 -0.59699182516E+02 -0.15829551293E+03  0.20071328954E+03  0.41800000000E+01 0. -1.
         -5    1    3    3    0  502 -0.25032068302E+01  0.36978652882E+02 -0.13010717655E+02  0.39502379514E+02  0.41800000000E+01 0. -1.
        -11    1    4    4    0    0  0.91297467703E+02  0.24643441795E+02 -0.60998924698E+02  0.11253175395E+03  0.00000000000E+00 0.  1.
         11    1    4    4    0    0  0.19126498911E+02 -0.19229121608E+01 -0.11316814769E+03  0.11478915543E+03  0.00000000000E+00 0. -1.
</event>
<event>
 8    1  0.7136454E-009  0.1173961E+03  0.7561462E-02  0.1247455E+00
         -1   -1    0    0    0  501 -0.00000000000E+00  0.00000000000E+00  0.17582632039E+03  0.17582632039E+03  0.00000000000E+00 0.  1.
          1   -1    0    0  501    0  0.00000000000E+00 -0.00000000000E+00 -0.11078113799E+03  0.11078113799E+03  0.00000000000E+00 0. -1.
         25    2    1    2    0    0  0.65191242896E+02  0.42659242236E+02 -0.47578529926E+01  0.14744488181E+03  0.12509055483E+03 0.  0.
         23    2    1    2    0    0 -0.65191242896E+02 -0.42659242236E+02  0.69803035399E+02  0.13916257657E+03  0.91782622917E+02 0.  0.
          5    1    3    3  502    0 -0.14297946156E+02 -0.30635374503E+02  0.15391421938E+02  0.37380820008E+02  0.41800000000E+01 0.  1.
         -5    1    3    3    0  502  0.79489189052E+02  0.73294616739E+02 -0.20149274931E+02  0.11006406180E+03  0.41800000000E+01 0.  1.
        -11    1    4    4    0    0 -0.90522809729E+01 -0.34653455000E+02  0.74090881036E+02  0.82293768822E+02  0.00000000000E+00 0.  1.
         11    1    4    4    0    0 -0.56138961923E+02 -0.80057872354E+01 -0.42878456362E+01  0.56868807753E+02  0.00000000000E+00 0. -1.
</event>
<event>
 8    1  0.7136454E-009  0.1149754E+03  0.7561462E-02  0.1251624E+00
          2   -1    0    0  501    0  0.00000000000E+00  0.00000000000E+00  0.35419091968E+03  0.35419091968E+03  0.00000000000E+00 0. -1.
         -2   -1    0    0    0  501 -0.00000000000E+00 -0.00000000000E+00 -0.65719594930E+02  0.65719594930E+02  0.00000000000E+00 0.  1.
         25    2    1    2    0    0  0.63075026934E+02  0.76509040050E+02  0.20740832267E+03  0.26172143112E+03  0.12509117861E+03 0.  0.
         23    2    1    2    0    0 -0.63075026934E+02 -0.76509040050E+02  0.81063002086E+02  0.15818908349E+03  0.92846559420E+02 0.  0.
          5    1    3    3  502    0  0.71820373050E+01  0.50716759864E+02  0.68017967348E+01  0.51841182758E+02  0.41800000000E+01 0. -1.
         -5    1    3    3    0  502  0.55892989629E+02  0.25792280186E+02  0.20060652593E+03  0.20988024837E+03  0.41800000000E+01 0. -1.
        -11    1    4    4    0    0 -0.25391642462E+02 -0.74959886333E+02  0.12760781294E+02  0.80165813195E+02  0.00000000000E+00 0.  1.
         11    1    4    4    0    0 -0.37683384472E+02 -0.15491537171E+01  0.68302220791E+02  0.78023270295E+02  0.00000000000E+00 0. -1.
</event>
<event>
 8    1  0.7136454E-009  0.9048441E+02  0.7561462E-02  0.1301683E+00
         -2   -1    0    0    0  501 -0.00000000000E+00  0.00000000000E+00  0.45526566401E+03  0.45526566401E+03  0.00000000000E+00 0.  1.
          2   -1    0    0  501    0  0.00000000000E+00 -0.00000000000E+00 -0.32705348474E+02  0.32705348474E+02  0.00000000000E+00 0. -1.
         25    2    1    2    0    0 -0.24377499358E+02 -0.28476695017E+02  0.32964845427E+03  0.35456751243E+03  0.12507930619E+03 0.  0.
         23    2    1    2    0    0  0.24377499358E+02  0.28476695017E+02  0.92911861268E+02  0.13340350005E+03  0.88083456041E+02 0.  0.
          5    1    3    3  502    0 -0.54969602560E+02 -0.12809339203E+02  0.30923991955E+03  0.31437642503E+03  0.41800000000E+01 0. -1.
         -5    1    3    3    0  502  0.30592103202E+02 -0.15667355814E+02  0.20408534719E+02  0.40191087394E+02  0.41800000000E+01 0. -1.
        -11    1    4    4    0    0 -0.31342176869E+01 -0.27340181495E+02  0.90372761301E+01  0.28965172269E+02  0.00000000000E+00 0. -1.
         11    1    4    4    0    0  0.27511717045E+02  0.55816876512E+02  0.83874585138E+02  0.10443832778E+03  0.00000000000E+00 0.  1.
</event>
<event>
 8    1  0.7136454E-009  0.2760315E+03  0.7561462E-02  0.1097876E+00
          2   -1    0    0  501    0  0.00000000000E+00  0.00000000000E+00  0.10780891205E+04  0.10780891205E+04  0.00000000000E+00 0. -1.
         -2   -1    0    0    0  501 -0.00000000000E+00 -0.00000000000E+00 -0.77633364959E+02  0.77633364959E+02  0.00000000000E+00 0.  1.
         25    2    1    2    0    0  0.13222499271E+02  0.26521065472E+03  0.53840604111E+03  0.61322061622E+03  0.12508770197E+03 0.  0.
         23    2    1    2    0    0 -0.13222499271E+02 -0.26521065472E+03  0.46204971445E+03  0.54250186927E+03  0.10152247863E+03 0.  0.
          5    1    3    3  502    0 -0.29962499259E+02  0.80953755178E+02  0.82073921561E+02  0.11918415515E+03  0.41800000000E+01 0.  1.
         -5    1    3    3    0  502  0.43184998529E+02  0.18425689954E+03  0.45633211955E+03  0.49403646107E+03  0.41800000000E+01 0.  1.
        -11    1    4    4    0    0  0.19712413609E+02 -0.21738053488E+03  0.41016649685E+03  0.46462827220E+03  0.00000000000E+00 0.  1.
         11    1    4    4    0    0 -0.32934912879E+02 -0.47830119842E+02  0.51883217606E+02  0.77873597064E+02  0.00000000000E+00 0. -1.
</event>
<event>
 8    1  0.7136454E-009  0.2330428E+03  0.7561462E-02  0.1124516E+00
          1   -1    0    0  501    0  0.00000000000E+00  0.00000000000E+00  0.52671382155E+02  0.52671382155E+02  0.00000000000E+00 0. -1.
         -1   -1    0    0    0  501 -0.00000000000E+00 -0.00000000000E+00 -0.12193731665E+04  0.12193731665E+04  0.00000000000E+00 0.  1.
         25    2    1    2    0    0 -0.26559062138E+02 -0.21394762896E+03 -0.78316239387E+03  0.82186947134E+03  0.12508845279E+03 0.  0.
         23    2    1    2    0    0  0.26559062138E+02  0.21394762896E+03 -0.38353939050E+03  0.45017507735E+03  0.95268906138E+02 0.  0.
          5    1    3    3  502    0 -0.63309551486E+02 -0.52558585713E+02 -0.30091208231E+03  0.31198727205E+03  0.41800000000E+01 0. -1.
         -5    1    3    3    0  502  0.36750489347E+02 -0.16138904325E+03 -0.48225031156E+03  0.50988219929E+03  0.41800000000E+01 0. -1.
        -11    1    4    4    0    0  0.34484158363E+02  0.17848419525E+03 -0.23416338367E+03  0.29644266795E+03  0.00000000000E+00 0.  1.
         11    1    4    4    0    0 -0.79250962245E+01  0.35463433716E+02 -0.14937600683E+03  0.15373240939E+03  0.00000000000E+00 0. -1.
</event>
<event>
 8    1  0.7136454E-009  0.1176751E+03  0.7561462E-02  0.1246982E+00
         -1   -1    0    0    0  501 -0.00000000000E+00  0.00000000000E+00  0.12896293796E+03  0.12896293796E+03  0.00000000000E+00 0.  1.
          1   -1    0    0  501    0  0.00000000000E+00 -0.00000000000E+00 -0.11686785634E+03  0.11686785634E+03  0.00000000000E+00 0. -1.
         25    2    1    2    0    0 -0.28226288452E+02 -0.49483739071E+02  0.19100267521E+02  0.13876734221E+03  0.12508473628E+03 0.  0.
         23    2    1    2    0    0  0.28226288452E+02  0.49483739071E+02 -0.70051859072E+01  0.10706345210E+03  0.90377797900E+02 0.  0.
          5    1    3    3  502    0  0.68937232581E+01 -0.80845410196E+02 -0.12080732355E+02  0.82139638813E+02  0.41800000000E+01 0.  1.
         -5    1    3    3    0  502 -0.35120011710E+02  0.31361671125E+02  0.31180999876E+02  0.56627703393E+02  0.41800000000E+01 0.  1.
        -11    1    4    4    0    0 -0.27934497311E+02 -0.52382388497E+01 -0.18027661124E+01  0.28478505086E+02  0.00000000000E+00 0.  1.
         11    1    4    4    0    0  0.56160785763E+02  0.54721977921E+02 -0.52024197947E+01  0.78584947012E+02  0.00000000000E+00 0. -1.
</event>
<event>
 8    1  0.7136454E-009  0.1020072E+03  0.7561462E-02  0.1276131E+00
         -1   -1    0    0    0  501 -0.00000000000E+00  0.00000000000E+00  0.24219694165E+02  0.24219694165E+02  0.00000000000E+00 0.  1.
          1   -1    0    0  501    0  0.00000000000E+00 -0.00000000000E+00 -0.48669566334E+03  0.48669566334E+03  0.00000000000E+00 0. -1.
         25    2    1    2    0    0  0.58105750542E+01  0.12096894540E+02 -0.26487084332E+03  0.29323213234E+03  0.12509365353E+03 0.  0.
         23    2    1    2    0    0 -0.58105750542E+01 -0.12096894540E+02 -0.19760512585E+03  0.21768322517E+03  0.90322218288E+02 0.  0.
          5    1    3    3  502    0 -0.48320822591E+02  0.38340400189E+02 -0.16920725959E+03  0.18014843124E+03  0.41800000000E+01 0.  1.
         -5    1    3    3    0  502  0.54131397646E+02 -0.26243505649E+02 -0.95663583733E+02  0.11308370109E+03  0.41800000000E+01 0.  1.
        -11    1    4    4    0    0  0.82589902962E+01  0.33326213244E+02 -0.13363417238E+03  0.13797441588E+03  0.00000000000E+00 0. -1.
         11    1    4    4    0    0 -0.14069565350E+02 -0.45423107783E+02 -0.63970953471E+02  0.79708809286E+02  0.00000000000E+00 0.  1.
</event>
<event>
 8    1  0.7136454E-009  0.2631506E+03  0.7561462E-02  0.1105265E+00
         -2   -1    0    0    0  501 -0.00000000000E+00  0.00000000000E+00  0.51933790881E+02  0.51933790881E+02  0.00000000000E+00 0.  1.
          2   -1    0    0  501    0  0.00000000000E+00 -0.00000000000E+00 -0.15432498259E+04  0.15432498259E+04  0.00000000000E+00 0. -1.
         25    2    1    2    0    0  0.16173815575E+03  0.20055574219E+03 -0.65807237336E+03  0.71769675018E+03  0.12509012706E+03 0.  0.
         23    2    1    2    0    0 -0.16173815575E+03 -0.20055574219E+03 -0.83324366162E+03  0.87748686657E+03  0.96469500941E+02 0.  0.
          5    1    3    3  502    0  0.13064133936E+03  0.10653630152E+03 -0.28007045738E+03  0.32691600847E+03  0.41800000000E+01 0. -1.
         -5    1    3    3    0  502  0.31096816391E+02  0.94019440665E+02 -0.37800191598E+03  0.39078074171E+03  0.41800000000E+01 0. -1.
        -11    1    4    4    0    0 -0.38614555578E+02 -0.34104096529E+02 -0.71625813759E+02  0.88229419692E+02  0.00000000000E+00 0.  1.
         11    1    4    4    0    0 -0.12312360017E+03 -0.16645164566E+03 -0.76161784787E+03  0.78925744688E+03  0.00000000000E+00 0. -1.
</event>
<event>
 8    1  0.7136454E-009  0.1054986E+03  0.7561462E-02  0.1269140E+00
         -1   -1    0    0    0  501 -0.00000000000E+00  0.00000000000E+00  0.76277999552E+02  0.76277999552E+02  0.00000000000E+00 0.  1.
          1   -1    0    0  501    0  0.00000000000E+00 -0.00000000000E+00 -0.16212795201E+03  0.16212795201E+03  0.00000000000E+00 0. -1.
         25    2    1    2    0    0 -0.70252576876E+01  0.45849062216E+01 -0.20028205405E+02  0.12695708669E+03  0.12508635912E+03 0.  0.
         23    2    1    2    0    0  0.70252576876E+01 -0.45849062216E+01 -0.65821747050E+02  0.11144886487E+03  0.89543126397E+02 0.  0.
          5    1    3    3  502    0  0.32122008008E+02 -0.49050602955E+02 -0.75687725429E+01  0.59266717190E+02  0.41800000000E+01 0.  1.
         -5    1    3    3    0  502 -0.39147265695E+02  0.53635509177E+02 -0.12459432862E+02  0.67690369502E+02  0.41800000000E+01 0.  1.
        -11    1    4    4    0    0 -0.13561953144E+02 -0.41365301095E+02 -0.16460317281E+02  0.46539840489E+02  0.00000000000E+00 0.  1.
         11    1    4    4    0    0  0.20587210832E+02  0.36780394874E+02 -0.49361429769E+02  0.64909024378E+02  0.00000000000E+00 0. -1.
</event>
<event>
 8    1  0.7136454E-009  0.1836687E+03  0.7561462E-02  0.1164299E+00
          2   -1    0    0  501    0  0.00000000000E+00  0.00000000000E+00  0.39662022795E+03  0.39662022795E+03  0.00000000000E+00 0. -1.
         -2   -1    0    0    0  501 -0.00000000000E+00 -0.00000000000E+00 -0.10163590581E+03  0.10163590581E+03  0.00000000000E+00 0.  1.
         25    2    1    2    0    0 -0.49723717431E+02  0.13833215118E+03  0.53322670057E+02  0.20027189611E+03  0.12512910575E+03 0.  0.
         23    2    1    2    0    0  0.49723717431E+02 -0.13833215118E+03  0.24166165208E+03  0.29798423765E+03  0.93733770212E+02 0.  0.
          5    1    3    3  502    0 -0.50913896480E+01 -0.23866817624E+02  0.64101316413E+01  0.25575562940E+02  0.41800000000E+01 0. -1.
         -5    1    3    3    0  502 -0.44632327783E+02  0.16219896880E+03  0.46912538416E+02  0.17469633317E+03  0.41800000000E+01 0. -1.
        -11    1    4    4    0    0  0.71652295199E+02 -0.61589614127E+02  0.12778125908E+03  0.15891942029E+03  0.00000000000E+00 0.  1.
         11    1    4    4    0    0 -0.21928577768E+02 -0.76742537052E+02  0.11388039300E+03  0.13906481736E+03  0.00000000000E+00 0. -1.
</event>
<event>
 8    1  0.7136454E-009  0.1073768E+03  0.7561462E-02  0.1265506E+00
         -3   -1    0    0    0  501 -0.00000000000E+00  0.00000000000E+00  0.11155402361E+03  0.11155402361E+03  0.00000000000E+00 0.  1.
          3   -1    0    0  501    0  0.00000000000E+00 -0.00000000000E+00 -0.17120853923E+03  0.17120853923E+03  0.00000000000E+00 0. -1.
         25    2    1    2    0    0  0.17173192961E+02 -0.68385693784E+02 -0.80319623116E+02  0.16452954581E+03  0.12508880012E+03 0.  0.
         23    2    1    2    0    0 -0.17173192961E+02  0.68385693784E+02  0.20665107492E+02  0.11823301703E+03  0.92630869464E+02 0.  0.
          5    1    3    3  502    0  0.37028796779E+02 -0.69154655744E+02  0.31568699921E+01  0.78618931754E+02  0.41800000000E+01 0. -1.
         -5    1    3    3    0  502 -0.19855603817E+02  0.76896195940E+00 -0.83476493108E+02  0.85910614053E+02  0.41800000000E+01 0. -1.
        -11    1    4    4    0    0  0.16789542230E+02 -0.17065280216E+02  0.88542385514E+01  0.25524695051E+02  0.00000000000E+00 0.  1.
         11    1    4    4    0    0 -0.33962735191E+02  0.85450974000E+02  0.11810868941E+02  0.92708321980E+02  0.00000000000E+00 0. -1.
</event>
<event>
 8    1  0.7136454E-009  0.2678385E+03  0.7561462E-02  0.1102523E+00
          2   -1    0    0  501    0  0.00000000000E+00  0.00000000000E+00  0.18251846058E+04  0.18251846058E+04  0.00000000000E+00 0. -1.
         -2   -1    0    0    0  501 -0.00000000000E+00 -0.00000000000E+00 -0.47554342200E+02  0.47554342200E+02  0.00000000000E+00 0.  1.
         25    2    1    2    0    0  0.20629977758E+03  0.14762375383E+03  0.58191563764E+03  0.64701277945E+03  0.12508939409E+03 0.  0.
         23    2    1    2    0    0 -0.20629977758E+03 -0.14762375383E+03  0.11957146259E+04  0.12257261685E+04  0.91207470210E+02 0.  0.
          5    1    3    3  502    0 -0.30762565112E+01  0.27573355320E+02  0.17301582488E+02  0.32963167844E+02  0.41800000000E+01 0. -1.
         -5    1    3    3    0  502  0.20937603409E+03  0.12005039851E+03  0.56461405516E+03  0.61404961160E+03  0.41800000000E+01 0. -1.
        -11    1    4    4    0    0 -0.89235108645E+02 -0.17022315053E+02  0.50406155680E+03  0.51218230824E+03  0.00000000000E+00 0.  1.
         11    1    4    4    0    0 -0.11706466893E+03 -0.13060143877E+03  0.69165306914E+03  0.71354386030E+03  0.00000000000E+00 0. -1.
</event>
<event>
 7    1  0.7136454E-009  0.1671497E+03  0.7561462E-02  0.1180853E+00
          2   -1    0    0  501    0  0.00000000000E+00  0.00000000000E+00  0.11585248421E+04  0.11585248421E+04  0.00000000000E+00 0. -1.
         -2   -1    0    0    0  501 -0.00000000000E+00 -0.00000000000E+00 -0.26770732599E+02  0.26770732599E+02  0.00000000000E+00 0.  1.
         23    2    1    2    0    0 -0.98150843520E+02 -0.97128141905E+02  0.50255424938E+03  0.52907190557E+03  0.91043086784E+02 0.  0.
          5    1    1    2  502    0  0.83023839838E+02 -0.30250851800E+01  0.23867822093E+03  0.25275853035E+03  0.41800000000E+01 0. -1.
         -5    1    1    2    0  502  0.15127003681E+02  0.10015322708E+03  0.39052163920E+03  0.40346513879E+03  0.41800000000E+01 0. -1.
        -11    1    3    3    0    0 -0.15123254597E+02 -0.54201691011E+02  0.90646775390E+02  0.10669289586E+03  0.00000000000E+00 0.  1.
         11    1    3    3    0    0 -0.83027588923E+02 -0.42926450893E+02  0.41190747399E+03  0.42237900971E+03  0.00000000000E+00 0. -1.
</event>
<event>
 8    1  0.7136454E-009  0.5774045E+02  0.7561462E-02  0.1407566E+00
         -2   -1    0    0    0  501 -0.00000000000E+00  0.00000000000E+00  0.10598922817E+03  0.10598922817E+03  0.00000000000E+00 0.  1.
          2   -1    0    0  501    0  0.00000000000E+00 -0.00000000000E+00 -0.11397111137E+03  0.11397111137E+03  0.00000000000E+00 0. -1.
         25    2    1    2    0    0 -0.21367868222E+02  0.28018089841E+02 -0.33008352223E+01  0.13000048182E+03  0.12509048969E+03 0.  0.
         23    2    1    2    0    0  0.21367868222E+02 -0.28018089841E+02 -0.46810479756E+01  0.89959857714E+02  0.82639364948E+02 0.  0.
          5    1    3    3  502    0 -0.20941649414E+02  0.35132273230E+02 -0.59982374749E+02  0.72719921500E+02  0.41800000000E+01 0. -1.
         -5    1    3    3    0  502 -0.42621880804E+00 -0.71141833885E+01  0.56681539526E+02  0.57280560322E+02  0.41800000000E+01 0. -1.
        -11    1    4    4    0    0  0.37557177185E+02 -0.32103757877E+02  0.25400454008E+02  0.55555160802E+02  0.00000000000E+00 0.  1.
         11    1    4    4    0    0 -0.16189308963E+02  0.40856680364E+01 -0.30081501984E+02  0.34404696912E+02  0.00000000000E+00 0. -1.
</event>
<event>
 8    1  0.7136454E-009  0.2196269E+03  0.7561462E-02  0.1134162E+00
         -2   -1    0    0    0  501 -0.00000000000E+00  0.00000000000E+00  0.10218119793E+03  0.10218119793E+03  0.00000000000E+00 0.  1.
          2   -1    0    0  501    0  0.00000000000E+00 -0.00000000000E+00 -0.56624163364E+03  0.56624163364E+03  0.00000000000E+00 0. -1.
         25    2    1    2    0    0 -0.70533838625E+02 -0.20144557851E+03 -0.23775129460E+03  0.34313338427E+03  0.12513791522E+03 0.  0.
         23    2    1    2    0    0  0.70533838625E+02  0.20144557851E+03 -0.22630914111E+03  0.32528944730E+03  0.95089713858E+02 0.  0.
          5    1    3    3  502    0 -0.84614915922E+02 -0.18636579614E+03 -0.15237715213E+03  0.25520219995E+03  0.41800000000E+01 0. -1.
         -5    1    3    3    0  502  0.14081077297E+02 -0.15079782369E+02 -0.85374142467E+02  0.87931184321E+02  0.41800000000E+01 0. -1.
        -11    1    4    4    0    0  0.38148842650E+01  0.14375317255E+02 -0.72702999182E+02  0.74208686676E+02  0.00000000000E+00 0. -1.
         11    1    4    4    0    0  0.66718954360E+02  0.18707026126E+03 -0.15360614193E+03  0.25108076063E+03  0.00000000000E+00 0.  1.
</event>
<event>
 8    1  0.7136454E-009  0.1142145E+03  0.7561462E-02  0.1252959E+00
          1   -1    0    0  501    0  0.00000000000E+00  0.00000000000E+00  0.72511257105E+03  0.72511257105E+03  0.00000000000E+00 0. -1.
         -1   -1    0    0    0  501 -0.00000000000E+00 -0.00000000000E+00 -0.26577347897E+02  0.26577347897E+02  0.00000000000E+00 0.  1.
         25    2    1    2    0    0  0.11096011623E+02 -0.76743625829E+02  0.49023572198E+03  0.51185083904E+03  0.12509001855E+03 0.  0.
         23    2    1    2    0    0 -0.11096011623E+02  0.76743625829E+02  0.20829950117E+03  0.23983907990E+03  0.90118790951E+02 0.  0.
          5    1    3    3  502    0 -0.17211588539E+02  0.17611041096E+02  0.26252116476E+03  0.26370669672E+03  0.41800000000E+01 0.  1.
         -5    1    3    3    0  502  0.28307600162E+02 -0.94354666925E+02  0.22771455723E+03  0.24814414233E+03  0.41800000000E+01 0.  1.
        -11    1    4    4    0    0  0.52389886931E+01  0.85945562516E+02  0.10961739231E+03  0.13939174802E+03  0.00000000000E+00 0.  1.
         11    1    4    4    0    0 -0.16335000316E+02 -0.92019366869E+01  0.98682108858E+02  0.10044733188E+03  0.00000000000E+00 0. -1.
</event>
<event>
 8    1  0.7136454E-009  0.1175330E+03  0.7561462E-02  0.1247223E+00
         -3   -1    0    0    0  501 -0.00000000000E+00  0.00000000000E+00  0.26577594881E+02  0.26577594881E+02  0.00000000000E+00 0.  1.
          3   -1    0    0  501    0  0.00000000000E+00 -0.00000000000E+00 -0.88498238429E+03  0.88498238429E+03  0.00000000000E+00 0. -1.
         25    2    1    2    0    0  0.88506158270E+02 -0.64004847998E+02 -0.44145312423E+03  0.47165321028E+03  0.12508368901E+03 0.  0.
         23    2    1    2    0    0 -0.88506158270E+02  0.64004847998E+02 -0.41695166518E+03  0.43990676889E+03  0.87973368711E+02 0.  0.
          5    1    3    3  502    0  0.61732566216E+01 -0.34731203656E+02 -0.32004389275E+03  0.32200920994E+03  0.41800000000E+01 0.  1.
         -5    1    3    3    0  502  0.82332901649E+02 -0.29273644342E+02 -0.12140923149E+03  0.14964400034E+03  0.41800000000E+01 0.  1.
        -11    1    4    4    0    0 -0.61528858485E+02  0.29423968198E+02 -0.36763868643E+03  0.37391145220E+03  0.00000000000E+00 0. -1.
         11    1    4    4    0    0 -0.26977299785E+02  0.34580879800E+02 -0.49312978751E+02  0.65995316688E+02  0.00000000000E+00 0.  1.
</event>
<event>
 8    1  0.7136454E-009  0.1200887E+03  0.7561462E-02  0.1242951E+00
          2   -1    0    0  501    0  0.00000000000E+00  0.00000000000E+00  0.99641094462E+03  0.99641094462E+03  0.00000000000E+00 0. -1.
         -2   -1    0    0    0  501 -0.00000000000E+00 -0.00000000000E+00 -0.19951180388E+02  0.19951180388E+02  0.00000000000E+00 0.  1.
         25    2    1    2    0    0 -0.89166956478E+02  0.14920456399E+02  0.59682565279E+03  0.61645942434E+03  0.12509194972E+03 0.  0.
         23    2    1    2    0    0  0.89166956478E+02 -0.14920456399E+02  0.37963411144E+03  0.39990270067E+03  0.87331238879E+02 0.  0.
          5    1    3    3  502    0 -0.89964430306E+02  0.55197793899E+02  0.50756195509E+03  0.51843707991E+03  0.41800000000E+01 0.  1.
         -5    1    3    3    0  502  0.79747382780E+00 -0.40277337500E+02  0.89263697700E+02  0.98022344430E+02  0.41800000000E+01 0.  1.
        -11    1    4    4    0    0  0.22156432006E+02  0.74872037986E+01  0.13481247171E+02  0.26994624006E+02  0.00000000000E+00 0.  1.
         11    1    4    4    0    0  0.67010524473E+02 -0.22407660198E+02  0.36615286427E+03  0.37290807666E+03  0.00000000000E+00 0. -1.
</event>
<event>
 8    1  0.7136454E-009  0.1027450E+03  0.7561462E-02  0.1274627E+00
         -1   -1    0    0    0  501 -0.00000000000E+00  0.00000000000E+00  0.13119900425E+03  0.13119900425E+03  0.00000000000E+00 0.  1.
          1   -1    0    0  501    0  0.00000000000E+00 -0.00000000000E+00 -0.27536816630E+03  0.27536816630E+03  0.00000000000E+00 0. -1.
         25    2    1    2    0    0  0.34068559915E+02 -0.30128178167E+02 -0.23442270238E+03  0.26957408965E+03  0.12509121682E+03 0.  0.
         23    2    1    2    0    0 -0.34068559915E+02  0.30128178167E+02  0.90253540338E+02  0.13699308090E+03  0.92482586341E+02 0.  0.
          5    1    3    3  502    0 -0.15774961162E+02  0.41056748791E+02 -0.58448430134E+02  0.73267983500E+02  0.41800000000E+01 0.  1.
         -5    1    3    3    0  502  0.49843521078E+02 -0.71184926958E+02 -0.17597427225E+03  0.19630610615E+03  0.41800000000E+01 0.  1.
        -11    1    4    4    0    0 -0.63391555276E+01 -0.17822754568E+02 -0.10779313539E+02  0.21772208743E+02  0.00000000000E+00 0. -1.
         11    1    4    4    0    0 -0.27729404388E+02  0.47950932735E+02  0.10103285388E+03  0.11522087216E+03  0.00000000000E+00 0.  1.
</event>
<event>
 8    1  0.7136454E-009  0.1714583E+03  0.7561462E-02  0.1176336E+00
          1   -1    0    0  501    0  0.00000000000E+00  0.00000000000E+00  0.23221265454E+03  0.23221265454E+03  0.00000000000E+00 0. -1.
         -1   -1    0    0    0  501 -0.00000000000E+00 -0.00000000000E+00 -0.16893661182E+03  0.16893661182E+03  0.00000000000E+00 0.  1.
         25    2    1    2    0    0  0.15170323432E+03  0.10555541132E+02 -0.32400415896E+02  0.19955734664E+03  0.12509219359E+03 0.  0.
         23    2    1    2    0    0 -0.15170323432E+03 -0.10555541132E+02  0.95676458622E+02  0.20159191972E+03  0.91433181120E+02 0.  0.
          5    1    3    3  502    0  0.14704487465E+03  0.46346878843E+02 -0.54678224632E+01  0.15432951053E+03  0.41800000000E+01 0. -1.
         -5    1    3    3    0  502  0.46583596697E+01 -0.35791337711E+02 -0.26932593433E+02  0.45227836107E+02  0.41800000000E+01 0. -1.
        -11    1    4    4    0    0 -0.10754513883E+03 -0.32727489121E+01  0.11070922485E+03  0.15438005129E+03  0.00000000000E+00 0. -1.
         11    1    4    4    0    0 -0.44158095494E+02 -0.72827922200E+01 -0.15032766223E+02  0.47211868429E+02  0.00000000000E+00 0.  1.
</event>
<event>
 8    1  0.7136454E-009  0.2812997E+03  0.7561462E-02  0.1094981E+00
          2   -1    0    0  501    0  0.00000000000E+00  0.00000000000E+00  0.15428488785E+04  0.15428488785E+04  0.00000000000E+00 0. -1.
         -2   -1    0    0    0  501 -0.00000000000E+00 -0.00000000000E+00 -0.53188011713E+02  0.53188011713E+02  0.00000000000E+00 0.  1.
         25    2    1    2    0    0 -0.29934435135E+02  0.26289110011E+03  0.72119578367E+03  0.77831768549E+03  0.12508900932E+03 0.  0.
         23    2    1    2    0    0  0.29934435135E+02 -0.26289110011E+03  0.76846508316E+03  0.81771920476E+03  0.90101680738E+02 0.  0.
          5    1    3    3  502    0  0.39408429053E+02  0.11146555416E+03  0.21482388558E+03  0.24524348770E+03  0.41800000000E+01 0. -1.
         -5    1    3    3    0  502 -0.69342864188E+02  0.15142554595E+03  0.50637189809E+03  0.53307419779E+03  0.41800000000E+01 0. -1.
        -11    1    4    4    0    0 -0.23652084698E+02 -0.15951594336E+03  0.49132593704E+03  0.51711307633E+03  0.00000000000E+00 0.  1.
         11    1    4    4    0    0  0.53586519833E+02 -0.10337515675E+03  0.27713914612E+03  0.30060612843E+03  0.00000000000E+00 0. -1.
</event>
<event>
 8    1  0.7136454E-009  0.1414405E+03  0.7561462E-02  0.1211404E+00
         -1   -1    0    0    0  501 -0.00000000000E+00  0.00000000000E+00  0.97052195318E+02  0.97052195318E+02  0.00000000000E+00 0.  1.
          1   -1    0    0  501    0  0.00000000000E+00 -0.00000000000E+00 -0.31343453606E+03  0.31343453606E+03  0.00000000000E+00 0. -1.
         25    2    1    2    0    0 -0.61011944222E+02 -0.74542357020E+02 -0.13250122620E+01  0.15788416342E+03  0.12508650237E+03 0.  0.
         23    2    1    2    0    0  0.61011944222E+02  0.74542357020E+02 -0.21505732848E+03  0.25260256795E+03  0.90991112076E+02 0.  0.
          5    1    3    3  502    0 -0.82080494255E+02 -0.96549856641E+02  0.30040612991E+01  0.12682893652E+03  0.41800000000E+01 0. -1.
         -5    1    3    3    0  502  0.21068550032E+02  0.22007499621E+02 -0.43290735611E+01  0.31055226902E+02  0.41800000000E+01 0. -1.
        -11    1    4    4    0    0  0.80491768811E+02  0.53439324983E+02 -0.12444330961E+03  0.15754625863E+03  0.00000000000E+00 0.  1.
         11    1    4    4    0    0 -0.19479824589E+02  0.21103032037E+02 -0.90614018869E+02  0.95056309327E+02  0.00000000000E+00 0. -1.
</event>
<event>
 8    1  0.7136454E-009  0.2032928E+03  0.7561462E-02  0.1146990E+00
         -1   -1    0    0    0  501 -0.00000000000E+00  0.00000000000E+00  0.48232537317E+02  0.48232537317E+02  0.00000000000E+00 0.  1.
          1   -1    0    0  501    0  0.00000000000E+00 -0.00000000000E+00 -0.95329196474E+03  0.95329196474E+03  0.00000000000E+00 0. -1.
         25    2    1    2    0    0 -0.16855208233E+03 -0.46538053337E+02 -0.33047063940E+03  0.39425262154E+03  0.12509472898E+03 0.  0.
         23    2    1    2    0    0  0.16855208233E+03  0.46538053337E+02 -0.57458878802E+03  0.60727188051E+03  0.89728850859E+02 0.  0.
          5    1    3    3  502    0 -0.93567572199E+02 -0.87571081106E+02 -0.21817806733E+03  0.25306664394E+03  0.41800000000E+01 0. -1.
         -5    1    3    3    0  502 -0.74984510134E+02  0.41033027769E+02 -0.11229257207E+03  0.14118597760E+03  0.41800000000E+01 0. -1.
        -11    1    4    4    0    0  0.56345513664E+02 -0.22908505577E+02 -0.13024079263E+03  0.14374380196E+03  0.00000000000E+00 0.  1.
         11    1    4    4    0    0  0.11220656867E+03  0.69446558914E+02 -0.44434799539E+03  0.46352807855E+03  0.00000000000E+00 0. -1.
</event>
<event>
 8    1  0.7136454E-009  0.9450095E+02  0.7561462E-02  0.1292304E+00
         -1   -1    0    0    0  501 -0.00000000000E+00  0.00000000000E+00  0.25432142134E+02  0.25432142134E+02  0.00000000000E+00 0.  1.
          1   -1    0    0  501    0  0.00000000000E+00 -0.00000000000E+00 -0.49306893217E+03  0.49306893217E+03  0.00000000000E+00 0. -1.
         25    2    1    2    0    0  0.50397014302E+01 -0.17424182473E+02 -0.22509669558E+03  0.25815616733E+03  0.12508830339E+03 0.  0.
         23    2    1    2    0    0 -0.50397014302E+01  0.17424182473E+02 -0.24254009445E+03  0.26034490697E+03  0.92869652969E+02 0.  0.
          5    1    3    3  502    0  0.25822635066E+02 -0.53988207084E+02 -0.50197663628E+02  0.78222840779E+02  0.41800000000E+01 0. -1.
         -5    1    3    3    0  502 -0.20782933636E+02  0.36564024611E+02 -0.17489903195E+03  0.17993332655E+03  0.41800000000E+01 0. -1.
        -11    1    4    4    0    0 -0.11071395604E+02 -0.33594164767E+02 -0.15372477341E+03  0.15774171822E+03  0.00000000000E+00 0. -1.
         11    1    4    4    0    0  0.60316941741E+01  0.51018347240E+02 -0.88815321043E+02  0.10260318875E+03  0.00000000000E+00 0.  1.
</event>
<event>
 8    1  0.7136454E-009  0.1466026E+03  0.7561462E-02  0.1204711E+00
         -1   -1    0    0    0  501 -0.00000000000E+00  0.00000000000E+00  0.95499792713E+02  0.95499792713E+02  0.00000000000E+00 0.  1.
          1   -1    0    0  501    0  0.00000000000E+00 -0.00000000000E+00 -0.65293954922E+03  0.65293954922E+03  0.00000000000E+00 0. -1.
         25    2    1    2    0    0  0.10306380331E+03  0.73291008971E+02 -0.89686143278E+01  0.17810520278E+03  0.12508919883E+03 0.  0.
         23    2    1    2    0    0 -0.10306380331E+03 -0.73291008971E+02 -0.54847114217E+03  0.57033413915E+03  0.92014764777E+02 0.  0.
          5    1    3    3  502    0 -0.88704321658E+01 -0.75457892122E+01 -0.35368110653E+02  0.37469976685E+02  0.41800000000E+01 0.  1.
         -5    1    3    3    0  502  0.11193423547E+03  0.80836798183E+02  0.26399496325E+02  0.14063522609E+03  0.41800000000E+01 0.  1.
        -11    1    4    4    0    0 -0.67310930471E+02 -0.81811268189E+02 -0.48960571643E+03  0.50093672507E+03  0.00000000000E+00 0. -1.
         11    1    4    4    0    0 -0.35752872837E+02  0.85202592173E+01 -0.58865425743E+02  0.69397414081E+02  0.00000000000E+00 0.  1.
</event>
<event>
 8    1  0.7136454E-009  0.7365119E+02  0.7561462E-02  0.1348099E+00
         -2   -1    0    0    0  501 -0.00000000000E+00  0.00000000000E+00  0.45857208945E+02  0.45857208945E+02  0.00000000000E+00 0.  1.
          2   -1    0    0  501    0  0.00000000000E+00 -0.00000000000E+00 -0.26692728126E+03  0.26692728126E+03  0.00000000000E+00 0. -1.
         25    2    1    2    0    0 -0.94608372566E+01 -0.15235438329E+02 -0.14717371867E+03  0.19396393440E+03  0.12506109851E+03 0.  0.
         23    2    1    2    0    0  0.94608372566E+01  0.15235438329E+02 -0.73896353649E+02  0.11882055581E+03  0.91301847608E+02 0.  0.
          5    1    3    3  502    0 -0.73228379731E+01  0.19120168482E+02  0.16519915915E+02  0.26638033348E+02  0.41800000000E+01 0.  1.
         -5    1    3    3    0  502 -0.21379992835E+01 -0.34355606812E+02 -0.16369363459E+03  0.16732590106E+03  0.41800000000E+01 0.  1.
        -11    1    4    4    0    0  0.32140272517E+02 -0.28182397956E+02 -0.24572267791E+02  0.49305588085E+02  0.00000000000E+00 0.  1.
         11    1    4    4    0    0 -0.22679435261E+02  0.43417836285E+02 -0.49324085858E+02  0.69514967720E+02  0.00000000000E+00 0. -1.
</event>
<event>
 8    1  0.7136454E-009  0.8539296E+02  0.7561462E-02  0.1314408E+00
         -3   -1    0    0    0  501 -0.00000000000E+00  0.00000000000E+00  0.21139888931E+03  0.21139888931E+03  0.00000000000E+00 0.  1.
          3   -1    0    0  501    0  0.00000000000E+00 -0.00000000000E+00 -0.82623959764E+02  0.82623959764E+02  0.00000000000E+00 0. -1.
         25    2    1    2    0    0 -0.41832534666E+02 -0.18786385714E+02  0.50878200386E+01  0.13332310185E+03  0.12508506837E+03 0.  0.
         23    2    1    2    0    0  0.41832534666E+02  0.18786385714E+02  0.12368710951E+03  0.16069974723E+03  0.91777003954E+02 0.  0.
          5    1    3    3  502    0 -0.46976032398E+02 -0.58534496536E+02 -0.28972496098E+02  0.80559995250E+02  0.41800000000E+01 0.  1.
         -5    1    3    3    0  502  0.51434977319E+01  0.39748110822E+02  0.34060316137E+02  0.52763106601E+02  0.41800000000E+01 0.  1.
        -11    1    4    4    0    0  0.24541314258E+02 -0.58418469010E+01 -0.73307095168E+01  0.26270564949E+02  0.00000000000E+00 0. -1.
         11    1    4    4    0    0  0.17291220408E+02  0.24628232615E+02  0.13101781903E+03  0.13442918228E+03  0.00000000000E+00 0.  1.
</event>
<event>
 8    1  0.7136454E-009  0.5998205E+02  0.7561462E-02  0.1397907E+00
         -2   -1    0    0    0  501 -0.00000000000E+00  0.00000000000E+00  0.23041390564E+02  0.23041390564E+02  0.00000000000E+00 0.  1.
          2   -1    0    0  501    0  0.00000000000E+00 -0.00000000000E+00 -0.77974729064E+03  0.77974729064E+03  0.00000000000E+00 0. -1.
         25    2    1    2    0    0  0.20663781151E+02 -0.53261830214E+02 -0.58136846049E+03  0.59741126339E+03  0.12508843419E+03 0.  0.
         23    2    1    2    0    0 -0.20663781151E+02  0.53261830214E+02 -0.17533743958E+03  0.20537741781E+03  0.90403825230E+02 0.  0.
          5    1    3    3  502    0  0.12028600213E+02 -0.14903145741E+02 -0.53937895481E+03  0.53973504635E+03  0.41800000000E+01 0. -1.
         -5    1    3    3    0  502  0.86351809383E+01 -0.38358684474E+02 -0.41989505683E+02  0.57676217039E+02  0.41800000000E+01 0. -1.
        -11    1    4    4    0    0  0.17006332359E+01  0.23659364219E+02  0.23699179267E+01  0.23838502042E+02  0.00000000000E+00 0.  1.
         11    1    4    4    0    0 -0.22364414387E+02  0.29602465996E+02 -0.17770735751E+03  0.18153891577E+03  0.00000000000E+00 0. -1.
</event>
<event>
 8    1  0.7136454E-009  0.1961652E+03  0.7561462E-02  0.1153015E+00
         -2   -1    0    0    0  501 -0.00000000000E+00  0.00000000000E+00  0.84600326841E+02  0.84600326841E+02  0.00000000000E+00 0.  1.
          2   -1    0    0  501    0  0.00000000000E+00 -0.00000000000E+00 -0.55838379854E+03  0.55838379854E+03  0.00000000000E+00 0. -1.
         25    2    1    2    0    0 -0.16676760949E+03  0.80724938082E+02 -0.29501017954E+03  0.37013760811E+03  0.12507154633E+03 0.  0.
         23    2    1    2    0    0  0.16676760949E+03 -0.80724938082E+02 -0.17877329215E+03  0.27284651726E+03  0.90318219599E+02 0.  0.
          5    1    3    3  502    0 -0.63447911387E+02 -0.11890602370E+02 -0.30725743976E+02  0.71614018369E+02  0.41800000000E+01 0. -1.
         -5    1    3    3    0  502 -0.10331969811E+03  0.92615540452E+02 -0.26428443557E+03  0.29852358974E+03  0.41800000000E+01 0. -1.
        -11    1    4    4    0    0  0.87961001937E+02 -0.22355880519E+02 -0.14114702801E+03  0.16780764813E+03  0.00000000000E+00 0. -1.
         11    1    4    4    0    0  0.78806607557E+02 -0.58369057563E+02 -0.37626264143E+02  0.10503886913E+03  0.00000000000E+00 0.  1.
</event>
<event>
 8    1  0.7136454E-009  0.1146655E+03  0.7561462E-02  0.1252166E+00
          1   -1    0    0  501    0  0.00000000000E+00  0.00000000000E+00  0.13202316229E+03  0.13202316229E+03  0.00000000000E+00 0. -1.
         -1   -1    0    0    0  501 -0.00000000000E+00 -0.00000000000E+00 -0.13987765030E+03  0.13987765030E+03  0.00000000000E+00 0.  1.
         25    2    1    2    0    0  0.32623851397E+01 -0.77398020642E+02  0.13780099724E+02  0.14777568151E+03  0.12508662654E+03 0.  0.
         23    2    1    2    0    0 -0.32623851397E+01  0.77398020642E+02 -0.21634587735E+02  0.12412513109E+03  0.94540446505E+02 0.  0.
          5    1    3    3  502    0  0.56251610191E+02 -0.35673170063E+02  0.37015687787E+02  0.76318099123E+02  0.41800000000E+01 0.  1.
         -5    1    3    3    0  502 -0.52989225051E+02 -0.41724850578E+02 -0.23235588063E+02  0.71457582382E+02  0.41800000000E+01 0.  1.
        -11    1    4    4    0    0  0.15598878886E+02  0.74278417241E+02  0.19846554039E+02  0.78450583156E+02  0.00000000000E+00 0. -1.
         11    1    4    4    0    0 -0.18861264025E+02  0.31196034009E+01 -0.41481141774E+02  0.45674547933E+02  0.00000000000E+00 0.  1.
</event>
<event>
 8    1  0.7136454E-009  0.1712691E+03  0.7561462E-02  0.1176531E+00
         -1   -1    0    0    0  501 -0.00000000000E+00  0.00000000000E+00  0.72762980762E+02  0.72762980762E+02  0.00000000000E+00 0.  1.
          1   -1    0    0  501    0  0.00000000000E+00 -0.00000000000E+00 -0.47926265028E+03  0.47926265028E+03  0.00000000000E+00 0. -1.
         25    2    1    2    0    0  0.11779192677E+03 -0.91176908378E+02 -0.17970471539E+03  0.26482514197E+03  0.12510157654E+03 0.  0.
         23    2    1    2    0    0 -0.11779192677E+03  0.91176908378E+02 -0.22679495413E+03  0.28720048908E+03  0.94127589325E+02 0.  0.
          5    1    3    3  502    0 -0.23042372275E+02 -0.31082810416E+02 -0.20856380689E+02  0.44153743203E+02  0.41800000000E+01 0.  1.
         -5    1    3    3    0  502  0.14083429904E+03 -0.60094097962E+02 -0.15884833470E+03  0.22067139877E+03  0.41800000000E+01 0.  1.
        -11    1    4    4    0    0 -0.62439706669E+02  0.61487697554E+02 -0.53023316949E+02  0.10242522180E+03  0.00000000000E+00 0.  1.
         11    1    4    4    0    0 -0.55352220099E+02  0.29689210824E+02 -0.17377163718E+03  0.18477526728E+03  0.00000000000E+00 0. -1.
</event>
<event>
 8    1  0.7136454E-009  0.7891332E+02  0.7561462E-02  0.1332164E+00
          1   -1    0    0  501    0  0.00000000000E+00  0.00000000000E+00  0.19223945578E+03  0.19223945578E+03  0.00000000000E+00 0. -1.
         -1   -1    0    0    0  501 -0.00000000000E+00 -0.00000000000E+00 -0.84840324350E+02  0.84840324350E+02  0.00000000000E+00 0.  1.
         25    2    1    2    0    0 -0.13131729383E+02  0.63693316112E+02  0.84744260392E+02  0.16449503814E+03  0.12509095518E+03 0.  0.
         23    2    1    2    0    0  0.13131729383E+02 -0.63693316112E+02  0.22654871038E+02  0.11258474199E+03  0.89066268106E+02 0.  0.
          5    1    3    3  502    0  0.21546967523E+02  0.18481359719E+02  0.10107891108E+03  0.10507259934E+03  0.41800000000E+01 0.  1.
         -5    1    3    3    0  502 -0.34678696906E+02  0.45211956393E+02 -0.16334650685E+02  0.59422438801E+02  0.41800000000E+01 0.  1.
        -11    1    4    4    0    0  0.23333060604E+02 -0.42690150423E+02 -0.28478170917E+02  0.56372749437E+02  0.00000000000E+00 0.  1.
         11    1    4    4    0    0 -0.10201331221E+02 -0.21003165688E+02  0.51133041956E+02  0.56211992557E+02  0.00000000000E+00 0. -1.
</event>
<event>
 8    1  0.7136454E-009  0.9200880E+02  0.7561462E-02  0.1298059E+00
         -4   -1    0    0    0  501 -0.00000000000E+00  0.00000000000E+00  0.13063060500E+03  0.13063060500E+03  0.00000000000E+00 0.  1.
          4   -1    0    0  501    0  0.00000000000E+00 -0.00000000000E+00 -0.14098165196E+03  0.14098165196E+03  0.00000000000E+00 0. -1.
         25    2    1    2    0    0  0.68249984549E+02  0.23224929545E+02  0.33393243862E+02  0.14818885711E+03  0.12508945156E+03 0.  0.
         23    2    1    2    0    0 -0.68249984549E+02 -0.23224929545E+02 -0.43744290824E+02  0.12342339985E+03  0.90123886444E+02 0.  0.
          5    1    3    3  502    0  0.53024047470E+02  0.43700803377E+02 -0.33437873281E+02  0.76530213612E+02  0.41800000000E+01 0.  1.
         -5    1    3    3    0  502  0.15225937079E+02 -0.20475873832E+02  0.66831117143E+02  0.71658643496E+02  0.41800000000E+01 0.  1.
        -11    1    4    4    0    0 -0.28329585358E+02  0.16681514880E+02 -0.56670374711E+02  0.65516179034E+02  0.00000000000E+00 0. -1.
         11    1    4    4    0    0 -0.39920399191E+02 -0.39906444425E+02  0.12926083887E+02  0.57907220818E+02  0.00000000000E+00 0.  1.
</event>
<event>
 8    1  0.7136454E-009  0.1031912E+03  0.7561462E-02  0.1273725E+00
          1   -1    0    0  501    0  0.00000000000E+00  0.00000000000E+00  0.16490486193E+03  0.16490486193E+03  0.00000000000E+00 0. -1.
         -1   -1    0    0    0  501 -0.00000000000E+00 -0.00000000000E+00 -0.12666568008E+03  0.12666568008E+03  0.00000000000E+00 0.  1.
         25    2    1    2    0    0  0.80120412868E+02  0.25748896367E+02 -0.24971976354E+02  0.15281902752E+03  0.12509104423E+03 0.  0.
         23    2    1    2    0    0 -0.80120412868E+02 -0.25748896367E+02  0.63211158213E+02  0.13875151449E+03  0.90410430968E+02 0.  0.
          5    1    3    3  502    0  0.78626325912E+01  0.46095038811E+02  0.33416288325E+02  0.57625465896E+02  0.41800000000E+01 0. -1.
         -5    1    3    3    0  502  0.72257780276E+02 -0.20346142444E+02 -0.58388264680E+02  0.95193561626E+02  0.41800000000E+01 0. -1.
        -11    1    4    4    0    0 -0.57156874657E+02 -0.16456319807E+02 -0.11024348747E+02  0.60491776692E+02  0.00000000000E+00 0.  1.
         11    1    4    4    0    0 -0.22963538211E+02 -0.92925765606E+01  0.74235506960E+02  0.78259737796E+02  0.00000000000E+00 0. -1.
</event>
<event>
 8    1  0.7136454E-009  0.8862527E+02  0.7561462E-02  0.1306215E+00
         -1   -1    0    0    0  501 -0.00000000000E+00  0.00000000000E+00  0.23148375154E+02  0.23148375154E+02  0.00000000000E+00 0.  1.
          1   -1    0    0  501    0  0.00000000000E+00 -0.00000000000E+00 -0.81531045283E+03  0.81531045283E+03  0.00000000000E+00 0. -1.
         25    2    1    2    0    0  0.49899111399E+02  0.48853374938E+02 -0.32474157766E+03  0.35493842877E+03  0.12509045687E+03 0.  0.
         23    2    1    2    0    0 -0.49899111399E+02 -0.48853374938E+02 -0.46742050002E+03  0.48352039921E+03  0.10214440295E+03 0.  0.
          5    1    3    3  502    0  0.29039269018E+02  0.24344324874E+01 -0.29372025329E+03  0.29519191249E+03  0.41800000000E+01 0.  1.
         -5    1    3    3    0  502  0.20859842381E+02  0.46418942451E+02 -0.31021324367E+02  0.59746516282E+02  0.41800000000E+01 0.  1.
        -11    1    4    4    0    0  0.16772281771E+02 -0.83085306756E+01 -0.13844409794E+02  0.23281082456E+02  0.00000000000E+00 0.  1.
         11    1    4    4    0    0 -0.66671393170E+02 -0.40544844262E+02 -0.45357609022E+03  0.46023931675E+03  0.00000000000E+00 0. -1.
</event>
<event>
 8    1  0.7136454E-009  0.1349383E+03  0.7561462E-02  0.1220307E+00
          1   -1    0    0  501    0  0.00000000000E+00  0.00000000000E+00  0.99615883590E+03  0.99615883590E+03  0.00000000000E+00 0. -1.
         -1   -1    0    0    0  501 -0.00000000000E+00 -0.00000000000E+00 -0.23144528598E+02  0.23144528598E+02  0.00000000000E+00 0.  1.
         25    2    1    2    0    0  0.14890309722E+02 -0.95864481763E+02  0.66544208575E+03  0.68401262641E+03  0.12509349867E+03 0.  0.
         23    2    1    2    0    0 -0.14890309722E+02  0.95864481763E+02  0.30757222155E+03  0.33529073809E+03  0.91692351870E+02 0.  0.
          5    1    3    3  502    0  0.58128276222E+01  0.30541596165E+02  0.12110048658E+03  0.12509747524E+03  0.41800000000E+01 0. -1.
         -5    1    3    3    0  502  0.90774820996E+01 -0.12640607793E+03  0.54434159917E+03  0.55891515117E+03  0.41800000000E+01 0. -1.
        -11    1    4    4    0    0  0.17265021096E+02  0.98480187156E+01  0.71114792537E+01  0.21110129399E+02  0.00000000000E+00 0.  1.
         11    1    4    4    0    0 -0.32155330818E+02  0.86016463047E+02  0.30046074230E+03  0.31418060869E+03  0.00000000000E+00 0. -1.
</event>
<event>
 8    1  0.7136454E-009  0.1802848E+03  0.7561462E-02  0.1167528E+00
          1   -1    0    0  501    0  0.00000000000E+00  0.00000000000E+00  0.45043792893E+03  0.45043792893E+03  0.00000000000E+00 0. -1.
         -1   -1    0    0    0  501 -0.00000000000E+00 -0.00000000000E+00 -0.83446124936E+02  0.83446124936E+02  0.00000000000E+00 0.  1.
         25    2    1    2    0    0 -0.15883673774E+03 -0.70076291816E+01  0.16254654774E+03  0.25951448937E+03  0.12509266121E+03 0.  0.
         23    2    1    2    0    0  0.15883673774E+03  0.70076291816E+01  0.20444525625E+03  0.27436956449E+03  0.90568090371E+02 0.  0.
          5    1    3    3  502    0 -0.86628756352E+02  0.51351458152E+02  0.46947663168E+02  0.11118933923E+03  0.41800000000E+01 0.  1.
         -5    1    3    3    0  502 -0.72207981388E+02 -0.58359087334E+02  0.11559888457E+03  0.14832515014E+03  0.41800000000E+01 0.  1.
        -11    1    4    4    0    0  0.13837475905E+03 -0.12024524155E+02  0.11394842934E+03  0.17965635996E+03  0.00000000000E+00 0.  1.
         11    1    4    4    0    0  0.20461978689E+02  0.19032153337E+02  0.90496826913E+02  0.94713204538E+02  0.00000000000E+00 0. -1.
</event>
<event>
 8    1  0.7136454E-009  0.1221524E+03  0.7561462E-02  0.1239588E+00
          1   -1    0    0  501    0  0.00000000000E+00  0.00000000000E+00  0.83145816445E+03  0.83145816445E+03  0.00000000000E+00 0. -1.
         -1   -1    0    0    0  501 -0.00000000000E+00 -0.00000000000E+00 -0.21125126646E+02  0.21125126646E+02  0.00000000000E+00 0.  1.
         25    2    1    2    0    0 -0.34282856594E-01 -0.66807882921E+02  0.54534394412E+03  0.56348073180E+03  0.12508886172E+03 0.  0.
         23    2    1    2    0    0  0.34282856594E-01  0.66807882921E+02  0.26498909368E+03  0.28910255930E+03  0.94328021414E+02 0.  0.
          5    1    3    3  502    0 -0.39137246139E+02  0.11570323948E+02  0.30289624139E+03  0.30566190780E+03  0.41800000000E+01 0. -1.
         -5    1    3    3    0  502  0.39102963283E+02 -0.78378206870E+02  0.24244770273E+03  0.25781882400E+03  0.41800000000E+01 0. -1.
        -11    1    4    4    0    0 -0.15642000079E+02 -0.21116000754E+02  0.59695751578E+02  0.65223771823E+02  0.00000000000E+00 0. -1.
         11    1    4    4    0    0  0.15676282936E+02  0.87923883675E+02  0.20529334211E+03  0.22387878747E+03  0.00000000000E+00 0.  1.
</event>
<event>
 8    1  0.7136454E-009  0.9999453E+02  0.7561462E-02  0.1280307E+00
         -1   -1    0    0    0  501 -0.00000000000E+00  0.00000000000E+00  0.62644128662E+02  0.62644128662E+02  0.00000000000E+00 0.  1.
          1   -1    0    0  501    0  0.00000000000E+00 -0.00000000000E+00 -0.21126232932E+03  0.21126232932E+03  0.00000000000E+00 0. -1.
         25    2    1    2    0    0  0.46061597937E+01  0.32736789276E+02 -0.66373093584E+02  0.14541708120E+03  0.12509127017E+03 0.  0.
         23    2    1    2    0    0 -0.46061597937E+01 -0.32736789276E+02 -0.82245107077E+02  0.12848937678E+03  0.93017999480E+02 0.  0.
          5    1    3    3  502    0  0.51811137367E+02  0.14953997490E+02 -0.76606597895E+02  0.93776645479E+02  0.41800000000E+01 0.  1.
         -5    1    3    3    0  502 -0.47204977573E+02  0.17782791786E+02  0.10233504312E+02  0.51640435725E+02  0.41800000000E+01 0.  1.
        -11    1    4    4    0    0 -0.46755990769E+02 -0.22609088746E+02 -0.27843064754E+02  0.58928175108E+02  0.00000000000E+00 0.  1.
         11    1    4    4    0    0  0.42149830975E+02 -0.10127700530E+02 -0.54402042323E+02  0.69561201673E+02  0.00000000000E+00 0. -1.
</event>
<event>
 8    1  0.7136454E-009  0.1160691E+03  0.7561462E-02  0.1249726E+00
         -2   -1    0    0    0  501 -0.00000000000E+00  0.00000000000E+00  0.24245637946E+02  0.24245637946E+02  0.00000000000E+00 0. -1.
          2   -1    0    0  501    0  0.00000000000E+00 -0.00000000000E+00 -0.57686018431E+03  0.57686018431E+03  0.00000000000E+00 0.  1.
         25    2    1    2    0    0  0.40379423117E+02 -0.23625584569E+02 -0.28122896562E+03  0.31132893510E+03  0.12508920284E+03 0.  0.
         23    2    1    2    0    0 -0.40379423117E+02  0.23625584569E+02 -0.27138558074E+03  0.28977688716E+03  0.90176742227E+02 0.  0.
          5    1    3    3  502    0  0.10849792725E+02  0.50985754827E+02 -0.12896602720E+03  0.13916527501E+03  0.41800000000E+01 0.  1.
         -5    1    3    3    0  502  0.29529630392E+02 -0.74611339397E+02 -0.15226293842E+03  0.17216366009E+03  0.41800000000E+01 0.  1.
        -11    1    4    4    0    0  0.21164094097E+02  0.30971313090E+02 -0.13211436425E+03  0.13733661695E+03  0.00000000000E+00 0.  1.
         11    1    4    4    0    0 -0.61543517214E+02 -0.73457285211E+01 -0.13927121649E+03  0.15244027021E+03  0.00000000000E+00 0. -1.
</event>
<event>
 7    1  0.7136454E-009  0.1147256E+03  0.7561462E-02  0.1252061E+00
          2   -1    0    0  501    0  0.00000000000E+00  0.00000000000E+00  0.34365808955E+03  0.34365808955E+03  0.00000000000E+00 0. -1.
         -2   -1    0    0    0  501 -0.00000000000E+00 -0.00000000000E+00 -0.60233254845E+02  0.60233254845E+02  0.00000000000E+00 0.  1.
         23    2    1    2    0    0 -0.76542164238E+02  0.51703610262E+02  0.10375260112E+03  0.16633411848E+03  0.91490275503E+02 0.  0.
          5    1    1    2  502    0  0.12094641861E+01  0.27235752179E+02  0.32557891868E+00  0.27583099935E+02  0.41800000000E+01 0. -1.
         -5    1    1    2    0  502  0.75332700052E+02 -0.78939362441E+02  0.17934665467E+03  0.20997412598E+03  0.41800000000E+01 0. -1.
        -11    1    3    3    0    0 -0.31304564757E+02  0.16742159581E+02 -0.11800816576E+02  0.37410358912E+02  0.00000000000E+00 0.  1.
         11    1    3    3    0    0 -0.45237599481E+02  0.34961450681E+02  0.11555341769E+03  0.12892375957E+03  0.00000000000E+00 0. -1.
</event>
<event>
 8    1  0.7136454E-009  0.9531873E+02  0.7561462E-02  0.1290460E+00
          1   -1    0    0  501    0  0.00000000000E+00  0.00000000000E+00  0.38804645463E+03  0.38804645463E+03  0.00000000000E+00 0. -1.
         -1   -1    0    0    0  501 -0.00000000000E+00 -0.00000000000E+00 -0.29750622584E+02  0.29750622584E+02  0.00000000000E+00 0.  1.
         25    2    1    2    0    0 -0.95008585947E+01 -0.12375666193E+01  0.19572457268E+03  0.23249113379E+03  0.12510883684E+03 0.  0.
         23    2    1    2    0    0  0.95008585947E+01  0.12375666193E+01  0.16257125936E+03  0.18530594342E+03  0.88414254574E+02 0.  0.
          5    1    3    3  502    0 -0.60935051033E+02  0.53280107009E+01  0.15416328941E+03  0.16590738484E+03  0.41800000000E+01 0.  1.
         -5    1    3    3    0  502  0.51434192438E+02 -0.65655773202E+01  0.41561283277E+02  0.66583748956E+02  0.41800000000E+01 0.  1.
        -11    1    4    4    0    0  0.14982653328E+01 -0.37612219136E+02  0.12546485746E+03  0.13098990146E+03  0.00000000000E+00 0. -1.
         11    1    4    4    0    0  0.80025932620E+01  0.38849785755E+02  0.37106401898E+02  0.54316041958E+02  0.00000000000E+00 0.  1.
</event>
<event>
 8    1  0.7136454E-009  0.8704329E+02  0.7561462E-02  0.1310174E+00
          2   -1    0    0  501    0  0.00000000000E+00  0.00000000000E+00  0.32035197327E+03  0.32035197327E+03  0.00000000000E+00 0. -1.
         -2   -1    0    0    0  501 -0.00000000000E+00 -0.00000000000E+00 -0.91703769316E+02  0.91703769316E+02  0.00000000000E+00 0.  1.
         25    2    1    2    0    0  0.18568700383E+02 -0.49062810439E+02  0.26682044413E+03  0.29932153345E+03  0.12509306525E+03 0.  0.
         23    2    1    2    0    0 -0.18568700383E+02  0.49062810439E+02 -0.38172240182E+02  0.11273420914E+03  0.92195043181E+02 0.  0.
          5    1    3    3  502    0  0.39089963719E+02 -0.47054234025E+02  0.43901057660E+02  0.75411547305E+02  0.41800000000E+01 0.  1.
         -5    1    3    3    0  502 -0.20521263337E+02 -0.20085764143E+01  0.22291938647E+03  0.22390998614E+03  0.41800000000E+01 0.  1.
        -11    1    4    4    0    0 -0.32339231178E+02 -0.77661643421E+01  0.12330123336E+02  0.35470707961E+02  0.00000000000E+00 0. -1.
         11    1    4    4    0    0  0.13770530795E+02  0.56828974781E+02 -0.50502363519E+02  0.77263501176E+02  0.00000000000E+00 0.  1.
</event>
<event>
 8    1  0.7136454E-009  0.1334617E+03  0.7561462E-02  0.1222408E+00
         -2   -1    0    0    0  501 -0.00000000000E+00  0.00000000000E+00  0.20760087695E+03  0.20760087695E+03  0.00000000000E+00 0. -1.
          2   -1    0    0  501    0  0.00000000000E+00 -0.00000000000E+00 -0.13698224063E+03  0.13698224063E+03  0.00000000000E+00 0.  1.
         25    2    1    2    0    0  0.11100166221E+03 -0.49505241952E+02 -0.75066323116E+01  0.17457487977E+03  0.12509157096E+03 0.  0.
         23    2    1    2    0    0 -0.11100166221E+03  0.49505241952E+02  0.78125268624E+02  0.17000823781E+03  0.89594114385E+02 0.  0.
          5    1    3    3  502    0  0.71503556275E+02  0.85703312576E+01  0.46546408506E+02  0.85850158314E+02  0.41800000000E+01 0. -1.
         -5    1    3    3    0  502  0.39498105933E+02 -0.58075573210E+02 -0.54053040817E+02  0.88724721456E+02  0.41800000000E+01 0. -1.
        -11    1    4    4    0    0 -0.70914614544E+02  0.17267883373E+02  0.91318210102E+02  0.11690200104E+03  0.00000000000E+00 0.  1.
         11    1    4    4    0    0 -0.40087047664E+02  0.32237358579E+02 -0.13192941478E+02  0.53106236766E+02  0.00000000000E+00 0. -1.
</event>
<event>
 8    1  0.7136454E-009  0.1919069E+03  0.7561462E-02  0.1156753E+00
          2   -1    0    0  501    0  0.00000000000E+00  0.00000000000E+00  0.47525584626E+02  0.47525584626E+02  0.00000000000E+00 0. -1.
         -2   -1    0    0    0  501 -0.00000000000E+00 -0.00000000000E+00 -0.92968056229E+03  0.92968056229E+03  0.00000000000E+00 0.  1.
         25    2    1    2    0    0  0.12905487615E+03  0.11712020793E+03 -0.55375727023E+03  0.59384851793E+03  0.12504656632E+03 0.  0.
         23    2    1    2    0    0 -0.12905487615E+03 -0.11712020793E+03 -0.32839770743E+03  0.38335762898E+03  0.93518518441E+02 0.  0.
          5    1    3    3  502    0  0.11272284003E+03  0.24575147304E+02 -0.36714356755E+03  0.38486653287E+03  0.41800000000E+01 0. -1.
         -5    1    3    3    0  502  0.16332036122E+02  0.92545060631E+02 -0.18661370268E+03  0.20898198506E+03  0.41800000000E+01 0. -1.
        -11    1    4    4    0    0 -0.73510900556E+02 -0.68598786897E+02 -0.27355787793E+03  0.29145078254E+03  0.00000000000E+00 0.  1.
         11    1    4    4    0    0 -0.55543975593E+02 -0.48521421038E+02 -0.54839829498E+02  0.91906846446E+02  0.00000000000E+00 0. -1.
</event>
<event>
 8    1  0.7136454E-009  0.8964513E+02  0.7561462E-02  0.1303713E+00
         -1   -1    0    0    0  501 -0.00000000000E+00  0.00000000000E+00  0.57110008556E+03  0.57110008556E+03  0.00000000000E+00 0.  1.
          1   -1    0    0  501    0  0.00000000000E+00 -0.00000000000E+00 -0.18991817339E+02  0.18991817339E+02  0.00000000000E+00 0. -1.
         25    2    1    2    0    0 -0.15584164012E+02  0.17184356183E+02  0.29236474297E+03  0.31884617467E+03  0.12509025504E+03 0.  0.
         23    2    1    2    0    0  0.15584164012E+02 -0.17184356183E+02  0.25974352525E+03  0.27124572823E+03  0.74628264792E+02 0.  0.
          5    1    3    3  502    0  0.19916323494E+02  0.49585757682E+02  0.24656588453E+03  0.25232442435E+03  0.41800000000E+01 0. -1.
         -5    1    3    3    0  502 -0.35500487506E+02 -0.32401401499E+02  0.45798858438E+02  0.66521750326E+02  0.41800000000E+01 0. -1.
        -11    1    4    4    0    0 -0.29583611674E+02 -0.14617946549E+01  0.82212596160E+02  0.87385570265E+02  0.00000000000E+00 0.  1.
         11    1    4    4    0    0  0.45167775686E+02 -0.15722561528E+02  0.17753092909E+03  0.18386015796E+03  0.00000000000E+00 0. -1.
</event>
<event>
 8    1  0.7136454E-009  0.9028891E+02  0.7561462E-02  0.1302154E+00
         -1   -1    0    0    0  501 -0.00000000000E+00  0.00000000000E+00  0.46762481412E+03  0.46762481412E+03  0.00000000000E+00 0.  1.
          1   -1    0    0  501    0  0.00000000000E+00 -0.00000000000E+00 -0.33954324621E+02  0.33954324621E+02  0.00000000000E+00 0. -1.
         25    2    1    2    0    0  0.51943868623E+01 -0.50089800398E+01  0.33867330303E+03  0.36110987585E+03  0.12509462306E+03 0.  0.
         23    2    1    2    0    0 -0.51943868623E+01  0.50089800398E+01  0.94997186471E+02  0.14046926289E+03  0.10322343166E+03 0.  0.
          5    1    3    3  502    0 -0.50697788840E+02  0.10674988310E+02  0.76056282134E+02  0.92120853344E+02  0.41800000000E+01 0.  1.
         -5    1    3    3    0  502  0.55892175702E+02 -0.15683968350E+02  0.26261702089E+03  0.26898902251E+03  0.41800000000E+01 0.  1.
        -11    1    4    4    0    0 -0.12654819561E+02 -0.31074257022E+02 -0.49786487324E+01  0.33919623388E+02  0.00000000000E+00 0. -1.
         11    1    4    4    0    0  0.74604326986E+01  0.36083237062E+02  0.99975835204E+02  0.10654963950E+03  0.00000000000E+00 0.  1.
</event>
<event>
 8    1  0.7136454E-009  0.8784532E+02  0.7561462E-02  0.1308155E+00
          3   -1    0    0  501    0  0.00000000000E+00  0.00000000000E+00  0.44129697409E+02  0.44129697409E+02  0.00000000000E+00 0. -1.
         -3   -1    0    0    0  501 -0.00000000000E+00 -0.00000000000E+00 -0.32165268392E+03  0.32165268392E+03  0.00000000000E+00 0.  1.
         25    2    1    2    0    0  0.24423220347E+02  0.85485147825E+01 -0.22740829149E+03  0.26082557637E+03  0.12508348993E+03 0.  0.
         23    2    1    2    0    0 -0.24423220347E+02 -0.85485147825E+01 -0.50114695017E+02  0.10495680496E+03  0.88514843120E+02 0.  0.
          5    1    3    3  502    0  0.18537486580E+02 -0.41341716547E+02 -0.19649019750E+03  0.20168947928E+03  0.41800000000E+01 0. -1.
         -5    1    3    3    0  502  0.58857337666E+01  0.49890231329E+02 -0.30918093992E+02  0.59136097099E+02  0.41800000000E+01 0. -1.
        -11    1    4    4    0    0 -0.12966640202E+02  0.33646281430E+02  0.29746341478E+01  0.36180857653E+02  0.00000000000E+00 0. -1.
         11    1    4    4    0    0 -0.11456580144E+02 -0.42194796213E+02 -0.53089329165E+02  0.68775947302E+02  0.00000000000E+00 0.  1.
</event>
<event>
 8    1  0.7136454E-009  0.1101411E+03  0.7561462E-02  0.1260309E+00
         -2   -1    0    0    0  501 -0.00000000000E+00  0.00000000000E+00  0.46927954363E+03  0.46927954363E+03  0.00000000000E+00 0.  1.
          2   -1    0    0  501    0  0.00000000000E+00 -0.00000000000E+00 -0.42232920178E+02  0.42232920178E+02  0.00000000000E+00 0. -1.
         25    2    1    2    0    0 -0.13765706864E+02 -0.75510443554E+02  0.14548831576E+03  0.20665235758E+03  0.12508806936E+03 0.  0.
         23    2    1    2    0    0  0.13765706864E+02  0.75510443554E+02  0.28155830768E+03  0.30486010623E+03  0.88166217862E+02 0.  0.
          5    1    3    3  502    0 -0.27539674423E+02 -0.83883361156E+02  0.35239916370E+02  0.95153434262E+02  0.41800000000E+01 0. -1.
         -5    1    3    3    0  502  0.13773967559E+02  0.83729176016E+01  0.11024839939E+03  0.11149892331E+03  0.41800000000E+01 0. -1.
        -11    1    4    4    0    0  0.50276354083E+02  0.39224202378E+02  0.18077585950E+03  0.19169288252E+03  0.00000000000E+00 0.  1.
         11    1    4    4    0    0 -0.36510647219E+02  0.36286241176E+02  0.10078244818E+03  0.11316722371E+03  0.00000000000E+00 0. -1.
</event>
<event>
 8    1  0.7136454E-009  0.8399339E+02  0.7561462E-02  0.1318086E+00
         -1   -1    0    0    0  501 -0.00000000000E+00  0.00000000000E+00  0.14939045633E+02  0.14939045633E+02  0.00000000000E+00 0.  1.
          1   -1    0    0  501    0  0.00000000000E+00 -0.00000000000E+00 -0.10422372284E+04  0.10422372284E+04  0.00000000000E+00 0. -1.
         25    2    1    2    0    0 -0.48945777065E+02 -0.36978460259E+02 -0.53211748010E+03  0.55005391244E+03  0.12508876186E+03 0.  0.
         23    2    1    2    0    0  0.48945777065E+02  0.36978460259E+02 -0.49518070269E+03  0.50712236162E+03  0.90587337536E+02 0.  0.
          5    1    3    3  502    0 -0.13684480713E+02 -0.87606097222E+01 -0.79207533981E+00  0.16796222148E+02  0.41800000000E+01 0.  1.
         -5    1    3    3    0  502 -0.35261296352E+02 -0.28217850537E+02 -0.53132540476E+03  0.53325769029E+03  0.41800000000E+01 0.  1.
        -11    1    4    4    0    0 -0.41515405103E+01  0.50814502981E+02 -0.17505692353E+03  0.18233012773E+03  0.00000000000E+00 0. -1.
         11    1    4    4    0    0  0.53097317575E+02 -0.13836042722E+02 -0.32012377915E+03  0.32479223388E+03  0.00000000000E+00 0.  1.
</event>
<event>
 8    1  0.7136454E-009  0.1678002E+03  0.7561462E-02  0.1180161E+00
         -1   -1    0    0    0  501 -0.00000000000E+00  0.00000000000E+00  0.34017669060E+02  0.34017669060E+02  0.00000000000E+00 0.  1.
          1   -1    0    0  501    0  0.00000000000E+00 -0.00000000000E+00 -0.88088600531E+03  0.88088600531E+03  0.00000000000E+00 0. -1.
         25    2    1    2    0    0  0.14429882594E+02 -0.13513877202E+03 -0.45130365675E+03  0.48765324071E+03  0.12513985522E+03 0.  0.
         23    2    1    2    0    0 -0.14429882594E+02  0.13513877202E+03 -0.39556467950E+03  0.42725043366E+03  0.87182613973E+02 0.  0.
          5    1    3    3  502    0  0.78541144837E+01  0.23532449712E+02 -0.48097591226E+02  0.54279959336E+02  0.41800000000E+01 0. -1.
         -5    1    3    3    0  502  0.65757681106E+01 -0.15867122174E+03 -0.40320606552E+03  0.43337328137E+03  0.41800000000E+01 0. -1.
        -11    1    4    4    0    0 -0.34863789570E+01  0.13968579544E+03 -0.38976981652E+03  0.41405891628E+03  0.00000000000E+00 0. -1.
         11    1    4    4    0    0 -0.10943503637E+02 -0.45470234132E+01 -0.57948629860E+01  0.13191517381E+02  0.00000000000E+00 0.  1.
</event>
<event>
 8    1  0.7136454E-009  0.2237412E+03  0.7561462E-02  0.1131124E+00
         -2   -1    0    0    0  501 -0.00000000000E+00  0.00000000000E+00  0.28241148290E+02  0.28241148290E+02  0.00000000000E+00 0.  1.
          2   -1    0    0  501    0  0.00000000000E+00 -0.00000000000E+00 -0.20520046528E+04  0.20520046528E+04  0.00000000000E+00 0. -1.
         25    2    1    2    0    0 -0.69218379520E+02 -0.20123205477E+03 -0.11600537451E+04  0.11860257528E+04  0.12508745282E+03 0.  0.
         23    2    1    2    0    0  0.69218379520E+02  0.20123205477E+03 -0.86370975939E+03  0.89422004827E+03  0.91375173478E+02 0.  0.
          5    1    3    3  502    0 -0.52916101916E+01 -0.17948681346E+01 -0.32582309726E+03  0.32589781496E+03  0.41800000000E+01 0. -1.
         -5    1    3    3    0  502 -0.63926769329E+02 -0.19943718664E+03 -0.83423064783E+03  0.86012793783E+03  0.41800000000E+01 0. -1.
        -11    1    4    4    0    0  0.80156721462E+02  0.95268908545E+02 -0.49633006893E+03  0.51170773128E+03  0.00000000000E+00 0.  1.
         11    1    4    4    0    0 -0.10938341942E+02  0.10596314623E+03 -0.36737969046E+03  0.38251231699E+03  0.00000000000E+00 0. -1.
</event>
<event>
 8    1  0.7136454E-009  0.9770830E+02  0.7561462E-02  0.1285190E+00
          2   -1    0    0  501    0  0.00000000000E+00  0.00000000000E+00  0.90733347799E+03  0.90733347799E+03  0.00000000000E+00 0. -1.
         -2   -1    0    0    0  501 -0.00000000000E+00 -0.00000000000E+00 -0.18075083163E+02  0.18075083163E+02  0.00000000000E+00 0.  1.
         25    2    1    2    0    0 -0.20144972929E+02  0.48313257166E+02  0.33722403876E+03  0.36346613016E+03  0.12509030619E+03 0.  0.
         23    2    1    2    0    0  0.20144972929E+02 -0.48313257166E+02  0.55203435606E+03  0.56194243099E+03  0.91089926547E+02 0.  0.
          5    1    3    3  502    0  0.21439649074E+02  0.43238259635E+02  0.38741130463E+02  0.62028648528E+02  0.41800000000E+01 0.  1.
         -5    1    3    3    0  502 -0.41584622004E+02  0.50749975314E+01  0.29848290830E+03  0.30143748163E+03  0.41800000000E+01 0.  1.
        -11    1    4    4    0    0 -0.34601663538E+02 -0.47853781388E+01  0.19995188401E+03  0.20298012436E+03  0.00000000000E+00 0. -1.
         11    1    4    4    0    0  0.54746636467E+02 -0.43527879028E+02  0.35208247205E+03  0.35896230663E+03  0.00000000000E+00 0.  1.
</event>
<event>
 8    1  0.7136454E-009  0.1081926E+03  0.7561462E-02  0.1263954E+00
          1   -1    0    0  501    0  0.00000000000E+00  0.00000000000E+00  0.45794408547E+03  0.45794408547E+03  0.00000000000E+00 0. -1.
         -1   -1    0    0    0  501 -0.00000000000E+00 -0.00000000000E+00 -0.39435143027E+02  0.39435143027E+02  0.00000000000E+00 0.  1.
         25    2    1    2    0    0 -0.15301821996E+02  0.15397934667E+02  0.37062449473E+03  0.39176709910E+03  0.12509077384E+03 0.  0.
         23    2    1    2    0    0  0.15301821996E+02 -0.15397934667E+02  0.47884447714E+02  0.10561212939E+03  0.91595629772E+02 0.  0.
          5    1    3    3  502    0 -0.28296084710E+02 -0.50839808704E+02  0.14741529246E+03  0.15853736282E+03  0.41800000000E+01 0.  1.
         -5    1    3    3    0  502  0.12994262714E+02  0.66237743371E+02  0.22320920227E+03  0.23322973629E+03  0.41800000000E+01 0.  1.
        -11    1    4    4    0    0  0.43539032165E+02 -0.35154288526E+02  0.14901514233E+02  0.57909640390E+02  0.00000000000E+00 0.  1.
         11    1    4    4    0    0 -0.28237210168E+02  0.19756353860E+02  0.32982933481E+02  0.47702489001E+02  0.00000000000E+00 0. -1.
</event>
<event>
 8    1  0.7136454E-009  0.7318393E+02  0.7561462E-02  0.1349589E+00
         -2   -1    0    0    0  501 -0.00000000000E+00  0.00000000000E+00  0.27878495938E+02  0.27878495938E+02  0.00000000000E+00 0. -1.
          2   -1    0    0  501    0  0.00000000000E+00 -0.00000000000E+00 -0.62462025971E+03  0.62462025971E+03  0.00000000000E+00 0.  1.
         25    2    1    2    0    0  0.42123328147E-01 -0.60292812599E+02 -0.42994140025E+03  0.45180932954E+03  0.12508731985E+03 0.  0.
         23    2    1    2    0    0 -0.42123328147E-01  0.60292812599E+02 -0.16680036352E+03  0.20068942610E+03  0.93907717753E+02 0.  0.
          5    1    3    3  502    0  0.12844462779E+02 -0.37847991875E+02 -0.27911585353E+02  0.48928311947E+02  0.41800000000E+01 0.  1.
         -5    1    3    3    0  502 -0.12802339451E+02 -0.22444820724E+02 -0.40202981490E+03  0.40288101760E+03  0.41800000000E+01 0.  1.
        -11    1    4    4    0    0  0.15057807508E+02 -0.26400621480E+01  0.58027354370E+01  0.16351734882E+02  0.00000000000E+00 0. -1.
         11    1    4    4    0    0 -0.15099930836E+02  0.62932874747E+02 -0.17260309895E+03  0.18433769122E+03  0.00000000000E+00 0.  1.
</event>
<event>
 8    1  0.7136454E-009  0.1006672E+03  0.7561462E-02  0.1278899E+00
          1   -1    0    0  501    0  0.00000000000E+00  0.00000000000E+00  0.65796180120E+02  0.65796180120E+02  0.00000000000E+00 0. -1.
         -1   -1    0    0    0  501 -0.00000000000E+00 -0.00000000000E+00 -0.44027599639E+03  0.44027599639E+03  0.00000000000E+00 0.  1.
         25    2    1    2    0    0 -0.44665732176E+02 -0.73257685361E+02 -0.34741417672E+03  0.37908531635E+03  0.12508937120E+03 0.  0.
         23    2    1    2    0    0  0.44665732176E+02  0.73257685361E+02 -0.27065639544E+02  0.12698686016E+03  0.89618065780E+02 0.  0.
          5    1    3    3  502    0 -0.45674773657E+02 -0.11295926792E+02 -0.29216103396E+03  0.29595493757E+03  0.41800000000E+01 0. -1.
         -5    1    3    3    0  502  0.10090414813E+01 -0.61961758569E+02 -0.55253142765E+02  0.83130378774E+02  0.41800000000E+01 0. -1.
        -11    1    4    4    0    0 -0.54289430781E+01  0.89962113786E+01  0.27153692969E+02  0.29115773800E+02  0.00000000000E+00 0. -1.
         11    1    4    4    0    0  0.50094675254E+02  0.64261473982E+02 -0.54219332513E+02  0.97871086360E+02  0.00000000000E+00 0.  1.
</event>
<event>
 8    1  0.7136454E-009  0.1132201E+03  0.7561462E-02  0.1254720E+00
          2   -1    0    0  501    0  0.00000000000E+00  0.00000000000E+00  0.20371979949E+03  0.20371979949E+03  0.00000000000E+00 0. -1.
         -2   -1    0    0    0  501 -0.00000000000E+00 -0.00000000000E+00 -0.94538789030E+02  0.94538789030E+02  0.00000000000E+00 0.  1.
         25    2    1    2    0    0  0.68163129759E+02 -0.40442378540E+02  0.95757072422E+02  0.17636709517E+03  0.12511649412E+03 0.  0.
         23    2    1    2    0    0 -0.68163129759E+02  0.40442378540E+02  0.13423938040E+02  0.12189149335E+03  0.91627156441E+02 0.  0.
          5    1    3    3  502    0  0.12110216941E+02 -0.75602003195E+02  0.74066601903E+02  0.10660982206E+03  0.41800000000E+01 0.  1.
         -5    1    3    3    0  502  0.56052912819E+02  0.35159624655E+02  0.21690470518E+02  0.69757273117E+02  0.41800000000E+01 0.  1.
        -11    1    4    4    0    0 -0.19768248392E+02 -0.93287748207E+00 -0.36139762434E+02  0.41203596126E+02  0.00000000000E+00 0.  1.
         11    1    4    4    0    0 -0.48394881367E+02  0.41375256022E+02  0.49563700474E+02  0.80687897222E+02  0.00000000000E+00 0. -1.
</event>
<event>
 8    1  0.7136454E-009  0.9934759E+02  0.7561462E-02  0.1281674E+00
          1   -1    0    0  501    0  0.00000000000E+00  0.00000000000E+00  0.23356165907E+03  0.23356165907E+03  0.00000000000E+00 0. -1.
         -1   -1    0    0    0  501 -0.00000000000E+00 -0.00000000000E+00 -0.80038137440E+02  0.80038137440E+02  0.00000000000E+00 0.  1.
         25    2    1    2    0    0 -0.63323919279E+02  0.46926601885E+02  0.11187904633E+03  0.18540942735E+03  0.12509080712E+03 0.  0.
         23    2    1    2    0    0  0.63323919279E+02 -0.46926601885E+02  0.41644475306E+02  0.12819036916E+03  0.92122113008E+02 0.  0.
          5    1    3    3  502    0  0.24468211284E+01 -0.13234502650E+01 -0.25279312789E+02  0.25773135419E+02  0.41800000000E+01 0. -1.
         -5    1    3    3    0  502 -0.65770740408E+02  0.48250052150E+02  0.13715835912E+03  0.15963629193E+03  0.41800000000E+01 0. -1.
        -11    1    4    4    0    0  0.57170500001E+02  0.71092561676E+01  0.45869869241E+02  0.73641377621E+02  0.00000000000E+00 0. -1.
         11    1    4    4    0    0  0.61534192784E+01 -0.54035858053E+02 -0.42253939356E+01  0.54548991542E+02  0.00000000000E+00 0.  1.
</event>
<event>
 8    1  0.7136454E-009  0.1651237E+03  0.7561462E-02  0.1183031E+00
         -1   -1    0    0    0  501 -0.00000000000E+00  0.00000000000E+00  0.89131541285E+02  0.89131541285E+02  0.00000000000E+00 0.  1.
          1   -1    0    0  501    0  0.00000000000E+00 -0.00000000000E+00 -0.43466876535E+03  0.43466876535E+03  0.00000000000E+00 0. -1.
         25    2    1    2    0    0  0.34935058815E+02  0.15544611841E+03 -0.99385366650E+02  0.22562922316E+03  0.12508853335E+03 0.  0.
         23    2    1    2    0    0 -0.34935058815E+02 -0.15544611841E+03 -0.24615185741E+03  0.29817108347E+03  0.54141518713E+02 0.  0.
          5    1    3    3  502    0  0.93012334062E+01  0.11527877820E+03 -0.12584296101E+03  0.17096675958E+03  0.41800000000E+01 0. -1.
         -5    1    3    3    0  502  0.25633825409E+02  0.40167340217E+02  0.26457594360E+02  0.54662463579E+02  0.41800000000E+01 0. -1.
        -11    1    4    4    0    0  0.12605697466E+02 -0.34564066856E+02 -0.38611276637E+02  0.53333001132E+02  0.00000000000E+00 0. -1.
         11    1    4    4    0    0 -0.47540756281E+02 -0.12088205156E+03 -0.20754058077E+03  0.24483808234E+03  0.00000000000E+00 0.  1.
</event>
<event>
 8    1  0.7136454E-009  0.6597676E+02  0.7561462E-02  0.1374335E+00
         -2   -1    0    0    0  501 -0.00000000000E+00  0.00000000000E+00  0.24376149175E+03  0.24376149175E+03  0.00000000000E+00 0.  1.
          2   -1    0    0  501    0  0.00000000000E+00 -0.00000000000E+00 -0.57987867039E+02  0.57987867039E+02  0.00000000000E+00 0. -1.
         25    2    1    2    0    0  0.21601113229E+02 -0.36934451330E+02  0.13314480683E+03  0.18763181495E+03  0.12508955436E+03 0.  0.
         23    2    1    2    0    0 -0.21601113229E+02  0.36934451330E+02  0.52628817884E+02  0.11411754384E+03  0.91772869365E+02 0.  0.
          5    1    3    3  502    0 -0.21750035302E+02  0.10278834165E+01  0.12768929991E+03  0.12959996254E+03  0.41800000000E+01 0.  1.
         -5    1    3    3    0  502  0.43351148531E+02 -0.37962334747E+02  0.54555069193E+01  0.58031852410E+02  0.41800000000E+01 0.  1.
        -11    1    4    4    0    0  0.73805960025E+01  0.10102081655E+02  0.69899842292E+02  0.71010655564E+02  0.00000000000E+00 0.  1.
         11    1    4    4    0    0 -0.28981709232E+02  0.26832369675E+02 -0.17271024409E+02  0.43106888272E+02  0.00000000000E+00 0. -1.
</event>
<event>
 8    1  0.7136454E-009  0.1361550E+03  0.7561462E-02  0.1218598E+00
         -2   -1    0    0    0  501 -0.00000000000E+00  0.00000000000E+00  0.11642968161E+03  0.11642968161E+03  0.00000000000E+00 0.  1.
          2   -1    0    0  501    0  0.00000000000E+00 -0.00000000000E+00 -0.25892777661E+03  0.25892777661E+03  0.00000000000E+00 0. -1.
         25    2    1    2    0    0  0.28143691603E+01  0.11195400218E+03  0.48827330143E+01  0.16796526608E+03  0.12508745042E+03 0.  0.
         23    2    1    2    0    0 -0.28143691603E+01 -0.11195400218E+03 -0.14738082801E+03  0.20739219214E+03  0.93534986068E+02 0.  0.
          5    1    3    3  502    0 -0.33323649771E+02  0.45486981375E+01 -0.34076261525E+02  0.48060589762E+02  0.41800000000E+01 0.  1.
         -5    1    3    3    0  502  0.36138018931E+02  0.10740530404E+03  0.38958994539E+02  0.11990467632E+03  0.41800000000E+01 0.  1.
        -11    1    4    4    0    0 -0.14378090030E+02 -0.20669920442E+01  0.81129207276E+01  0.16637950948E+02  0.00000000000E+00 0.  1.
         11    1    4    4    0    0  0.11563720869E+02 -0.10988701013E+03 -0.15549374874E+03  0.19075424120E+03  0.00000000000E+00 0. -1.
</event>
<event>
 8    1  0.7136454E-009  0.1208395E+03  0.7561462E-02  0.1241719E+00
         -1   -1    0    0    0  501 -0.00000000000E+00  0.00000000000E+00  0.53547642273E+02  0.53547642273E+02  0.00000000000E+00 0. -1.
          1   -1    0    0  501    0  0.00000000000E+00 -0.00000000000E+00 -0.38812256182E+03  0.38812256182E+03  0.00000000000E+00 0.  1.
         25    2    1    2    0    0  0.28631240734E+02 -0.46192166256E+02 -0.29965459374E+03  0.32923212414E+03  0.12508977517E+03 0.  0.
         23    2    1    2    0    0 -0.28631240734E+02  0.46192166256E+02 -0.34920325807E+02  0.11243807995E+03  0.92029497978E+02 0.  0.
          5    1    3    3  502    0  0.54751142652E+02 -0.76888479406E+02 -0.22996659902E+03  0.24861945811E+03  0.41800000000E+01 0. -1.
         -5    1    3    3    0  502 -0.26119901918E+02  0.30696313149E+02 -0.69687994718E+02  0.80612666033E+02  0.41800000000E+01 0. -1.
        -11    1    4    4    0    0  0.10864691260E+02 -0.23881563571E+02 -0.11608928755E+02  0.28690378554E+02  0.00000000000E+00 0. -1.
         11    1    4    4    0    0 -0.39495931994E+02  0.70073729827E+02 -0.23311397052E+02  0.83747701392E+02  0.00000000000E+00 0.  1.
</event>
<event>
 8    1  0.7136454E-009  0.1096526E+03  0.7561462E-02  0.1261215E+00
         -1   -1    0    0    0  501 -0.00000000000E+00  0.00000000000E+00  0.31655402501E+02  0.31655402501E+02  0.00000000000E+00 0.  1.
          1   -1    0    0  501    0  0.00000000000E+00 -0.00000000000E+00 -0.59343722623E+03  0.59343722623E+03  0.00000000000E+00 0. -1.
         25    2    1    2    0    0 -0.37903159876E+02 -0.49661318652E+02 -0.18139095690E+03  0.22902583940E+03  0.12508900738E+03 0.  0.
         23    2    1    2    0    0  0.37903159876E+02  0.49661318652E+02 -0.38039086682E+03  0.39606678933E+03  0.90932909054E+02 0.  0.
          5    1    3    3  502    0  0.64382273360E-01 -0.74174060024E+02 -0.48809412573E+02  0.88891093375E+02  0.41800000000E+01 0.  1.
         -5    1    3    3    0  502 -0.37967542149E+02  0.24512741372E+02 -0.13258154433E+03  0.14013474602E+03  0.41800000000E+01 0.  1.
        -11    1    4    4    0    0  0.45711811170E+02 -0.35469902735E+01 -0.26270112363E+03  0.26667214174E+03  0.00000000000E+00 0. -1.
         11    1    4    4    0    0 -0.78086512935E+01  0.53208308925E+02 -0.11768974319E+03  0.12939464760E+03  0.00000000000E+00 0.  1.
</event>
<event>
 8    1  0.7136454E-009  0.1025216E+03  0.7561462E-02  0.1275081E+00
         -4   -1    0    0    0  501 -0.00000000000E+00  0.00000000000E+00  0.12428947894E+03  0.12428947894E+03  0.00000000000E+00 0.  1.
          4   -1    0    0  501    0  0.00000000000E+00 -0.00000000000E+00 -0.96053750208E+02  0.96053750208E+02  0.00000000000E+00 0. -1.
         25    2    1    2    0    0 -0.30101741681E+01  0.10577456407E+02  0.41509149242E+02  0.13225717680E+03  0.12509199659E+03 0.  0.
         23    2    1    2    0    0  0.30101741681E+01 -0.10577456407E+02 -0.13273420510E+02  0.88086052351E+02  0.86383014501E+02 0.  0.
          5    1    3    3  502    0 -0.33524535425E+02  0.55866754715E+02  0.30985037540E+01  0.65361011952E+02  0.41800000000E+01 0. -1.
         -5    1    3    3    0  502  0.30514361257E+02 -0.45289298308E+02  0.38410645488E+02  0.66896164845E+02  0.41800000000E+01 0. -1.
        -11    1    4    4    0    0  0.24715116592E+02 -0.40845046581E+02  0.21136234222E+01  0.47787260042E+02  0.00000000000E+00 0.  1.
         11    1    4    4    0    0 -0.21704942424E+02  0.30267590175E+02 -0.15387043932E+02  0.40298792309E+02  0.00000000000E+00 0. -1.
</event>
<event>
 8    1  0.7136454E-009  0.1161512E+03  0.7561462E-02  0.1249585E+00
         -2   -1    0    0    0  501 -0.00000000000E+00  0.00000000000E+00  0.90583807330E+02  0.90583807330E+02  0.00000000000E+00 0. -1.
          2   -1    0    0  501    0  0.00000000000E+00 -0.00000000000E+00 -0.22040564632E+03  0.22040564632E+03  0.00000000000E+00 0.  1.
         25    2    1    2    0    0  0.91559199643E+02 -0.33014161368E+02 -0.50301850123E+02  0.16628802422E+03  0.12509360089E+03 0.  0.
         23    2    1    2    0    0 -0.91559199643E+02  0.33014161368E+02 -0.79519988870E+02  0.14470142943E+03  0.71708110830E+02 0.  0.
          5    1    3    3  502    0  0.11088136938E+02  0.29374572620E+02 -0.55873239946E+02  0.64226969720E+02  0.41800000000E+01 0.  1.
         -5    1    3    3    0  502  0.80471062705E+02 -0.62388733988E+02  0.55713898234E+01  0.10206105450E+03  0.41800000000E+01 0.  1.
        -11    1    4    4    0    0 -0.52880480145E+02  0.10333372148E+02 -0.54241174344E+00  0.53883373788E+02  0.00000000000E+00 0. -1.
         11    1    4    4    0    0 -0.38678719498E+02  0.22680789220E+02 -0.78977577126E+02  0.90818055641E+02  0.00000000000E+00 0.  1.
</event>
<event>
 8    1  0.7136454E-009  0.1410623E+03  0.7561462E-02  0.1211907E+00
          3   -1    0    0  501    0  0.00000000000E+00  0.00000000000E+00  0.11980616641E+03  0.11980616641E+03  0.00000000000E+00 0. -1.
         -3   -1    0    0    0  501 -0.00000000000E+00 -0.00000000000E+00 -0.33817426159E+03  0.33817426159E+03  0.00000000000E+00 0.  1.
         25    2    1    2    0    0 -0.72793169356E+02  0.73333268065E+02 -0.25945464623E+03  0.30600671129E+03  0.12508709044E+03 0.  0.
         23    2    1    2    0    0  0.72793169356E+02 -0.73333268065E+02  0.41086551057E+02  0.15197371671E+03  0.10359195037E+03 0.  0.
          5    1    3    3  502    0 -0.61405997132E+02 -0.19627261714E+02 -0.74201855599E+02  0.98383502989E+02  0.41800000000E+01 0.  1.
         -5    1    3    3    0  502 -0.11387172224E+02  0.92960529779E+02 -0.18525279064E+03  0.20762320830E+03  0.41800000000E+01 0.  1.
        -11    1    4    4    0    0  0.27589929440E+01 -0.49822706157E+02 -0.22278087036E+02  0.54646383712E+02  0.00000000000E+00 0.  1.
         11    1    4    4    0    0  0.70034176412E+02 -0.23510561908E+02  0.63364638093E+02  0.97327332993E+02  0.00000000000E+00 0. -1.
</event>
<event>
 8    1  0.7136454E-009  0.9392748E+02  0.7561462E-02  0.1293610E+00
          1   -1    0    0  501    0  0.00000000000E+00  0.00000000000E+00  0.10372632636E+03  0.10372632636E+03  0.00000000000E+00 0. -1.
         -1   -1    0    0    0  501 -0.00000000000E+00 -0.00000000000E+00 -0.13046378027E+03  0.13046378027E+03  0.00000000000E+00 0.  1.
         25    2    1    2    0    0  0.28618138992E+02 -0.30020773502E+02 -0.20619200509E+02  0.13339012616E+03  0.12509008596E+03 0.  0.
         23    2    1    2    0    0 -0.28618138992E+02  0.30020773502E+02 -0.61182534018E+01  0.10079998048E+03  0.91667651428E+02 0.  0.
          5    1    3    3  502    0 -0.32700380608E+02  0.24803329913E+02  0.14673686942E+02  0.43787093477E+02  0.41800000000E+01 0. -1.
         -5    1    3    3    0  502  0.61318519600E+02 -0.54824103415E+02 -0.35292887451E+02  0.89603032682E+02  0.41800000000E+01 0. -1.
        -11    1    4    4    0    0 -0.23930752667E+02 -0.85298688272E+01 -0.41241154497E+02  0.48438336157E+02  0.00000000000E+00 0.  1.
         11    1    4    4    0    0 -0.46873863241E+01  0.38550642329E+02  0.35122901095E+02  0.52361644319E+02  0.00000000000E+00 0. -1.
</event>
<event>
 8    1  0.7136454E-009  0.1100309E+03  0.7561462E-02  0.1260513E+00
         -3   -1    0    0    0  501 -0.00000000000E+00  0.00000000000E+00  0.29425841069E+03  0.29425841069E+03  0.00000000000E+00 0.  1.
          3   -1    0    0  501    0  0.00000000000E+00 -0.00000000000E+00 -0.46393947219E+02  0.46393947219E+02  0.00000000000E+00 0. -1.
         25    2    1    2    0    0  0.29565318100E+02  0.21878534550E+02  0.15283769161E+03  0.20089933312E+03  0.12509358002E+03 0.  0.
         23    2    1    2    0    0 -0.29565318100E+02 -0.21878534550E+02  0.95026771861E+02  0.13975302479E+03  0.95645398531E+02 0.  0.
          5    1    3    3  502    0  0.43417218185E+02  0.68446428495E+02  0.10352070397E+03  0.13154458164E+03  0.41800000000E+01 0. -1.
         -5    1    3    3    0  502 -0.13851900085E+02 -0.46567893946E+02  0.49316987649E+02  0.69354751483E+02  0.41800000000E+01 0. -1.
        -11    1    4    4    0    0 -0.12241608708E+02  0.31617014505E+02  0.70851623300E+02  0.78545815383E+02  0.00000000000E+00 0.  1.
         11    1    4    4    0    0 -0.17323709392E+02 -0.53495549055E+02  0.24175148561E+02  0.61207209410E+02  0.00000000000E+00 0. -1.
</event>
<event>
 8    1  0.7136454E-009  0.1417789E+03  0.7561462E-02  0.1210955E+00
          1   -1    0    0  501    0  0.00000000000E+00  0.00000000000E+00  0.51931235216E+02  0.51931235216E+02  0.00000000000E+00 0. -1.
         -1   -1    0    0    0  501 -0.00000000000E+00 -0.00000000000E+00 -0.74632202353E+03  0.74632202353E+03  0.00000000000E+00 0.  1.
         25    2    1    2    0    0  0.97998632569E+02 -0.98910289294E+02 -0.55686874457E+03  0.58748148057E+03  0.12507883122E+03 0.  0.
         23    2    1    2    0    0 -0.97998632569E+02  0.98910289294E+02 -0.13752204374E+03  0.21077177818E+03  0.78265271011E+02 0.  0.
          5    1    3    3  502    0  0.64534970721E+02 -0.83311381780E+02 -0.53296535198E+03  0.54330018184E+03  0.41800000000E+01 0. -1.
         -5    1    3    3    0  502  0.33463661848E+02 -0.15598907514E+02 -0.23903392593E+02  0.44181298728E+02  0.41800000000E+01 0. -1.
        -11    1    4    4    0    0 -0.20753620426E+02  0.34949267425E+02 -0.92111737993E+02  0.10068136039E+03  0.00000000000E+00 0.  1.
         11    1    4    4    0    0 -0.77245012143E+02  0.63961021868E+02 -0.45410305752E+02  0.11009041778E+03  0.00000000000E+00 0. -1.
</event>
<event>
 8    1  0.7136454E-009  0.1451389E+03  0.7561462E-02  0.1206577E+00
         -2   -1    0    0    0  501 -0.00000000000E+00  0.00000000000E+00  0.56095895671E+02  0.56095895671E+02  0.00000000000E+00 0. -1.
          2   -1    0    0  501    0  0.00000000000E+00 -0.00000000000E+00 -0.50381951222E+03  0.50381951222E+03  0.00000000000E+00 0.  1.
         25    2    1    2    0    0 -0.30742427027E+02 -0.10675736258E+03 -0.13203302763E+03  0.21312636812E+03  0.12509155495E+03 0.  0.
         23    2    1    2    0    0  0.30742427027E+02  0.10675736258E+03 -0.31569058892E+03  0.34678903977E+03  0.90883765803E+02 0.  0.
          5    1    3    3  502    0  0.37196111950E+02 -0.66229658815E+02 -0.10450268966E+03  0.12926021428E+03  0.41800000000E+01 0. -1.
         -5    1    3    3    0  502 -0.67938538976E+02 -0.40527703765E+02 -0.27530337968E+02  0.83866153836E+02  0.41800000000E+01 0. -1.
        -11    1    4    4    0    0  0.49794624343E+02  0.35318651547E+02 -0.20323090731E+03  0.21220205806E+03  0.00000000000E+00 0.  1.
         11    1    4    4    0    0 -0.19052197316E+02  0.71438711033E+02 -0.11245968161E+03  0.13458698171E+03  0.00000000000E+00 0. -1.
</event>
<event>
 8    1  0.7136454E-009  0.3286795E+03  0.7561462E-02  0.1071723E+00
          1   -1    0    0  501    0  0.00000000000E+00  0.00000000000E+00  0.16389729413E+04  0.16389729413E+04  0.00000000000E+00 0. -1.
         -1   -1    0    0    0  501 -0.00000000000E+00 -0.00000000000E+00 -0.12849219626E+03  0.12849219626E+03  0.00000000000E+00 0.  1.
         25    2    1    2    0    0 -0.26166576903E+03 -0.17702061606E+03  0.13757991425E+04  0.14171366591E+04  0.12509099374E+03 0.  0.
         23    2    1    2    0    0  0.26166576903E+03  0.17702061606E+03  0.13468160247E+03  0.35032847846E+03  0.69178288369E+02 0.  0.
          5    1    3    3  502    0 -0.94491250035E+01 -0.61224652767E+02  0.23648283747E+03  0.24449815723E+03  0.41800000000E+01 0. -1.
         -5    1    3    3    0  502 -0.25221664402E+03 -0.11579596329E+03  0.11393163050E+04  0.11726385018E+04  0.41800000000E+01 0. -1.
        -11    1    4    4    0    0  0.13317163831E+03  0.11033650541E+03  0.10571114875E+03  0.20269108675E+03  0.00000000000E+00 0. -1.
         11    1    4    4    0    0  0.12849413072E+03  0.66684110650E+02  0.28970453722E+02  0.14763739171E+03  0.00000000000E+00 0.  1.
</event>
<event>
 8    1  0.7136454E-009  0.1017655E+03  0.7561462E-02  0.1276627E+00
          1   -1    0    0  501    0  0.00000000000E+00  0.00000000000E+00  0.41461617890E+03  0.41461617890E+03  0.00000000000E+00 0. -1.
         -1   -1    0    0    0  501 -0.00000000000E+00 -0.00000000000E+00 -0.50573251756E+02  0.50573251756E+02  0.00000000000E+00 0.  1.
         25    2    1    2    0    0 -0.12252251077E+02 -0.79561424630E+02  0.28579312358E+03  0.32218775860E+03  0.12508838619E+03 0.  0.
         23    2    1    2    0    0  0.12252251077E+02  0.79561424630E+02  0.78249803560E+02  0.14300167205E+03  0.88579390983E+02 0.  0.
          5    1    3    3  502    0 -0.70695595595E+01 -0.31585930168E+01 -0.11885645075E+02  0.14788385343E+02  0.41800000000E+01 0. -1.
         -5    1    3    3    0  502 -0.51826915173E+01 -0.76402831614E+02  0.29767876866E+03  0.30739937326E+03  0.41800000000E+01 0. -1.
        -11    1    4    4    0    0  0.25782808200E+02  0.94458858537E+02  0.73203581819E+02  0.12225380790E+03  0.00000000000E+00 0. -1.
         11    1    4    4    0    0 -0.13530557124E+02 -0.14897433906E+02  0.50462217416E+01  0.20747864154E+02  0.00000000000E+00 0.  1.
</event>
<event>
 8    1  0.7136454E-009  0.7650857E+02  0.7561462E-02  0.1339262E+00
          2   -1    0    0  501    0  0.00000000000E+00  0.00000000000E+00  0.70988660376E+02  0.70988660376E+02  0.00000000000E+00 0. -1.
         -2   -1    0    0    0  501 -0.00000000000E+00 -0.00000000000E+00 -0.25801628874E+03  0.25801628874E+03  0.00000000000E+00 0.  1.
         25    2    1    2    0    0 -0.30124319438E+02 -0.63798352416E+02 -0.55517611179E+02  0.15395539610E+03  0.12506939851E+03 0.  0.
         23    2    1    2    0    0  0.30124319438E+02  0.63798352416E+02 -0.13151001719E+03  0.17504955302E+03  0.91486376033E+02 0.  0.
          5    1    3    3  502    0 -0.12517975585E+02 -0.62884653248E+02 -0.92584760227E+02  0.11269689238E+03  0.41800000000E+01 0. -1.
         -5    1    3    3    0  502 -0.17606343853E+02 -0.91369916842E+00  0.37067149048E+02  0.41258503712E+02  0.41800000000E+01 0. -1.
        -11    1    4    4    0    0  0.21670191168E+02  0.49453565215E+02 -0.14428903477E+03  0.15406030589E+03  0.00000000000E+00 0.  1.
         11    1    4    4    0    0  0.84541282703E+01  0.14344787202E+02  0.12779017580E+02  0.20989247128E+02  0.00000000000E+00 0. -1.
</event>
<event>
 8    1  0.7136454E-009  0.1186619E+03  0.7561462E-02  0.1245321E+00
          1   -1    0    0  501    0  0.00000000000E+00  0.00000000000E+00  0.58463144571E+03  0.58463144571E+03  0.00000000000E+00 0. -1.
         -1   -1    0    0    0  501 -0.00000000000E+00 -0.00000000000E+00 -0.35636621184E+02  0.35636621184E+02  0.00000000000E+00 0.  1.
         25    2    1    2    0    0  0.48344126301E+02 -0.75761869145E+02  0.39442268522E+03  0.42343897667E+03  0.12511713305E+03 0.  0.
         23    2    1    2    0    0 -0.48344126301E+02  0.75761869145E+02  0.15457213931E+03  0.19682909023E+03  0.82292947116E+02 0.  0.
          5    1    3    3  502    0  0.77348817794E+02 -0.43102007993E+02  0.14323075773E+03  0.16844329926E+03  0.41800000000E+01 0.  1.
         -5    1    3    3    0  502 -0.29004691493E+02 -0.32659861152E+02  0.25119192749E+03  0.25499567741E+03  0.41800000000E+01 0.  1.
        -11    1    4    4    0    0 -0.60241752333E+02  0.59726074552E+02  0.70152538374E+02  0.11008020415E+03  0.00000000000E+00 0.  1.
         11    1    4    4    0    0  0.11897626032E+02  0.16035794593E+02  0.84419600937E+02  0.86748886078E+02  0.00000000000E+00 0. -1.
</event>
<event>
 8    1  0.7136454E-009  0.8971441E+02  0.7561462E-02  0.1303545E+00
          3   -1    0    0  501    0  0.00000000000E+00  0.00000000000E+00  0.35734291575E+03  0.35734291575E+03  0.00000000000E+00 0. -1.
         -3   -1    0    0    0  501 -0.00000000000E+00 -0.00000000000E+00 -0.95611751334E+02  0.95611751334E+02  0.00000000000E+00 0.  1.
         25    2    1    2    0    0 -0.33444300826E+02 -0.21943472505E+02  0.31317949387E+03  0.33960106939E+03  0.12508978258E+03 0.  0.
         23    2    1    2    0    0  0.33444300826E+02  0.21943472505E+02 -0.51448329460E+02  0.11335359769E+03  0.92747346383E+02 0.  0.
          5    1    3    3  502    0 -0.20830995222E+02 -0.46337447014E+02  0.39430502612E+02  0.64446305510E+02  0.41800000000E+01 0. -1.
         -5    1    3    3    0  502 -0.12613305603E+02  0.24393974509E+02  0.27374899126E+03  0.27515476388E+03  0.41800000000E+01 0. -1.
        -11    1    4    4    0    0  0.83983817282E+01 -0.36308058965E+02 -0.23517135771E+02  0.44066581855E+02  0.00000000000E+00 0.  1.
         11    1    4    4    0    0  0.25045919098E+02  0.58251531470E+02 -0.27931193689E+02  0.69287015832E+02  0.00000000000E+00 0. -1.
</event>
<event>
 8    1  0.7136454E-009  0.8174279E+02  0.7561462E-02  0.1324177E+00
         -2   -1    0    0    0  501 -0.00000000000E+00  0.00000000000E+00  0.78990987153E+02  0.78990987153E+02  0.00000000000E+00 0.  1.
          2   -1    0    0  501    0  0.00000000000E+00 -0.00000000000E+00 -0.16085530928E+03  0.16085530928E+03  0.00000000000E+00 0. -1.
         25    2    1    2    0    0 -0.38251516153E+01  0.10230558252E+02 -0.80166401824E+02  0.14897262574E+03  0.12508754987E+03 0.  0.
         23    2    1    2    0    0  0.38251516153E+01 -0.10230558252E+02 -0.16979203044E+01  0.90873670691E+02  0.90198918976E+02 0.  0.
          5    1    3    3  502    0 -0.52934023619E+02 -0.21921371406E+02 -0.67757863320E+02  0.88832189113E+02  0.41800000000E+01 0.  1.
         -5    1    3    3    0  502  0.49108872004E+02  0.32151929658E+02 -0.12408538504E+02  0.60140436630E+02  0.41800000000E+01 0.  1.
        -11    1    4    4    0    0  0.24437788989E+02 -0.60833563623E+00  0.37962692300E+02  0.45152426398E+02  0.00000000000E+00 0.  1.
         11    1    4    4    0    0 -0.20612637373E+02 -0.96222226161E+01 -0.39660612605E+02  0.45721244294E+02  0.00000000000E+00 0. -1.
</event>
<event>
 8    1  0.7136454E-009  0.1069088E+03  0.7561462E-02  0.1266404E+00
          2   -1    0    0  501    0  0.00000000000E+00  0.00000000000E+00  0.58926188043E+03  0.58926188043E+03  0.00000000000E+00 0. -1.
         -2   -1    0    0    0  501 -0.00000000000E+00 -0.00000000000E+00 -0.29866397203E+02  0.29866397203E+02  0.00000000000E+00 0.  1.
         25    2    1    2    0    0  0.62119337151E+02  0.22241728833E+02  0.42217784862E+03  0.44523597848E+03  0.12508970431E+03 0.  0.
         23    2    1    2    0    0 -0.62119337151E+02 -0.22241728833E+02  0.13721763461E+03  0.17389229915E+03  0.84002058938E+02 0.  0.
          5    1    3    3  502    0  0.89152761971E+02  0.43931056728E+02  0.24096141171E+03  0.26068760432E+03  0.41800000000E+01 0.  1.
         -5    1    3    3    0  502 -0.27033424819E+02 -0.21689327895E+02  0.18121643690E+03  0.18454837416E+03  0.41800000000E+01 0.  1.
        -11    1    4    4    0    0 -0.39624331736E+02 -0.35600620965E+02  0.25325111491E+02  0.58981803555E+02  0.00000000000E+00 0.  1.
         11    1    4    4    0    0 -0.22495005415E+02  0.13358892132E+02  0.11189252312E+03  0.11491049559E+03  0.00000000000E+00 0. -1.
</event>
<event>
 8    1  0.7136454E-009  0.1472934E+03  0.7561462E-02  0.1203839E+00
          2   -1    0    0  501    0  0.00000000000E+00  0.00000000000E+00  0.10968045319E+04  0.10968045319E+04  0.00000000000E+00 0. -1.
         -2   -1    0    0    0  501 -0.00000000000E+00 -0.00000000000E+00 -0.29777956494E+02  0.29777956494E+02  0.00000000000E+00 0.  1.
         25    2    1    2    0    0 -0.14092547781E+03  0.37415106997E+02  0.64523517606E+03  0.67322777337E+03  0.12508925568E+03 0.  0.
         23    2    1    2    0    0  0.14092547781E+03 -0.37415106997E+02  0.42179139940E+03  0.45335471507E+03  0.79766111520E+02 0.  0.
          5    1    3    3  502    0 -0.48722851920E+02  0.10521987630E+02  0.47577779428E+03  0.47840005274E+03  0.41800000000E+01 0. -1.
         -5    1    3    3    0  502 -0.92202625888E+02  0.26893119367E+02  0.16945738177E+03  0.19482772063E+03  0.41800000000E+01 0. -1.
        -11    1    4    4    0    0  0.64906046809E+02 -0.31597176666E+02  0.10435133149E+03  0.12688726047E+03  0.00000000000E+00 0.  1.
         11    1    4    4    0    0  0.76019430999E+02 -0.58179303311E+01  0.31744006791E+03  0.32646745461E+03  0.00000000000E+00 0. -1.
</event>
<event>
 8    1  0.7136454E-009  0.1034107E+03  0.7561462E-02  0.1273283E+00
          1   -1    0    0  501    0  0.00000000000E+00  0.00000000000E+00  0.11232453741E+04  0.11232453741E+04  0.00000000000E+00 0. -1.
         -1   -1    0    0    0  501 -0.00000000000E+00 -0.00000000000E+00 -0.16310307285E+02  0.16310307285E+02  0.00000000000E+00 0.  1.
         25    2    1    2    0    0  0.14212874075E+02  0.10460637669E+02  0.94653330046E+03  0.95492533729E+03  0.12508269342E+03 0.  0.
         23    2    1    2    0    0 -0.14212874075E+02 -0.10460637669E+02  0.16040176631E+03  0.18463034405E+03  0.89711797317E+02 0.  0.
          5    1    3    3  502    0 -0.40925452949E+02 -0.30517115377E+02  0.55775299952E+03  0.56010005169E+03  0.41800000000E+01 0. -1.
         -5    1    3    3    0  502  0.55138327024E+02  0.40977753046E+02  0.38878030094E+03  0.39482528560E+03  0.41800000000E+01 0. -1.
        -11    1    4    4    0    0  0.17279581581E+02 -0.40014927791E+02  0.10961645423E+03  0.11796417008E+03  0.00000000000E+00 0. -1.
         11    1    4    4    0    0 -0.31492455656E+02  0.29554290122E+02  0.50785312080E+02  0.66666173963E+02  0.00000000000E+00 0.  1.
</event>
<event>
 8    1  0.7136454E-009  0.1161411E+03  0.7561462E-02  0.1249602E+00
          1   -1    0    0  501    0  0.00000000000E+00  0.00000000000E+00  0.57425510229E+03  0.57425510229E+03  0.00000000000E+00 0. -1.
         -1   -1    0    0    0  501 -0.00000000000E+00 -0.00000000000E+00 -0.44725924101E+02  0.44725924101E+02  0.00000000000E+00 0.  1.
         25    2    1    2    0    0 -0.20177256868E+01 -0.65760970950E+02  0.94416854529E+02  0.16997188986E+03  0.12508926575E+03 0.  0.
         23    2    1    2    0    0  0.20177256868E+01  0.65760970950E+02  0.43511232366E+03  0.44900913653E+03  0.89207028698E+02 0.  0.
          5    1    3    3  502    0  0.24956518327E+02 -0.93803682736E+02  0.45376406000E+02  0.10723082264E+03  0.41800000000E+01 0. -1.
         -5    1    3    3    0  502 -0.26974244014E+02  0.28042711787E+02  0.49040448529E+02  0.62741067224E+02  0.41800000000E+01 0. -1.
        -11    1    4    4    0    0  0.48407710447E+01  0.80671183776E+02  0.41958750445E+03  0.42729959846E+03  0.00000000000E+00 0. -1.
         11    1    4    4    0    0 -0.28230453579E+01 -0.14910212826E+02  0.15524819213E+02  0.21709538070E+02  0.00000000000E+00 0.  1.
</event>
<event>
 8    1  0.7136454E-009  0.1065452E+03  0.7561462E-02  0.1267105E+00
         -2   -1    0    0    0  501 -0.00000000000E+00  0.00000000000E+00  0.12013051670E+03  0.12013051670E+03  0.00000000000E+00 0.  1.
          2   -1    0    0  501    0  0.00000000000E+00 -0.00000000000E+00 -0.14953346871E+03  0.14953346871E+03  0.00000000000E+00 0. -1.
         25    2    1    2    0    0  0.35827155076E+02 -0.67258768035E+02 -0.23910328839E+02  0.14840797792E+03  0.12508356074E+03 0.  0.
         23    2    1    2    0    0 -0.35827155076E+02  0.67258768035E+02 -0.54926231742E+01  0.12125600748E+03  0.94156909055E+02 0.  0.
          5    1    3    3  502    0  0.31795099878E+02 -0.95857186531E+02 -0.46734355183E+02  0.11136023051E+03  0.41800000000E+01 0.  1.
         -5    1    3    3    0  502  0.40320551980E+01  0.28598418497E+02  0.22824026343E+02  0.37047747410E+02  0.41800000000E+01 0.  1.
        -11    1    4    4    0    0 -0.82235179455E+01  0.49109623617E+02 -0.46819473841E+02  0.68347966392E+02  0.00000000000E+00 0. -1.
         11    1    4    4    0    0 -0.27603637130E+02  0.18149144418E+02  0.41326850667E+02  0.52908041090E+02  0.00000000000E+00 0.  1.
</event>
<event>
 7    1  0.7136454E-009  0.1289396E+03  0.7561462E-02  0.1229038E+00
          1   -1    0    0  501    0  0.00000000000E+00  0.00000000000E+00  0.40429623841E+03  0.40429623841E+03  0.00000000000E+00 0. -1.
         -1   -1    0    0    0  501 -0.00000000000E+00 -0.00000000000E+00 -0.70603403040E+02  0.70603403040E+02  0.00000000000E+00 0.  1.
         23    2    1    2    0    0 -0.49079477156E+01  0.10728525961E+03  0.25497946700E+03  0.29239266851E+03  0.94576578110E+02 0.  0.
          5    1    1    2  502    0 -0.64244331896E+01 -0.10097968660E+03  0.10931146506E+03  0.14901221172E+03  0.41800000000E+01 0.  1.
         -5    1    1    2    0  502  0.11332380905E+02 -0.63055730030E+01 -0.30598096692E+02  0.33494761218E+02  0.41800000000E+01 0.  1.
        -11    1    3    3    0    0 -0.41100806726E+02  0.14826481207E+02  0.83543796832E+02  0.94279726599E+02  0.00000000000E+00 0. -1.
         11    1    3    3    0    0  0.36192859010E+02  0.92458778401E+02  0.17143567017E+03  0.19811294191E+03  0.00000000000E+00 0.  1.
</event>
<event>
 8    1  0.7136454E-009  0.1031191E+03  0.7561462E-02  0.1273870E+00
          2   -1    0    0  501    0  0.00000000000E+00  0.00000000000E+00  0.50340589092E+03  0.50340589092E+03  0.00000000000E+00 0.  1.
         -2   -1    0    0    0  501 -0.00000000000E+00 -0.00000000000E+00 -0.25306490965E+02  0.25306490965E+02  0.00000000000E+00 0. -1.
         25    2    1    2    0    0  0.30851669162E+01  0.59668927221E+01  0.21187998346E+03  0.24614334826E+03  0.12509315905E+03 0.  0.
         23    2    1    2    0    0 -0.30851669162E+01 -0.59668927221E+01  0.26621941650E+03  0.28256903362E+03  0.94484702346E+02 0.  0.
          5    1    3    3  502    0 -0.52568365178E+02  0.21639378928E+02  0.56313568990E+02  0.80127312386E+02  0.41800000000E+01 0. -1.
         -5    1    3    3    0  502  0.55653532094E+02 -0.15672486206E+02  0.15556641447E+03  0.16601603588E+03  0.41800000000E+01 0. -1.
        -11    1    4    4    0    0  0.40823864147E+02  0.13829070242E+02  0.88496458163E+02  0.98435025144E+02  0.00000000000E+00 0. -1.
         11    1    4    4    0    0 -0.43909031063E+02 -0.19795962964E+02  0.17772295833E+03  0.18413400848E+03  0.00000000000E+00 0.  1.
</event>
<event>
 8    1  0.7136454E-009  0.1453222E+03  0.7561462E-02  0.1206342E+00
          2   -1    0    0  501    0  0.00000000000E+00  0.00000000000E+00  0.24002297334E+03  0.24002297334E+03  0.00000000000E+00 0. -1.
         -2   -1    0    0    0  501 -0.00000000000E+00 -0.00000000000E+00 -0.12431726954E+03  0.12431726954E+03  0.00000000000E+00 0.  1.
         25    2    1    2    0    0 -0.11161299823E+03 -0.45769842003E+02  0.12247332903E+03  0.21260303020E+03  0.12509193545E+03 0.  0.
         23    2    1    2    0    0  0.11161299823E+03  0.45769842003E+02 -0.67676252317E+01  0.15173721268E+03  0.91793470072E+02 0.  0.
          5    1    3    3  502    0 -0.51088600024E+02 -0.65164598206E+02  0.12368012001E+03  0.14889833578E+03  0.41800000000E+01 0.  1.
         -5    1    3    3    0  502 -0.60524398211E+02  0.19394756203E+02 -0.12067909809E+01  0.63704694422E+02  0.41800000000E+01 0.  1.
        -11    1    4    4    0    0  0.26244718413E+02  0.52205697012E+02 -0.26060926047E+02  0.63979621064E+02  0.00000000000E+00 0. -1.
         11    1    4    4    0    0  0.85368279821E+02 -0.64358550082E+01  0.19293300816E+02  0.87757591613E+02  0.00000000000E+00 0.  1.
</event>
<event>
 8    1  0.7136454E-009  0.9699284E+02  0.7561462E-02  0.1286750E+00
         -2   -1    0    0    0  501 -0.00000000000E+00  0.00000000000E+00  0.94910675230E+01  0.94910675230E+01  0.00000000000E+00 0.  1.
          2   -1    0    0  501    0  0.00000000000E+00 -0.00000000000E+00 -0.16254952920E+04  0.16254952920E+04  0.00000000000E+00 0. -1.
         25    2    1    2    0    0  0.31192020843E+02 -0.52166123944E+01 -0.11917108069E+04  0.11986762344E+04  0.12509960995E+03 0.  0.
         23    2    1    2    0    0 -0.31192020843E+02  0.52166123944E+01 -0.42429341758E+03  0.43631012513E+03  0.96651259082E+02 0.  0.
          5    1    3    3  502    0  0.56749873434E+02 -0.25928676220E+02 -0.10879407410E+04  0.10897363776E+04  0.41800000000E+01 0. -1.
         -5    1    3    3    0  502 -0.25557852591E+02  0.20712063826E+02 -0.10377006595E+03  0.10893985682E+03  0.41800000000E+01 0. -1.
        -11    1    4    4    0    0  0.30999260098E+02 -0.12808492424E+02 -0.95964193520E+02  0.10165696259E+03  0.00000000000E+00 0.  1.
         11    1    4    4    0    0 -0.62191280941E+02  0.18025104818E+02 -0.32832922406E+03  0.33465316254E+03  0.00000000000E+00 0. -1.
</event>
<event>
 8    1  0.7136454E-009  0.1726105E+03  0.7561462E-02  0.1175153E+00
          2   -1    0    0  501    0  0.00000000000E+00  0.00000000000E+00  0.24395471990E+03  0.24395471990E+03  0.00000000000E+00 0. -1.
         -2   -1    0    0    0  501 -0.00000000000E+00 -0.00000000000E+00 -0.16986385517E+03  0.16986385517E+03  0.00000000000E+00 0.  1.
         25    2    1    2    0    0 -0.10148508630E+03 -0.10958862082E+03 -0.47911282163E+02  0.20063921095E+03  0.12510680819E+03 0.  0.
         23    2    1    2    0    0  0.10148508630E+03  0.10958862082E+03  0.12200214690E+03  0.21317936412E+03  0.90840678577E+02 0.  0.
          5    1    3    3  502    0 -0.34121501752E+02 -0.10755184490E+03 -0.65931564099E+02  0.13075213103E+03  0.41800000000E+01 0. -1.
         -5    1    3    3    0  502 -0.67363584546E+02 -0.20367759228E+01  0.18020281935E+02  0.69887079923E+02  0.41800000000E+01 0. -1.
        -11    1    4    4    0    0  0.79931030177E+01  0.56919625363E+02  0.10499530202E+02  0.58429218562E+02  0.00000000000E+00 0.  1.
         11    1    4    4    0    0  0.93491983280E+02  0.52668995461E+02  0.11150261670E+03  0.15475014556E+03  0.00000000000E+00 0. -1.
</event>
<event>
 8    1  0.7136454E-009  0.1053061E+03  0.7561462E-02  0.1269518E+00
         -1   -1    0    0    0  501 -0.00000000000E+00  0.00000000000E+00  0.23935323704E+03  0.23935323704E+03  0.00000000000E+00 0.  1.
          1   -1    0    0  501    0  0.00000000000E+00 -0.00000000000E+00 -0.59935282289E+02  0.59935282289E+02  0.00000000000E+00 0. -1.
         25    2    1    2    0    0  0.33891452700E+02  0.35850107216E+01  0.14806103014E+03  0.19680112102E+03  0.12508848756E+03 0.  0.
         23    2    1    2    0    0 -0.33891452700E+02 -0.35850107216E+01  0.31356924614E+02  0.10248739831E+03  0.91427168958E+02 0.  0.
          5    1    3    3  502    0  0.26639026687E+02 -0.59835837166E+02  0.77601179603E+02  0.10163356054E+03  0.41800000000E+01 0.  1.
         -5    1    3    3    0  502  0.72524260134E+01  0.63420847888E+02  0.70459850536E+02  0.95167560479E+02  0.41800000000E+01 0.  1.
        -11    1    4    4    0    0 -0.29309647943E+02 -0.37045233695E+02 -0.10814188206E+02  0.48459792288E+02  0.00000000000E+00 0. -1.
         11    1    4    4    0    0 -0.45818047572E+01  0.33460222974E+02  0.42171112820E+02  0.54027606025E+02  0.00000000000E+00 0.  1.
</event>
<event>
 8    1  0.7136454E-009  0.1005125E+03  0.7561462E-02  0.1279222E+00
         -2   -1    0    0    0  501 -0.00000000000E+00  0.00000000000E+00  0.39292949003E+02  0.39292949003E+02  0.00000000000E+00 0.  1.
          2   -1    0    0  501    0  0.00000000000E+00 -0.00000000000E+00 -0.38897531443E+03  0.38897531443E+03  0.00000000000E+00 0. -1.
         25    2    1    2    0    0 -0.34779402902E+01  0.54886349716E+01 -0.29806122527E+03  0.32331078322E+03  0.12508855805E+03 0.  0.
         23    2    1    2    0    0  0.34779402902E+01 -0.54886349716E+01 -0.51621140158E+02  0.10495748021E+03  0.91154316182E+02 0.  0.
          5    1    3    3  502    0 -0.46217774161E+02  0.46218867421E+02 -0.17194088530E+03  0.18399295310E+03  0.41800000000E+01 0.  1.
         -5    1    3    3    0  502  0.42739833870E+02 -0.40730232449E+02 -0.12612033998E+03  0.13931783012E+03  0.41800000000E+01 0.  1.
        -11    1    4    4    0    0  0.33025948838E+02 -0.24574384699E+02  0.15603575719E+01  0.41195247247E+02  0.00000000000E+00 0.  1.
         11    1    4    4    0    0 -0.29548008548E+02  0.19085749728E+02 -0.53181497729E+02  0.63762232964E+02  0.00000000000E+00 0. -1.
</event>
<event>
 8    1  0.7136454E-009  0.1635600E+03  0.7561462E-02  0.1184735E+00
          2   -1    0    0  501    0  0.00000000000E+00  0.00000000000E+00  0.23324881318E+03  0.23324881318E+03  0.00000000000E+00 0. -1.
         -2   -1    0    0    0  501 -0.00000000000E+00 -0.00000000000E+00 -0.23217876425E+03  0.23217876425E+03  0.00000000000E+00 0.  1.
         25    2    1    2    0    0  0.95237022479E+02  0.12804031276E+03 -0.12953861969E+03  0.24060666663E+03  0.12508757688E+03 0.  0.
         23    2    1    2    0    0 -0.95237022479E+02 -0.12804031276E+03  0.13060866862E+03  0.22482091080E+03  0.89562299393E+02 0.  0.
          5    1    3    3  502    0  0.56183131676E+02  0.75606658935E+02 -0.14531122667E+03  0.17322163883E+03  0.41800000000E+01 0.  1.
         -5    1    3    3    0  502  0.39053890804E+02  0.52433653828E+02  0.15772606979E+02  0.67385027800E+02  0.41800000000E+01 0.  1.
        -11    1    4    4    0    0 -0.92789462596E+02 -0.90224666868E+02  0.13458548226E+03  0.18671804122E+03  0.00000000000E+00 0. -1.
         11    1    4    4    0    0 -0.24475598837E+01 -0.37815645896E+02 -0.39768136440E+01  0.38102869585E+02  0.00000000000E+00 0.  1.
</event>
<event>
 8    1  0.7136454E-009  0.1409916E+03  0.7561462E-02  0.1212001E+00
          2   -1    0    0  501    0  0.00000000000E+00  0.00000000000E+00  0.86935125556E+03  0.86935125556E+03  0.00000000000E+00 0. -1.
         -2   -1    0    0    0  501 -0.00000000000E+00 -0.00000000000E+00 -0.29307847745E+02  0.29307847745E+02  0.00000000000E+00 0.  1.
         25    2    1    2    0    0 -0.54629895466E+02 -0.97478191406E+02  0.35944194528E+03  0.39665110069E+03  0.12508861009E+03 0.  0.
         23    2    1    2    0    0  0.54629895466E+02  0.97478191406E+02  0.48060146254E+03  0.50200800262E+03  0.92454559748E+02 0.  0.
          5    1    3    3  502    0 -0.79187443411E+02 -0.76365218615E+02  0.15795096373E+03  0.19253123682E+03  0.41800000000E+01 0. -1.
         -5    1    3    3    0  502  0.24557547945E+02 -0.21112972791E+02  0.20149098154E+03  0.20411986387E+03  0.41800000000E+01 0. -1.
        -11    1    4    4    0    0  0.55485277804E+02  0.15985769512E+02  0.27179671155E+03  0.27786257986E+03  0.00000000000E+00 0.  1.
         11    1    4    4    0    0 -0.85538233835E+00  0.81492421894E+02  0.20880475100E+03  0.22414542276E+03  0.00000000000E+00 0. -1.
</event>
<event>
 8    1  0.7136454E-009  0.1039101E+03  0.7561462E-02  0.1272282E+00
          2   -1    0    0  501    0  0.00000000000E+00  0.00000000000E+00  0.26620054658E+03  0.26620054658E+03  0.00000000000E+00 0. -1.
         -2   -1    0    0    0  501 -0.00000000000E+00 -0.00000000000E+00 -0.80175037049E+02  0.80175037049E+02  0.00000000000E+00 0.  1.
         25    2    1    2    0    0 -0.23930424886E+02 -0.89207639042E+02  0.13674506367E+03  0.20707019170E+03  0.12509270065E+03 0.  0.
         23    2    1    2    0    0  0.23930424886E+02  0.89207639042E+02  0.49280445858E+02  0.13930539192E+03  0.91906266251E+02 0.  0.
          5    1    3    3  502    0 -0.11584174764E+02 -0.78025016961E+02  0.15983792676E+03  0.17829114282E+03  0.41800000000E+01 0.  1.
         -5    1    3    3    0  502 -0.12346250122E+02 -0.11182622081E+02 -0.23092863093E+02  0.28779048881E+02  0.41800000000E+01 0.  1.
        -11    1    4    4    0    0 -0.21563782923E+02  0.26030617521E+02 -0.16286226325E+02  0.37521073418E+02  0.00000000000E+00 0.  1.
         11    1    4    4    0    0  0.45494207809E+02  0.63177021521E+02  0.65566672183E+02  0.10178431851E+03  0.00000000000E+00 0. -1.
</event>
<event>
 8    1  0.7136454E-009  0.1524081E+03  0.7561462E-02  0.1197545E+00
          4   -1    0    0  501    0  0.00000000000E+00  0.00000000000E+00  0.78979447755E+03  0.78979447755E+03  0.00000000000E+00 0. -1.
         -4   -1    0    0    0  501 -0.00000000000E+00 -0.00000000000E+00 -0.43107995334E+02  0.43107995334E+02  0.00000000000E+00 0.  1.
         25    2    1    2    0    0  0.76203850473E+02 -0.11770744420E+03  0.28106657807E+03  0.33809447676E+03  0.12508950660E+03 0.  0.
         23    2    1    2    0    0 -0.76203850473E+02  0.11770744420E+03  0.46561990415E+03  0.49480799612E+03  0.91493107071E+02 0.  0.
          5    1    3    3  502    0  0.10046457173E+02 -0.64794957434E+02  0.28410717232E+02  0.71581834736E+02  0.41800000000E+01 0.  1.
         -5    1    3    3    0  502  0.66157393301E+02 -0.52912486766E+02  0.25265586083E+03  0.26651264202E+03  0.41800000000E+01 0.  1.
        -11    1    4    4    0    0 -0.31897426466E+02  0.38585182720E+01  0.36452486788E+02  0.48591334324E+02  0.00000000000E+00 0.  1.
         11    1    4    4    0    0 -0.44306424007E+02  0.11384892593E+03  0.42916741736E+03  0.44621666180E+03  0.00000000000E+00 0. -1.
</event>
<event>
 8    1  0.7136454E-009  0.1164354E+03  0.7561462E-02  0.1249096E+00
         -1   -1    0    0    0  501 -0.00000000000E+00  0.00000000000E+00  0.25548974639E+02  0.25548974639E+02  0.00000000000E+00 0.  1.
          1   -1    0    0  501    0  0.00000000000E+00 -0.00000000000E+00 -0.57918447880E+03  0.57918447880E+03  0.00000000000E+00 0. -1.
         25    2    1    2    0    0  0.21402984890E+02 -0.43142588995E+02 -0.36163764209E+03  0.38567991702E+03  0.12509134051E+03 0.  0.
         23    2    1    2    0    0 -0.21402984890E+02  0.43142588995E+02 -0.19199786207E+03  0.21905353642E+03  0.93818452499E+02 0.  0.
          5    1    3    3  502    0  0.39300824890E+02 -0.79955005955E+02 -0.20179492577E+03  0.22062643151E+03  0.41800000000E+01 0.  1.
         -5    1    3    3    0  502 -0.17897840000E+02  0.36812416960E+02 -0.15984271632E+03  0.16505348551E+03  0.41800000000E+01 0.  1.
        -11    1    4    4    0    0 -0.93781373837E+01 -0.28441804832E+02 -0.81677439456E+02  0.86994769032E+02  0.00000000000E+00 0. -1.
         11    1    4    4    0    0 -0.12024847506E+02  0.71584393827E+02 -0.11032042262E+03  0.13205876739E+03  0.00000000000E+00 0.  1.
</event>
<event>
 8    1  0.7136454E-009  0.1478582E+03  0.7561462E-02  0.1203130E+00
          1   -1    0    0  501    0  0.00000000000E+00  0.00000000000E+00  0.24505037254E+03  0.24505037254E+03  0.00000000000E+00 0. -1.
         -1   -1    0    0    0  501 -0.00000000000E+00 -0.00000000000E+00 -0.17125902644E+03  0.17125902644E+03  0.00000000000E+00 0.  1.
         25    2    1    2    0    0 -0.11217072111E+03 -0.54701507913E+02  0.16078449658E+03  0.23890057266E+03  0.12508918272E+03 0.  0.
         23    2    1    2    0    0  0.11217072111E+03  0.54701507913E+02 -0.86993150474E+02  0.17740882633E+03  0.91277367329E+02 0.  0.
          5    1    3    3  502    0 -0.96319620107E+02  0.69337838893E+01  0.44798639817E+02  0.10653608359E+03  0.41800000000E+01 0.  1.
         -5    1    3    3    0  502 -0.15851101004E+02 -0.61635291802E+02  0.11598585676E+03  0.13236448907E+03  0.41800000000E+01 0.  1.
        -11    1    4    4    0    0  0.60207020730E+02  0.57482022381E+02 -0.93247071016E+02  0.12499633793E+03  0.00000000000E+00 0.  1.
         11    1    4    4    0    0  0.51963700380E+02 -0.27805144680E+01  0.62539205421E+01  0.52412488398E+02  0.00000000000E+00 0. -1.
</event>
<event>
 8    1  0.7136454E-009  0.1249544E+03  0.7561462E-02  0.1235140E+00
         -2   -1    0    0    0  501 -0.00000000000E+00  0.00000000000E+00  0.14671675913E+03  0.14671675913E+03  0.00000000000E+00 0.  1.
          2   -1    0    0  501    0  0.00000000000E+00 -0.00000000000E+00 -0.14046656473E+03  0.14046656473E+03  0.00000000000E+00 0. -1.
         25    2    1    2    0    0  0.70060011902E+02  0.48431039087E+02 -0.35140724334E+02  0.15535917203E+03  0.12509049129E+03 0.  0.
         23    2    1    2    0    0 -0.70060011902E+02 -0.48431039087E+02  0.41390918731E+02  0.13182415183E+03  0.91708385863E+02 0.  0.
          5    1    3    3  502    0  0.25208103079E+02  0.87120821717E+02 -0.30585071328E+02  0.95803992743E+02  0.41800000000E+01 0.  1.
         -5    1    3    3    0  502  0.44851908823E+02 -0.38689782630E+02 -0.45556530058E+01  0.59555179282E+02  0.41800000000E+01 0.  1.
        -11    1    4    4    0    0 -0.11613713099E+02 -0.38802659040E+02 -0.21142866435E+02  0.45689664932E+02  0.00000000000E+00 0. -1.
         11    1    4    4    0    0 -0.58446298802E+02 -0.96283800465E+01  0.62533785165E+02  0.86134486897E+02  0.00000000000E+00 0.  1.
</event>
<event>
 8    1  0.7136454E-009  0.1393825E+03  0.7561462E-02  0.1214162E+00
         -1   -1    0    0    0  501 -0.00000000000E+00  0.00000000000E+00  0.26138789354E+02  0.26138789354E+02  0.00000000000E+00 0.  1.
          1   -1    0    0  501    0  0.00000000000E+00 -0.00000000000E+00 -0.78974441296E+03  0.78974441296E+03  0.00000000000E+00 0. -1.
         25    2    1    2    0    0  0.82137709428E+02  0.48104355955E+02 -0.39234493787E+03  0.42266347229E+03  0.12509687512E+03 0.  0.
         23    2    1    2    0    0 -0.82137709428E+02 -0.48104355955E+02 -0.37126068573E+03  0.39321973002E+03  0.87901233972E+02 0.  0.
          5    1    3    3  502    0  0.28024235102E+02 -0.41544301607E+02 -0.96696840491E+02  0.10899100013E+03  0.41800000000E+01 0.  1.
         -5    1    3    3    0  502  0.54113474327E+02  0.89648657562E+02 -0.29564809738E+03  0.31367247216E+03  0.41800000000E+01 0.  1.
        -11    1    4    4    0    0 -0.55790882599E+02  0.12870993255E+02 -0.11465601070E+03  0.12815726994E+03  0.00000000000E+00 0.  1.
         11    1    4    4    0    0 -0.26346826830E+02 -0.60975349210E+02 -0.25660467503E+03  0.26506246008E+03  0.00000000000E+00 0. -1.
</event>
<event>
 8    1  0.7136454E-009  0.1687997E+03  0.7561462E-02  0.1179105E+00
         -1   -1    0    0    0  501 -0.00000000000E+00  0.00000000000E+00  0.63757344477E+03  0.63757344477E+03  0.00000000000E+00 0.  1.
          1   -1    0    0  501    0  0.00000000000E+00 -0.00000000000E+00 -0.58844051384E+02  0.58844051384E+02  0.00000000000E+00 0. -1.
         25    2    1    2    0    0 -0.13655067141E+03 -0.26415343285E+02  0.16010642748E+03  0.24622094576E+03  0.12508728866E+03 0.  0.
         23    2    1    2    0    0  0.13655067141E+03  0.26415343285E+02  0.41862296590E+03  0.45019655039E+03  0.89932698055E+02 0.  0.
          5    1    3    3  502    0 -0.13929001776E+02 -0.47430442472E+02  0.91509009722E+02  0.10409147527E+03  0.41800000000E+01 0.  1.
         -5    1    3    3    0  502 -0.12262166964E+03  0.21015099187E+02  0.68597417761E+02  0.14212947049E+03  0.41800000000E+01 0.  1.
        -11    1    4    4    0    0  0.10554045460E+03  0.57004747639E+02  0.33644031874E+03  0.35718400984E+03  0.00000000000E+00 0.  1.
         11    1    4    4    0    0  0.31010216812E+02 -0.30589404354E+02  0.82182647167E+02  0.93012540557E+02  0.00000000000E+00 0. -1.
</event>
<event>
 8    1  0.7136454E-009  0.1039622E+03  0.7561462E-02  0.1272178E+00
         -1   -1    0    0    0  501 -0.00000000000E+00  0.00000000000E+00  0.31931926137E+03  0.31931926137E+03  0.00000000000E+00 0.  1.
          1   -1    0    0  501    0  0.00000000000E+00 -0.00000000000E+00 -0.47961033024E+02  0.47961033024E+02  0.00000000000E+00 0. -1.
         25    2    1    2    0    0  0.14694223818E+02  0.27066553012E+02  0.76259412534E+02  0.14970504907E+03  0.12509030823E+03 0.  0.
         23    2    1    2    0    0 -0.14694223818E+02 -0.27066553012E+02  0.19509881581E+03  0.21757524532E+03  0.91251964028E+02 0.  0.
          5    1    3    3  502    0  0.54755439565E+02  0.51652411152E+02  0.68539255918E+02  0.10188832976E+03  0.41800000000E+01 0. -1.
         -5    1    3    3    0  502 -0.40061215747E+02 -0.24585858141E+02  0.77201566156E+01  0.47816719312E+02  0.41800000000E+01 0. -1.
        -11    1    4    4    0    0 -0.47728014768E+02 -0.13205101211E+02  0.15974092220E+03  0.16724084524E+03  0.00000000000E+00 0.  1.
         11    1    4    4    0    0  0.33033790950E+02 -0.13861451801E+02  0.35357893612E+02  0.50334400078E+02  0.00000000000E+00 0. -1.
</event>
<event>
 8    1  0.7136454E-009  0.1745483E+03  0.7561462E-02  0.1173186E+00
         -2   -1    0    0    0  501 -0.00000000000E+00  0.00000000000E+00  0.43333917910E+02  0.43333917910E+02  0.00000000000E+00 0.  1.
          2   -1    0    0  501    0  0.00000000000E+00 -0.00000000000E+00 -0.82180532719E+03  0.82180532719E+03  0.00000000000E+00 0. -1.
         25    2    1    2    0    0 -0.37943868548E+02  0.14677612540E+03 -0.50234523952E+03  0.53942703000E+03  0.12509121819E+03 0.  0.
         23    2    1    2    0    0  0.37943868548E+02 -0.14677612540E+03 -0.27612616976E+03  0.32571221511E+03  0.82824014003E+02 0.  0.
          5    1    3    3  502    0  0.33891676160E+02  0.10471722623E+03 -0.33181464266E+03  0.34961803824E+03  0.41800000000E+01 0.  1.
         -5    1    3    3    0  502 -0.71835544708E+02  0.42058899174E+02 -0.17053059686E+03  0.18980899175E+03  0.41800000000E+01 0.  1.
        -11    1    4    4    0    0  0.44596930551E+00 -0.71545762241E+02 -0.19960633738E+03  0.21204170558E+03  0.00000000000E+00 0. -1.
         11    1    4    4    0    0  0.37497899242E+02 -0.75230363162E+02 -0.76519832385E+02  0.11367050953E+03  0.00000000000E+00 0.  1.
</event>
<event>
 8    1  0.7136454E-009  0.1263999E+03  0.7561462E-02  0.1232898E+00
          2   -1    0    0  501    0  0.00000000000E+00  0.00000000000E+00  0.17431891250E+03  0.17431891250E+03  0.00000000000E+00 0. -1.
         -2   -1    0    0    0  501 -0.00000000000E+00 -0.00000000000E+00 -0.95579700874E+02  0.95579700874E+02  0.00000000000E+00 0.  1.
         25    2    1    2    0    0  0.56818943156E+02 -0.29738039120E+02  0.46629159016E+02  0.14810105985E+03  0.12508757806E+03 0.  0.
         23    2    1    2    0    0 -0.56818943156E+02  0.29738039120E+02  0.32110052606E+02  0.12179755352E+03  0.98442091066E+02 0.  0.
          5    1    3    3  502    0  0.93813216359E+02 -0.41564756906E+01  0.21558915118E+02  0.96438867034E+02  0.41800000000E+01 0.  1.
         -5    1    3    3    0  502 -0.36994273203E+02 -0.25581563429E+02  0.25070243898E+02  0.51662192814E+02  0.41800000000E+01 0.  1.
        -11    1    4    4    0    0 -0.47927607955E+02  0.63023723822E+02  0.36279673054E+02  0.87093398404E+02  0.00000000000E+00 0. -1.
         11    1    4    4    0    0 -0.88913352012E+01 -0.33285684702E+02 -0.41696204480E+01  0.34704155117E+02  0.00000000000E+00 0.  1.
</event>
<event>
 8    1  0.7136454E-009  0.1514890E+03  0.7561462E-02  0.1198655E+00
          2   -1    0    0  501    0  0.00000000000E+00  0.00000000000E+00  0.20103501095E+03  0.20103501095E+03  0.00000000000E+00 0. -1.
         -2   -1    0    0    0  501 -0.00000000000E+00 -0.00000000000E+00 -0.16727235393E+03  0.16727235393E+03  0.00000000000E+00 0.  1.
         25    2    1    2    0    0 -0.33657923439E+02  0.10671967226E+03  0.11522667833E+03  0.20358509665E+03  0.12509100656E+03 0.  0.
         23    2    1    2    0    0  0.33657923439E+02 -0.10671967226E+03 -0.81464021312E+02  0.16472226823E+03  0.89303385293E+02 0.  0.
          5    1    3    3  502    0  0.20372838932E+02 -0.18173942966E+02  0.38271823811E+02  0.47196924337E+02  0.41800000000E+01 0.  1.
         -5    1    3    3    0  502 -0.54030762371E+02  0.12489361522E+03  0.76954854521E+02  0.15638817231E+03  0.41800000000E+01 0.  1.
        -11    1    4    4    0    0 -0.94696930091E+01 -0.93682184161E+02 -0.36262060148E+02  0.10090076175E+03  0.00000000000E+00 0.  1.
         11    1    4    4    0    0  0.43127616448E+02 -0.13037488095E+02 -0.45201961164E+02  0.63821506480E+02  0.00000000000E+00 0. -1.
</event>
<event>
 8    1  0.7136454E-009  0.1486666E+03  0.7561462E-02  0.1202121E+00
          1   -1    0    0  501    0  0.00000000000E+00  0.00000000000E+00  0.14270182326E+03  0.14270182326E+03  0.00000000000E+00 0. -1.
         -1   -1    0    0    0  501 -0.00000000000E+00 -0.00000000000E+00 -0.22890472713E+03  0.22890472713E+03  0.00000000000E+00 0.  1.
         25    2    1    2    0    0 -0.32300524557E+02  0.12020236354E+03 -0.11991737438E+03  0.21335459852E+03  0.12509226972E+03 0.  0.
         23    2    1    2    0    0  0.32300524557E+02 -0.12020236354E+03  0.33714470500E+02  0.15825195187E+03  0.91733759669E+02 0.  0.
          5    1    3    3  502    0  0.42334910248E+02  0.53856940625E+02 -0.80826238956E+02  0.10603380585E+03  0.41800000000E+01 0.  1.
         -5    1    3    3    0  502 -0.74635434804E+02  0.66345422915E+02 -0.39091135420E+02  0.10732079267E+03  0.41800000000E+01 0.  1.
        -11    1    4    4    0    0 -0.68812514061E+01 -0.20745315608E+02 -0.27453680046E+02  0.35091655542E+02  0.00000000000E+00 0.  1.
         11    1    4    4    0    0  0.39181775963E+02 -0.99457047932E+02  0.61168150546E+02  0.12316029633E+03  0.00000000000E+00 0. -1.
</event>
<event>
 8    1  0.7136454E-009  0.1503849E+03  0.7561462E-02  0.1200001E+00
         -2   -1    0    0    0  501 -0.00000000000E+00  0.00000000000E+00  0.17852722793E+03  0.17852722793E+03  0.00000000000E+00 0.  1.
          2   -1    0    0  501    0  0.00000000000E+00 -0.00000000000E+00 -0.17015912860E+03  0.17015912860E+03  0.00000000000E+00 0. -1.
         25    2    1    2    0    0 -0.11433099863E+03 -0.50617672381E+02  0.61333317280E+02  0.18719876818E+03  0.12509147451E+03 0.  0.
         23    2    1    2    0    0  0.11433099863E+03  0.50617672381E+02 -0.52965217955E+02  0.16148758835E+03  0.87402522119E+02 0.  0.
          5    1    3    3  502    0  0.18407293360E+02 -0.31775846469E+02  0.34184851767E+02  0.50344903992E+02  0.41800000000E+01 0.  1.
         -5    1    3    3    0  502 -0.13273829199E+03 -0.18841825912E+02  0.27148465513E+02  0.13685386419E+03  0.41800000000E+01 0.  1.
        -11    1    4    4    0    0  0.72305702117E+02  0.13393459126E+02 -0.71302350897E+02  0.10242814335E+03  0.00000000000E+00 0. -1.
         11    1    4    4    0    0  0.42025296514E+02  0.37224213255E+02  0.18337132942E+02  0.59059445003E+02  0.00000000000E+00 0.  1.
</event>
<event>
 8    1  0.7136454E-009  0.1847613E+03  0.7561462E-02  0.1163273E+00
         -1   -1    0    0    0  501 -0.00000000000E+00  0.00000000000E+00  0.19397898799E+03  0.19397898799E+03  0.00000000000E+00 0.  1.
          1   -1    0    0  501    0  0.00000000000E+00 -0.00000000000E+00 -0.30889453786E+03  0.30889453786E+03  0.00000000000E+00 0. -1.
         25    2    1    2    0    0 -0.17375659256E+03 -0.10919538824E+02 -0.19587114881E+03  0.29038513390E+03  0.12508968490E+03 0.  0.
         23    2    1    2    0    0  0.17375659256E+03  0.10919538824E+02  0.80955598937E+02  0.21248839195E+03  0.91032510295E+02 0.  0.
          5    1    3    3  502    0 -0.10902628473E+03 -0.42381482170E+02 -0.18288193560E+03  0.21713174701E+03  0.41800000000E+01 0.  1.
         -5    1    3    3    0  502 -0.64730307827E+02  0.31461943346E+02 -0.12989213211E+02  0.73253386886E+02  0.41800000000E+01 0.  1.
        -11    1    4    4    0    0  0.96911506219E+02 -0.17443659074E+02  0.16611156948E+01  0.98482894885E+02  0.00000000000E+00 0. -1.
         11    1    4    4    0    0  0.76845086339E+02  0.28363197898E+02  0.79294483242E+02  0.11400549707E+03  0.00000000000E+00 0.  1.
</event>
<event>
 8    1  0.7136454E-009  0.1334118E+03  0.7561462E-02  0.1222479E+00
          2   -1    0    0  501    0  0.00000000000E+00  0.00000000000E+00  0.22971949613E+03  0.22971949613E+03  0.00000000000E+00 0. -1.
         -2   -1    0    0    0  501 -0.00000000000E+00 -0.00000000000E+00 -0.83699105000E+02  0.83699105000E+02  0.00000000000E+00 0.  1.
         25    2    1    2    0    0  0.47026094751E+02  0.68530441939E+02  0.65981886659E+02  0.16399471286E+03  0.12503112180E+03 0.  0.
         23    2    1    2    0    0 -0.47026094751E+02 -0.68530441939E+02  0.80038504467E+02  0.14942388827E+03  0.94939249666E+02 0.  0.
          5    1    3    3  502    0  0.89808335264E+02  0.48341658270E+02  0.51570648883E+02  0.11436545472E+03  0.41800000000E+01 0.  1.
         -5    1    3    3    0  502 -0.42782240513E+02  0.20188783669E+02  0.14411237777E+02  0.49629258141E+02  0.41800000000E+01 0.  1.
        -11    1    4    4    0    0 -0.53194065890E+02 -0.50032009758E+01  0.94496944230E+01  0.54258062909E+02  0.00000000000E+00 0.  1.
         11    1    4    4    0    0  0.61679711394E+01 -0.63527240963E+02  0.70588810044E+02  0.95165825357E+02  0.00000000000E+00 0. -1.
</event>
<event>
 8    1  0.7136454E-009  0.1656985E+03  0.7561462E-02  0.1182409E+00
         -1   -1    0    0    0  501 -0.00000000000E+00  0.00000000000E+00  0.70292093735E+02  0.70292093735E+02  0.00000000000E+00 0. -1.
          1   -1    0    0  501    0  0.00000000000E+00 -0.00000000000E+00 -0.48163249710E+03  0.48163249710E+03  0.00000000000E+00 0.  1.
         25    2    1    2    0    0  0.10546906490E+03 -0.10031438555E+03 -0.25145581751E+03  0.31633032671E+03  0.12509255707E+03 0.  0.
         23    2    1    2    0    0 -0.10546906490E+03  0.10031438555E+03 -0.15988458585E+03  0.23559426413E+03  0.93567499145E+02 0.  0.
          5    1    3    3  502    0  0.40169058895E+02 -0.93774126929E+02 -0.71257283968E+02  0.12450788365E+03  0.41800000000E+01 0. -1.
         -5    1    3    3    0  502  0.65300006006E+02 -0.65402586244E+01 -0.18019853354E+03  0.19182244305E+03  0.41800000000E+01 0. -1.
        -11    1    4    4    0    0 -0.83023184255E+02  0.27684724219E+02 -0.46553507715E+02  0.99128815990E+02  0.00000000000E+00 0. -1.
         11    1    4    4    0    0 -0.22445880646E+02  0.72629661335E+02 -0.11333107814E+03  0.13646544814E+03  0.00000000000E+00 0.  1.
</event>
<event>
 8    1  0.7136454E-009  0.1318234E+03  0.7561462E-02  0.1224775E+00
          2   -1    0    0  501    0  0.00000000000E+00  0.00000000000E+00  0.12396176881E+04  0.12396176881E+04  0.00000000000E+00 0. -1.
         -2   -1    0    0    0  501 -0.00000000000E+00 -0.00000000000E+00 -0.21241036964E+02  0.21241036964E+02  0.00000000000E+00 0.  1.
         25    2    1    2    0    0  0.11206572853E+03  0.44884199070E+02  0.69757850665E+03  0.71891560790E+03  0.12510219623E+03 0.  0.
         23    2    1    2    0    0 -0.11206572853E+03 -0.44884199070E+02  0.52079814452E+03  0.54194311720E+03  0.88872471030E+02 0.  0.
          5    1    3    3  502    0  0.63045850383E+02  0.23417839458E+02  0.62511824344E+03  0.62873958452E+03  0.41800000000E+01 0.  1.
         -5    1    3    3    0  502  0.49019878150E+02  0.21466359612E+02  0.72460263213E+02  0.90176023386E+02  0.41800000000E+01 0.  1.
        -11    1    4    4    0    0 -0.48688833489E+02 -0.60159659855E+02  0.36392260815E+03  0.37206108625E+03  0.00000000000E+00 0. -1.
         11    1    4    4    0    0 -0.63376895043E+02  0.15275460785E+02  0.15687553637E+03  0.16988203095E+03  0.00000000000E+00 0.  1.
</event>
<event>
 8    1  0.7136454E-009  0.2175319E+03  0.7561462E-02  0.1135737E+00
          1   -1    0    0  501    0  0.00000000000E+00  0.00000000000E+00  0.56019063228E+02  0.56019063228E+02  0.00000000000E+00 0. -1.
         -1   -1    0    0    0  501 -0.00000000000E+00 -0.00000000000E+00 -0.92121387668E+03  0.92121387668E+03  0.00000000000E+00 0.  1.
         25    2    1    2    0    0 -0.18359160706E+03 -0.26908610287E+02 -0.55705312363E+03  0.60032140087E+03  0.12509056839E+03 0.  0.
         23    2    1    2    0    0  0.18359160706E+03  0.26908610287E+02 -0.30814168983E+03  0.37691153905E+03  0.11261019389E+03 0.  0.
          5    1    3    3  502    0 -0.88798005123E+02  0.49596960583E+02 -0.24470958759E+03  0.26503810834E+03  0.41800000000E+01 0.  1.
         -5    1    3    3    0  502 -0.94793601936E+02 -0.76505570870E+02 -0.31234353604E+03  0.33528329253E+03  0.41800000000E+01 0.  1.
        -11    1    4    4    0    0  0.16499777117E+03  0.58217365812E+02 -0.21691282046E+03  0.27868386723E+03  0.00000000000E+00 0. -1.
         11    1    4    4    0    0  0.18593835893E+02 -0.31308755525E+02 -0.91228869363E+02  0.98227671819E+02  0.00000000000E+00 0.  1.
</event>
<event>
 8    1  0.7136454E-009  0.1629966E+03  0.7561462E-02  0.1185355E+00
         -4   -1    0    0    0  501 -0.00000000000E+00  0.00000000000E+00  0.31830869451E+02  0.31830869451E+02  0.00000000000E+00 0.  1.
          4   -1    0    0  501    0  0.00000000000E+00 -0.00000000000E+00 -0.10932053595E+04  0.10932053595E+04  0.00000000000E+00 0. -1.
         25    2    1    2    0    0 -0.65404867821E+02 -0.12418002170E+03 -0.72860973724E+03  0.75247550409E+03  0.12509500605E+03 0.  0.
         23    2    1    2    0    0  0.65404867821E+02  0.12418002170E+03 -0.33276475282E+03  0.37256072487E+03  0.91491193389E+02 0.  0.
          5    1    3    3  502    0 -0.57681162917E+02 -0.13957290506E+03 -0.47954024463E+03  0.50277632304E+03  0.41800000000E+01 0. -1.
         -5    1    3    3    0  502 -0.77237049039E+01  0.15392883355E+02 -0.24906949260E+03  0.24969918106E+03  0.41800000000E+01 0. -1.
        -11    1    4    4    0    0  0.56591191820E+02  0.32845599759E+02 -0.78202423595E+02  0.10196575637E+03  0.00000000000E+00 0.  1.
         11    1    4    4    0    0  0.88136760008E+01  0.91334421944E+02 -0.25456232923E+03  0.27059496850E+03  0.00000000000E+00 0. -1.
</event>
<event>
 8    1  0.7136454E-009  0.1245769E+03  0.7561462E-02  0.1235732E+00
         -3   -1    0    0    0  501 -0.00000000000E+00  0.00000000000E+00  0.93323205272E+02  0.93323205272E+02  0.00000000000E+00 0.  1.
          3   -1    0    0  501    0  0.00000000000E+00 -0.00000000000E+00 -0.37466409497E+03  0.37466409497E+03  0.00000000000E+00 0. -1.
         25    2    1    2    0    0  0.86527158557E+02 -0.75026193091E+02 -0.27345582534E+03  0.32177848274E+03  0.12508966673E+03 0.  0.
         23    2    1    2    0    0 -0.86527158557E+02  0.75026193091E+02 -0.78850643558E+01  0.14620881750E+03  0.90548137792E+02 0.  0.
          5    1    3    3  502    0  0.79536030328E+02 -0.83466190920E+02 -0.11502311103E+03  0.16291216534E+03  0.41800000000E+01 0.  1.
         -5    1    3    3    0  502  0.69911282290E+01  0.84399978289E+01 -0.15843271432E+03  0.15886631739E+03  0.41800000000E+01 0.  1.
        -11    1    4    4    0    0 -0.17821708120E+02 -0.30203026731E+01  0.30430866925E+02  0.35394535883E+02  0.00000000000E+00 0.  1.
         11    1    4    4    0    0 -0.68705450437E+02  0.78046495764E+02 -0.38315931281E+02  0.11081428162E+03  0.00000000000E+00 0. -1.
</event>
<event>
 8    1  0.7136454E-009  0.1276373E+03  0.7561462E-02  0.1231004E+00
         -2   -1    0    0    0  501 -0.00000000000E+00  0.00000000000E+00  0.66635080717E+02  0.66635080717E+02  0.00000000000E+00 0.  1.
          2   -1    0    0  501    0  0.00000000000E+00 -0.00000000000E+00 -0.98745407441E+03  0.98745407441E+03  0.00000000000E+00 0. -1.
         25    2    1    2    0    0 -0.10316906441E+03  0.27900943493E+02 -0.89740503555E+03  0.91236274425E+03  0.12509061022E+03 0.  0.
         23    2    1    2    0    0  0.10316906441E+03 -0.27900943493E+02 -0.23413958143E+02  0.14172641088E+03  0.90087977028E+02 0.  0.
          5    1    3    3  502    0 -0.35033761410E+02  0.44806635431E+02 -0.13276779312E+03  0.14449829863E+03  0.41800000000E+01 0.  1.
         -5    1    3    3    0  502 -0.68135303002E+02 -0.16905691938E+02 -0.76463724243E+03  0.76786444561E+03  0.41800000000E+01 0.  1.
        -11    1    4    4    0    0  0.41574456869E+02 -0.47648093409E+02  0.16968523555E+02  0.65472949080E+02  0.00000000000E+00 0.  1.
         11    1    4    4    0    0  0.61594607543E+02  0.19747149916E+02 -0.40382481699E+02  0.76253461799E+02  0.00000000000E+00 0. -1.
</event>
<event>
 8    1  0.7136454E-009  0.2885081E+03  0.7561462E-02  0.1091131E+00
         -2   -1    0    0    0  501 -0.00000000000E+00  0.00000000000E+00  0.38899410821E+02  0.38899410821E+02  0.00000000000E+00 0.  1.
          2   -1    0    0  501    0  0.00000000000E+00 -0.00000000000E+00 -0.24947695765E+04  0.24947695765E+04  0.00000000000E+00 0. -1.
         25    2    1    2    0    0 -0.26884780064E+03 -0.61258345114E+02 -0.16747598293E+04  0.17019109698E+04  0.12509491814E+03 0.  0.
         23    2    1    2    0    0  0.26884780064E+03  0.61258345114E+02 -0.78111033634E+03  0.83175801748E+03  0.75208492537E+02 0.  0.
          5    1    3    3  502    0 -0.11463746374E+03 -0.86591041915E+02 -0.68894704521E+03  0.70377926947E+03  0.41800000000E+01 0.  1.
         -5    1    3    3    0  502 -0.15421033690E+03  0.25332696801E+02 -0.98581278408E+03  0.99813170032E+03  0.41800000000E+01 0.  1.
        -11    1    4    4    0    0  0.91904056647E+02  0.84029961633E+01 -0.36542904998E+03  0.37690231698E+03  0.00000000000E+00 0.  1.
         11    1    4    4    0    0  0.17694374399E+03  0.52855348950E+02 -0.41568128636E+03  0.45485570050E+03  0.00000000000E+00 0. -1.
</event>
<event>
 8    1  0.7136454E-009  0.1238182E+03  0.7561462E-02  0.1236928E+00
          2   -1    0    0  501    0  0.00000000000E+00  0.00000000000E+00  0.44454824281E+03  0.44454824281E+03  0.00000000000E+00 0. -1.
         -2   -1    0    0    0  501 -0.00000000000E+00 -0.00000000000E+00 -0.69111022107E+02  0.69111022107E+02  0.00000000000E+00 0.  1.
         25    2    1    2    0    0 -0.51293280785E+02 -0.92563931056E+02  0.32566336988E+03  0.36455730143E+03  0.12508522517E+03 0.  0.
         23    2    1    2    0    0  0.51293280785E+02  0.92563931056E+02  0.49773850821E+02  0.14910196349E+03  0.92492579727E+02 0.  0.
          5    1    3    3  502    0 -0.46965162260E+02 -0.50418848346E+02  0.31244510399E+03  0.31998000272E+03  0.41800000000E+01 0. -1.
         -5    1    3    3    0  502 -0.43281185253E+01 -0.42145082709E+02  0.13218265889E+02  0.44577298703E+02  0.41800000000E+01 0. -1.
        -11    1    4    4    0    0  0.66552192810E+02  0.32504891228E+02  0.82842789600E+01  0.74527790786E+02  0.00000000000E+00 0.  1.
         11    1    4    4    0    0 -0.15258912025E+02  0.60059039827E+02  0.41489571861E+02  0.74574172703E+02  0.00000000000E+00 0. -1.
</event>
<event>
 8    1  0.7136454E-009  0.9804816E+02  0.7561462E-02  0.1284455E+00
          1   -1    0    0  501    0  0.00000000000E+00  0.00000000000E+00  0.10659755253E+04  0.10659755253E+04  0.00000000000E+00 0. -1.
         -1   -1    0    0    0  501 -0.00000000000E+00 -0.00000000000E+00 -0.14155865879E+02  0.14155865879E+02  0.00000000000E+00 0.  1.
         25    2    1    2    0    0  0.36463927837E+02  0.13409349449E+02  0.77210335060E+03  0.78313467245E+03  0.12508757935E+03 0.  0.
         23    2    1    2    0    0 -0.36463927837E+02 -0.13409349449E+02  0.27971630885E+03  0.29699671875E+03  0.91958734374E+02 0.  0.
          5    1    3    3  502    0  0.59347054105E+02 -0.14753862426E+02  0.18488092425E+03  0.19477725185E+03  0.41800000000E+01 0. -1.
         -5    1    3    3    0  502 -0.22883126267E+02  0.28163211875E+02  0.58722242635E+03  0.58835742060E+03  0.41800000000E+01 0. -1.
        -11    1    4    4    0    0 -0.33825779772E+02  0.35649093628E+02  0.16599893454E+03  0.17312044225E+03  0.00000000000E+00 0. -1.
         11    1    4    4    0    0 -0.26381480648E+01 -0.49058443077E+02  0.11371737431E+03  0.12387627651E+03  0.00000000000E+00 0.  1.
</event>
<event>
 8    1  0.7136454E-009  0.2210347E+03  0.7561462E-02  0.1133114E+00
          2   -1    0    0  501    0  0.00000000000E+00  0.00000000000E+00  0.17098032861E+04  0.17098032861E+04  0.00000000000E+00 0. -1.
         -2   -1    0    0    0  501 -0.00000000000E+00 -0.00000000000E+00 -0.42946685275E+02  0.42946685275E+02  0.00000000000E+00 0.  1.
         25    2    1    2    0    0  0.15697311984E+03 -0.11996417757E+03  0.13365722350E+04  0.13568732532E+04  0.12509085318E+03 0.  0.
         23    2    1    2    0    0 -0.15697311984E+03  0.11996417757E+03  0.33028436575E+03  0.39587671813E+03  0.92728902970E+02 0.  0.
          5    1    3    3  502    0  0.41784250513E+02  0.24720669544E+02  0.29691801679E+03  0.30089004003E+03  0.41800000000E+01 0.  1.
         -5    1    3    3    0  502  0.11518886932E+03 -0.14468484711E+03  0.10396542182E+04  0.10559832132E+04  0.41800000000E+01 0.  1.
        -11    1    4    4    0    0 -0.10190906060E+02 -0.85195839233E+01  0.12221602573E+01  0.13339098629E+02  0.00000000000E+00 0. -1.
         11    1    4    4    0    0 -0.14678221378E+03  0.12848376149E+03  0.32906220549E+03  0.38253761950E+03  0.00000000000E+00 0.  1.
</event>
<event>
 8    1  0.7136454E-009  0.3057550E+03  0.7561462E-02  0.1082399E+00
          2   -1    0    0  501    0  0.00000000000E+00  0.00000000000E+00  0.22127560237E+03  0.22127560237E+03  0.00000000000E+00 0. -1.
         -2   -1    0    0    0  501 -0.00000000000E+00 -0.00000000000E+00 -0.45987963658E+03  0.45987963658E+03  0.00000000000E+00 0.  1.
         25    2    1    2    0    0  0.28834618983E+03  0.47669176358E+02 -0.19125514267E+03  0.37100067156E+03  0.12508834134E+03 0.  0.
         23    2    1    2    0    0 -0.28834618983E+03 -0.47669176358E+02 -0.47348891536E+02  0.31015456738E+03  0.92401637294E+02 0.  0.
          5    1    3    3  502    0  0.13042038983E+03  0.72584540353E+02 -0.13548357365E+03  0.20162158791E+03  0.41800000000E+01 0.  1.
         -5    1    3    3    0  502  0.15792580000E+03 -0.24915363995E+02 -0.55771569017E+02  0.16937908365E+03  0.41800000000E+01 0.  1.
        -11    1    4    4    0    0 -0.11389910054E+03 -0.57392595857E+02  0.53745185954E+01  0.12765500622E+03  0.00000000000E+00 0. -1.
         11    1    4    4    0    0 -0.17444708929E+03  0.97234194996E+01 -0.52723410131E+02  0.18249956116E+03  0.00000000000E+00 0.  1.
</event>
<event>
 8    1  0.7136454E-009  0.9800940E+02  0.7561462E-02  0.1284538E+00
          2   -1    0    0  501    0  0.00000000000E+00  0.00000000000E+00  0.12634307701E+03  0.12634307701E+03  0.00000000000E+00 0. -1.
         -2   -1    0    0    0  501 -0.00000000000E+00 -0.00000000000E+00 -0.11834480340E+03  0.11834480340E+03  0.00000000000E+00 0.  1.
         25    2    1    2    0    0  0.35954930280E+02 -0.39935141786E+02  0.21035085277E+02  0.13776031486E+03  0.12509139449E+03 0.  0.
         23    2    1    2    0    0 -0.35954930280E+02  0.39935141786E+02 -0.13036811673E+02  0.10692756555E+03  0.91520343393E+02 0.  0.
          5    1    3    3  502    0  0.78818233691E+02 -0.42022115281E+02  0.28815726808E+02  0.93946743671E+02  0.41800000000E+01 0.  1.
         -5    1    3    3    0  502 -0.42863303411E+02  0.20869734953E+01 -0.77806415311E+01  0.43813571188E+02  0.41800000000E+01 0.  1.
        -11    1    4    4    0    0 -0.19726429570E+02  0.42685601654E+02 -0.48670611565E+02  0.67675852726E+02  0.00000000000E+00 0.  1.
         11    1    4    4    0    0 -0.16228500710E+02 -0.27504598677E+01  0.35633799892E+02  0.39251712823E+02  0.00000000000E+00 0. -1.
</event>
<event>
 8    1  0.7136454E-009  0.1837866E+03  0.7561462E-02  0.1164188E+00
          2   -1    0    0  501    0  0.00000000000E+00  0.00000000000E+00  0.47579430435E+03  0.47579430435E+03  0.00000000000E+00 0.  1.
         -2   -1    0    0    0  501 -0.00000000000E+00 -0.00000000000E+00 -0.86353238637E+02  0.86353238637E+02  0.00000000000E+00 0. -1.
         25    2    1    2    0    0  0.45356965115E+02 -0.16154547221E+03  0.26527901986E+03  0.33789620194E+03  0.12508673403E+03 0.  0.
         23    2    1    2    0    0 -0.45356965115E+02  0.16154547221E+03  0.12416204586E+03  0.22425134105E+03  0.81964970915E+02 0.  0.
          5    1    3    3  502    0 -0.33761204303E+02 -0.74378209169E+02  0.16097046864E+03  0.18055719617E+03  0.41800000000E+01 0.  1.
         -5    1    3    3    0  502  0.79118169418E+02 -0.87167263039E+02  0.10430855122E+03  0.15733900577E+03  0.41800000000E+01 0.  1.
        -11    1    4    4    0    0 -0.24817530566E+02  0.73323135938E+02  0.92944020424E+01  0.77965235820E+02  0.00000000000E+00 0.  1.
         11    1    4    4    0    0 -0.20539434549E+02  0.88222336271E+02  0.11486764381E+03  0.14628610523E+03  0.00000000000E+00 0. -1.
</event>
<event>
 8    1  0.7136454E-009  0.9054119E+02  0.7561462E-02  0.1301546E+00
          3   -1    0    0  501    0  0.00000000000E+00  0.00000000000E+00  0.69649594111E+02  0.69649594111E+02  0.00000000000E+00 0. -1.
         -3   -1    0    0    0  501 -0.00000000000E+00 -0.00000000000E+00 -0.23332987928E+03  0.23332987928E+03  0.00000000000E+00 0.  1.
         25    2    1    2    0    0  0.45393042577E+02  0.51453578607E+02 -0.95096643120E+02  0.17145854844E+03  0.12508662293E+03 0.  0.
         23    2    1    2    0    0 -0.45393042577E+02 -0.51453578607E+02 -0.68583642050E+02  0.13152092495E+03  0.88803370865E+02 0.  0.
          5    1    3    3  502    0 -0.97583408532E+01 -0.36103461536E+01  0.25473866900E+02  0.27832536902E+02  0.41800000000E+01 0. -1.
         -5    1    3    3    0  502  0.55151383431E+02  0.55063924761E+02 -0.12057051002E+03  0.14362601154E+03  0.41800000000E+01 0. -1.
        -11    1    4    4    0    0  0.14518075371E+02 -0.31280166371E+01 -0.50245703010E+02  0.52394557652E+02  0.00000000000E+00 0.  1.
         11    1    4    4    0    0 -0.59911117949E+02 -0.48325561970E+02 -0.18337939040E+02  0.79126367298E+02  0.00000000000E+00 0. -1.
</event>
<event>
 8    1  0.7136454E-009  0.1063105E+03  0.7561462E-02  0.1267559E+00
          2   -1    0    0  501    0  0.00000000000E+00  0.00000000000E+00  0.55503766629E+03  0.55503766629E+03  0.00000000000E+00 0. -1.
         -2   -1    0    0    0  501 -0.00000000000E+00 -0.00000000000E+00 -0.26884429252E+02  0.26884429252E+02  0.00000000000E+00 0.  1.
         25    2    1    2    0    0 -0.43528161378E+02  0.27856057014E+02  0.24229596865E+03  0.27753391015E+03  0.12508826529E+03 0.  0.
         23    2    1    2    0    0  0.43528161378E+02 -0.27856057014E+02  0.28585726839E+03  0.30438818539E+03  0.90923752506E+02 0.  0.
          5    1    3    3  502    0 -0.32114264240E+02  0.77113130296E+02  0.16648193495E+03  0.18631013900E+03  0.41800000000E+01 0. -1.
         -5    1    3    3    0  502 -0.11413897138E+02 -0.49257073282E+02  0.75814033703E+02  0.91223771148E+02  0.41800000000E+01 0. -1.
        -11    1    4    4    0    0  0.14329836339E+02 -0.43022669241E+02  0.25591351511E+03  0.25990002211E+03  0.00000000000E+00 0. -1.
         11    1    4    4    0    0  0.29198325039E+02  0.15166612227E+02  0.29943753281E+02  0.44488163281E+02  0.00000000000E+00 0.  1.
</event>
<event>
 8    1  0.7136454E-009  0.1971887E+03  0.7561462E-02  0.1152133E+00
          1   -1    0    0  501    0  0.00000000000E+00  0.00000000000E+00  0.83277792557E+03  0.83277792557E+03  0.00000000000E+00 0. -1.
         -1   -1    0    0    0  501 -0.00000000000E+00 -0.00000000000E+00 -0.51663764983E+02  0.51663764983E+02  0.00000000000E+00 0.  1.
         25    2    1    2    0    0  0.16302476598E+03  0.71905437078E+02  0.36180708507E+03  0.42227273022E+03  0.12514961316E+03 0.  0.
         23    2    1    2    0    0 -0.16302476598E+03 -0.71905437078E+02  0.41930707552E+03  0.46216896034E+03  0.77680487351E+02 0.  0.
          5    1    3    3  502    0  0.10295202767E+03 -0.21037530279E+02  0.14899753120E+03  0.18237169294E+03  0.41800000000E+01 0. -1.
         -5    1    3    3    0  502  0.60072738314E+02  0.92942967357E+02  0.21280955387E+03  0.23990103728E+03  0.41800000000E+01 0. -1.
        -11    1    4    4    0    0 -0.10197750880E+03 -0.50332354896E+02  0.16955618757E+03  0.20416184510E+03  0.00000000000E+00 0.  1.
         11    1    4    4    0    0 -0.61047257185E+02 -0.21573082182E+02  0.24975088795E+03  0.25800711524E+03  0.00000000000E+00 0. -1.
</event>
<event>
 8    1  0.7136454E-009  0.1880049E+03  0.7561462E-02  0.1160273E+00
         -2   -1    0    0    0  501 -0.00000000000E+00  0.00000000000E+00  0.72948576751E+03  0.72948576751E+03  0.00000000000E+00 0.  1.
          2   -1    0    0  501    0  0.00000000000E+00 -0.00000000000E+00 -0.60977809655E+02  0.60977809655E+02  0.00000000000E+00 0. -1.
         25    2    1    2    0    0  0.15168004444E+03  0.91206202242E+02  0.28331446755E+03  0.35670418231E+03  0.12508148921E+03 0.  0.
         23    2    1    2    0    0 -0.15168004444E+03 -0.91206202242E+02  0.38519349030E+03  0.43375939485E+03  0.91911807964E+02 0.  0.
          5    1    3    3  502    0  0.38021674885E+02 -0.10428863460E+02  0.14661832435E+03  0.15188421376E+03  0.41800000000E+01 0.  1.
         -5    1    3    3    0  502  0.11365836956E+03  0.10163506570E+03  0.13669614320E+03  0.20481996855E+03  0.41800000000E+01 0.  1.
        -11    1    4    4    0    0 -0.81317977497E+02 -0.20029955994E+02  0.94250922760E+02  0.12608350028E+03  0.00000000000E+00 0. -1.
         11    1    4    4    0    0 -0.70362066945E+02 -0.71176246248E+02  0.29094256754E+03  0.30767589457E+03  0.00000000000E+00 0.  1.
</event>
<event>
 8    1  0.7136454E-009  0.4365908E+03  0.7561462E-02  0.1031798E+00
         -2   -1    0    0    0  501 -0.00000000000E+00  0.00000000000E+00  0.72555235972E+02  0.72555235972E+02  0.00000000000E+00 0.  1.
          2   -1    0    0  501    0  0.00000000000E+00 -0.00000000000E+00 -0.33701475892E+04  0.33701475892E+04  0.00000000000E+00 0. -1.
         25    2    1    2    0    0  0.28796562046E+02 -0.42811351132E+03 -0.89503070561E+03  0.10004189234E+04  0.12509051790E+03 0.  0.
         23    2    1    2    0    0 -0.28796562046E+02  0.42811351132E+03 -0.24025616476E+04  0.24422839018E+04  0.91311367779E+02 0.  0.
          5    1    3    3  502    0  0.69562123894E+02 -0.33438165230E+03 -0.63593708908E+03  0.72186108923E+03  0.41800000000E+01 0.  1.
         -5    1    3    3    0  502 -0.40765561848E+02 -0.93731859024E+02 -0.25909361653E+03  0.27855783413E+03  0.41800000000E+01 0.  1.
        -11    1    4    4    0    0 -0.87239053132E+01  0.57273098822E+02 -0.18563381489E+03  0.19446394937E+03  0.00000000000E+00 0.  1.
         11    1    4    4    0    0 -0.20072656733E+02  0.37084041250E+03 -0.22169278327E+04  0.22478199524E+04  0.00000000000E+00 0. -1.
</event>
<event>
 8    1  0.7136454E-009  0.1068415E+03  0.7561462E-02  0.1266533E+00
          2   -1    0    0  501    0  0.00000000000E+00  0.00000000000E+00  0.33256759953E+03  0.33256759953E+03  0.00000000000E+00 0. -1.
         -2   -1    0    0    0  501 -0.00000000000E+00 -0.00000000000E+00 -0.52415926448E+02  0.52415926448E+02  0.00000000000E+00 0.  1.
         25    2    1    2    0    0 -0.37324241554E+02  0.38226501943E+02  0.77387208618E+02  0.15649557367E+03  0.12509084723E+03 0.  0.
         23    2    1    2    0    0  0.37324241554E+02 -0.38226501943E+02  0.20276446447E+03  0.22848795232E+03  0.90768672154E+02 0.  0.
          5    1    3    3  502    0  0.34274335932E+02  0.41767949521E+00  0.66182098249E+02  0.74648825097E+02  0.41800000000E+01 0.  1.
         -5    1    3    3    0  502 -0.71598577485E+02  0.37808822448E+02  0.11205110369E+02  0.81846748568E+02  0.41800000000E+01 0.  1.
        -11    1    4    4    0    0 -0.11678448609E+02 -0.46882113569E+02  0.14173141041E+03  0.14974014635E+03  0.00000000000E+00 0. -1.
         11    1    4    4    0    0  0.49002690162E+02  0.86556116252E+01  0.61033054063E+02  0.78747805963E+02  0.00000000000E+00 0.  1.
</event>
<event>
 8    1  0.7136454E-009  0.2215309E+03  0.7561462E-02  0.1132747E+00
          2   -1    0    0  501    0  0.00000000000E+00  0.00000000000E+00  0.86141657467E+02  0.86141657467E+02  0.00000000000E+00 0. -1.
         -2   -1    0    0    0  501 -0.00000000000E+00 -0.00000000000E+00 -0.85670221686E+03  0.85670221686E+03  0.00000000000E+00 0.  1.
         25    2    1    2    0    0 -0.46743201211E+02  0.19866519368E+03 -0.14974979336E+03  0.28235629256E+03  0.12508912541E+03 0.  0.
         23    2    1    2    0    0  0.46743201211E+02 -0.19866519368E+03 -0.62081076604E+03  0.66048758177E+03  0.95838679048E+02 0.  0.
          5    1    3    3  502    0  0.21678787756E+02 -0.21937536508E+01  0.71232988142E+00  0.22198247848E+02  0.41800000000E+01 0. -1.
         -5    1    3    3    0  502 -0.68421988967E+02  0.20085894733E+03 -0.15046212324E+03  0.26015804471E+03  0.41800000000E+01 0. -1.
        -11    1    4    4    0    0  0.20549183844E+02 -0.22233973135E+02 -0.27341856598E+02  0.40794554052E+02  0.00000000000E+00 0. -1.
         11    1    4    4    0    0  0.26194017367E+02 -0.17643122055E+03 -0.59346890944E+03  0.61969302772E+03  0.00000000000E+00 0.  1.
</event>
<event>
 8    1  0.7136454E-009  0.8523059E+02  0.7561462E-02  0.1314831E+00
          1   -1    0    0  501    0  0.00000000000E+00  0.00000000000E+00  0.14118240300E+03  0.14118240300E+03  0.00000000000E+00 0. -1.
         -1   -1    0    0    0  501 -0.00000000000E+00 -0.00000000000E+00 -0.95478958795E+02  0.95478958795E+02  0.00000000000E+00 0.  1.
         25    2    1    2    0    0  0.28153230290E+02  0.29155246664E+02  0.10561470296E+02  0.13191600696E+03  0.12509058899E+03 0.  0.
         23    2    1    2    0    0 -0.28153230290E+02 -0.29155246664E+02  0.35141973908E+02  0.10474535484E+03  0.89966650743E+02 0.  0.
          5    1    3    3  502    0  0.27247513008E+02 -0.43077846378E+02  0.26825293418E+02  0.57751160860E+02  0.41800000000E+01 0. -1.
         -5    1    3    3    0  502  0.90571728116E+00  0.72233093042E+02 -0.16263823121E+02  0.74164846098E+02  0.41800000000E+01 0. -1.
        -11    1    4    4    0    0 -0.21972137702E+02 -0.56955690736E+01 -0.28617487659E+02  0.36526359553E+02  0.00000000000E+00 0.  1.
         11    1    4    4    0    0 -0.61810925876E+01 -0.23459677590E+02  0.63759461567E+02  0.68218995283E+02  0.00000000000E+00 0. -1.
</event>
<event>
 8    1  0.7136454E-009  0.9218254E+02  0.7561462E-02  0.1297651E+00
          2   -1    0    0  501    0  0.00000000000E+00  0.00000000000E+00  0.50446092317E+03  0.50446092317E+03  0.00000000000E+00 0. -1.
         -2   -1    0    0    0  501 -0.00000000000E+00 -0.00000000000E+00 -0.33642642433E+02  0.33642642433E+02  0.00000000000E+00 0.  1.
         25    2    1    2    0    0 -0.22809069933E+02  0.66280942450E+02  0.30056672741E+03  0.33301889632E+03  0.12509120944E+03 0.  0.
         23    2    1    2    0    0  0.22809069933E+02 -0.66280942450E+02  0.17025155332E+03  0.20508466928E+03  0.90336665648E+02 0.  0.
          5    1    3    3  502    0 -0.46749307536E+02  0.67338218033E+02  0.29736274217E+03  0.30848339695E+03  0.41800000000E+01 0.  1.
         -5    1    3    3    0  502  0.23940237603E+02 -0.10572755822E+01  0.32039852438E+01  0.24535499375E+02  0.41800000000E+01 0.  1.
        -11    1    4    4    0    0 -0.20665962014E+01 -0.45492736794E+02  0.17267420474E+02  0.48703426273E+02  0.00000000000E+00 0.  1.
         11    1    4    4    0    0  0.24875666134E+02 -0.20788205656E+02  0.15298413285E+03  0.15638124301E+03  0.00000000000E+00 0. -1.
</event>
<event>
 8    1  0.7136454E-009  0.9807585E+02  0.7561462E-02  0.1284395E+00
          2   -1    0    0  501    0  0.00000000000E+00  0.00000000000E+00  0.10255062473E+03  0.10255062473E+03  0.00000000000E+00 0. -1.
         -2   -1    0    0    0  501 -0.00000000000E+00 -0.00000000000E+00 -0.18441038012E+03  0.18441038012E+03  0.00000000000E+00 0.  1.
         25    2    1    2    0    0  0.38036351476E+02 -0.71897075897E+02 -0.74143819987E+02  0.16661573652E+03  0.12509014373E+03 0.  0.
         23    2    1    2    0    0 -0.38036351476E+02  0.71897075897E+02 -0.77159353970E+01  0.12034526833E+03  0.88360027134E+02 0.  0.
          5    1    3    3  502    0  0.31649604623E+02 -0.78512171311E+02  0.68160972522E+01  0.85028172382E+02  0.41800000000E+01 0.  1.
         -5    1    3    3    0  502  0.63867468531E+01  0.66150954144E+01 -0.80959917240E+02  0.81587564139E+02  0.41800000000E+01 0.  1.
        -11    1    4    4    0    0 -0.50252451770E+02  0.32011784935E+02 -0.36307392055E+02  0.69773132376E+02  0.00000000000E+00 0.  1.
         11    1    4    4    0    0  0.12216100295E+02  0.39885290962E+02  0.28591456658E+02  0.50572135958E+02  0.00000000000E+00 0. -1.
</event>
<event>
 8    1  0.7136454E-009  0.8641355E+02  0.7561462E-02  0.1311777E+00
          1   -1    0    0  501    0  0.00000000000E+00  0.00000000000E+00  0.44227707632E+03  0.44227707632E+03  0.00000000000E+00 0. -1.
         -1   -1    0    0    0  501 -0.00000000000E+00 -0.00000000000E+00 -0.32615084550E+02  0.32615084550E+02  0.00000000000E+00 0.  1.
         25    2    1    2    0    0 -0.39183599645E+01  0.46497573477E+02  0.27267460172E+03  0.30359666996E+03  0.12506846806E+03 0.  0.
         23    2    1    2    0    0  0.39183599645E+01 -0.46497573477E+02  0.13698739005E+03  0.17129549091E+03  0.91647271043E+02 0.  0.
          5    1    3    3  502    0 -0.28158022124E+02 -0.16124480806E+02  0.12761576580E+02  0.35116994860E+02  0.41800000000E+01 0. -1.
         -5    1    3    3    0  502  0.24239662160E+02  0.62622054283E+02  0.25991302514E+03  0.26847967510E+03  0.41800000000E+01 0. -1.
        -11    1    4    4    0    0 -0.24674513752E+02 -0.33021153604E+02  0.13323243546E+03  0.13946365144E+03  0.00000000000E+00 0. -1.
         11    1    4    4    0    0  0.28592873717E+02 -0.13476419873E+02  0.37549545876E+01  0.31831839468E+02  0.00000000000E+00 0.  1.
</event>
<event>
 8    1  0.7136454E-009  0.2688785E+03  0.7561462E-02  0.1101923E+00
          2   -1    0    0  501    0  0.00000000000E+00  0.00000000000E+00  0.10040474694E+04  0.10040474694E+04  0.00000000000E+00 0. -1.
         -2   -1    0    0    0  501 -0.00000000000E+00 -0.00000000000E+00 -0.73593709577E+02  0.73593709577E+02  0.00000000000E+00 0.  1.
         25    2    1    2    0    0  0.19409593363E+03 -0.15535868565E+03  0.45140567141E+03  0.53030616250E+03  0.12509193876E+03 0.  0.
         23    2    1    2    0    0 -0.19409593363E+03  0.15535868565E+03  0.47904808841E+03  0.54733501647E+03  0.90988991587E+02 0.  0.
          5    1    3    3  502    0  0.20571915992E+03 -0.12350813873E+03  0.35935162371E+03  0.43211768646E+03  0.41800000000E+01 0. -1.
         -5    1    3    3    0  502 -0.11623226285E+02 -0.31850546919E+02  0.92054047696E+02  0.98188476032E+02  0.41800000000E+01 0. -1.
        -11    1    4    4    0    0 -0.46603972816E+01  0.43225796299E+02  0.99193461160E+02  0.10830296167E+03  0.00000000000E+00 0. -1.
         11    1    4    4    0    0 -0.18943553635E+03  0.11213288935E+03  0.37985462725E+03  0.43903205481E+03  0.00000000000E+00 0.  1.
</event>
<event>
 8    1  0.7136454E-009  0.1745695E+03  0.7561462E-02  0.1173165E+00
          1   -1    0    0  501    0  0.00000000000E+00  0.00000000000E+00  0.17211257427E+04  0.17211257427E+04  0.00000000000E+00 0.  1.
         -1   -1    0    0    0  501 -0.00000000000E+00 -0.00000000000E+00 -0.21039802619E+02  0.21039802619E+02  0.00000000000E+00 0. -1.
         25    2    1    2    0    0  0.91348075102E+02  0.12832696244E+03  0.92204657534E+03  0.94373396985E+03  0.12510650917E+03 0.  0.
         23    2    1    2    0    0 -0.91348075102E+02 -0.12832696244E+03  0.77803936474E+03  0.79843157547E+03  0.85647227091E+02 0.  0.
          5    1    3    3  502    0  0.42089970127E+02  0.11871086319E+03  0.40286517235E+03  0.42211568807E+03  0.41800000000E+01 0.  1.
         -5    1    3    3    0  502  0.49258104975E+02  0.96160992456E+01  0.51918140299E+03  0.52161828178E+03  0.41800000000E+01 0.  1.
        -11    1    4    4    0    0 -0.10348602841E+03 -0.11612213899E+03  0.74618281685E+03  0.76222208404E+03  0.00000000000E+00 0.  1.
         11    1    4    4    0    0  0.12137953310E+02 -0.12204823448E+02  0.31856547893E+02  0.36209491430E+02  0.00000000000E+00 0. -1.
</event>
<event>
 8    1  0.7136454E-009  0.1505548E+03  0.7561462E-02  0.1199793E+00
         -1   -1    0    0    0  501 -0.00000000000E+00  0.00000000000E+00  0.38224540417E+02  0.38224540417E+02  0.00000000000E+00 0.  1.
          1   -1    0    0  501    0  0.00000000000E+00 -0.00000000000E+00 -0.84970499631E+03  0.84970499631E+03  0.00000000000E+00 0. -1.
         25    2    1    2    0    0  0.35245330794E+02  0.13875442208E+03 -0.40850775787E+03  0.45057816070E+03  0.12508823953E+03 0.  0.
         23    2    1    2    0    0 -0.35245330794E+02 -0.13875442208E+03 -0.40297269802E+03  0.43735137602E+03  0.91619909242E+02 0.  0.
          5    1    3    3  502    0  0.28092457268E+02  0.37046275899E+02 -0.29196701465E+03  0.29567519807E+03  0.41800000000E+01 0.  1.
         -5    1    3    3    0  502  0.71528735264E+01  0.10170814618E+03 -0.11654074322E+03  0.15490296263E+03  0.41800000000E+01 0.  1.
        -11    1    4    4    0    0 -0.37132415966E+02 -0.43846468137E+02 -0.25614485493E+03  0.26251002989E+03  0.00000000000E+00 0. -1.
         11    1    4    4    0    0  0.18870851714E+01 -0.94907953946E+02 -0.14682784309E+03  0.17484134614E+03  0.00000000000E+00 0.  1.
</event>
<event>
 8    1  0.7136454E-009  0.1189605E+03  0.7561462E-02  0.1244822E+00
         -4   -1    0    0    0  501 -0.00000000000E+00  0.00000000000E+00  0.99399532420E+03  0.99399532420E+03  0.00000000000E+00 0.  1.
          4   -1    0    0  501    0  0.00000000000E+00 -0.00000000000E+00 -0.15189844713E+02  0.15189844713E+02  0.00000000000E+00 0. -1.
         25    2    1    2    0    0  0.24424206395E+02  0.47525111405E+02  0.63936509465E+03  0.65367448006E+03  0.12508966203E+03 0.  0.
         23    2    1    2    0    0 -0.24424206395E+02 -0.47525111405E+02  0.33944038484E+03  0.35551068885E+03  0.91175089581E+02 0.  0.
          5    1    3    3  502    0  0.69622297957E+02  0.41362031778E+00  0.36635961399E+03  0.37294004158E+03  0.41800000000E+01 0.  1.
         -5    1    3    3    0  502 -0.45198091562E+02  0.47111491088E+02  0.27300548066E+03  0.28073443847E+03  0.41800000000E+01 0.  1.
        -11    1    4    4    0    0  0.12259155891E+02  0.21405730122E+02  0.50459974190E+02  0.56166726632E+02  0.00000000000E+00 0. -1.
         11    1    4    4    0    0 -0.36683362287E+02 -0.68930841528E+02  0.28898041065E+03  0.29934396222E+03  0.00000000000E+00 0.  1.
</event>
<event>
 8    1  0.7136454E-009  0.1234191E+03  0.7561462E-02  0.1237561E+00
          1   -1    0    0  501    0  0.00000000000E+00  0.00000000000E+00  0.14875818408E+03  0.14875818408E+03  0.00000000000E+00 0. -1.
         -1   -1    0    0    0  501 -0.00000000000E+00 -0.00000000000E+00 -0.14486958409E+03  0.14486958409E+03  0.00000000000E+00 0.  1.
         25    2    1    2    0    0  0.37652322415E+02 -0.74634916458E+02 -0.51096204039E+02  0.15889263052E+03  0.12509187755E+03 0.  0.
         23    2    1    2    0    0 -0.37652322415E+02  0.74634916458E+02  0.54984804036E+02  0.13473513765E+03  0.90233921027E+02 0.  0.
          5    1    3    3  502    0 -0.26998325302E+02 -0.47764849096E+02 -0.67276403570E+02  0.86913619506E+02  0.41800000000E+01 0. -1.
         -5    1    3    3    0  502  0.64650647716E+02 -0.26870067361E+02  0.16180199531E+02  0.71979011017E+02  0.41800000000E+01 0. -1.
        -11    1    4    4    0    0  0.23726506134E+02  0.50362186665E+02  0.35051768942E+02  0.65786954976E+02  0.00000000000E+00 0. -1.
         11    1    4    4    0    0 -0.61378828548E+02  0.24272729793E+02  0.19933035094E+02  0.68948182671E+02  0.00000000000E+00 0.  1.
</event>
<event>
 8    1  0.7136454E-009  0.1141484E+03  0.7561462E-02  0.1253075E+00
          1   -1    0    0  501    0  0.00000000000E+00  0.00000000000E+00  0.16551647578E+03  0.16551647578E+03  0.00000000000E+00 0. -1.
         -1   -1    0    0    0  501 -0.00000000000E+00 -0.00000000000E+00 -0.87753348930E+02  0.87753348930E+02  0.00000000000E+00 0.  1.
         25    2    1    2    0    0  0.36640673433E+02 -0.73332145049E+01  0.45545792273E+01  0.13063120402E+03  0.12508977690E+03 0.  0.
         23    2    1    2    0    0 -0.36640673433E+02  0.73332145049E+01  0.73208547627E+02  0.12263862070E+03  0.91018815948E+02 0.  0.
          5    1    3    3  502    0 -0.43864512579E+02  0.15509787475E+02 -0.11966736198E+00  0.46713335265E+02  0.41800000000E+01 0. -1.
         -5    1    3    3    0  502  0.80505186012E+02 -0.22843001980E+02  0.46742465893E+01  0.83917868750E+02  0.41800000000E+01 0. -1.
        -11    1    4    4    0    0  0.28076784944E+02  0.16292319960E+02  0.18103682625E+02  0.37168385316E+02  0.00000000000E+00 0.  1.
         11    1    4    4    0    0 -0.64717458377E+02 -0.89591054548E+01  0.55104865003E+02  0.85470235382E+02  0.00000000000E+00 0. -1.
</event>
<event>
 8    1  0.7136454E-009  0.2390618E+03  0.7561462E-02  0.1120419E+00
          2   -1    0    0  501    0  0.00000000000E+00  0.00000000000E+00  0.16903490477E+04  0.16903490477E+04  0.00000000000E+00 0. -1.
         -2   -1    0    0    0  501 -0.00000000000E+00 -0.00000000000E+00 -0.46345849702E+02  0.46345849702E+02  0.00000000000E+00 0.  1.
         25    2    1    2    0    0  0.16109531894E+02  0.22952792256E+03  0.12013598649E+04  0.12295753289E+04  0.12508948840E+03 0.  0.
         23    2    1    2    0    0 -0.16109531894E+02 -0.22952792256E+03  0.44264333307E+03  0.50711956851E+03  0.91074432222E+02 0.  0.
          5    1    3    3  502    0  0.44523336585E+02  0.13390021587E+03  0.45036803318E+03  0.47197503432E+03  0.41800000000E+01 0. -1.
         -5    1    3    3    0  502 -0.28413804691E+02  0.95627706683E+02  0.75099183175E+03  0.75760029457E+03  0.41800000000E+01 0. -1.
        -11    1    4    4    0    0 -0.24011844129E+02 -0.35156220215E+02  0.33816133318E+02  0.54369654688E+02  0.00000000000E+00 0.  1.
         11    1    4    4    0    0  0.79023122349E+01 -0.19437170234E+03  0.40882719976E+03  0.45274991383E+03  0.00000000000E+00 0. -1.
</event>
<event>
 8    1  0.7136454E-009  0.1012243E+03  0.7561462E-02  0.1277742E+00
         -2   -1    0    0    0  501 -0.00000000000E+00  0.00000000000E+00  0.47045520432E+02  0.47045520432E+02  0.00000000000E+00 0.  1.
          2   -1    0    0  501    0  0.00000000000E+00 -0.00000000000E+00 -0.31693600964E+03  0.31693600964E+03  0.00000000000E+00 0. -1.
         25    2    1    2    0    0  0.56271100320E+02  0.23569047728E+01 -0.84139758592E+02  0.16092620526E+03  0.12508298378E+03 0.  0.
         23    2    1    2    0    0 -0.56271100320E+02 -0.23569047728E+01 -0.18575073062E+03  0.20305532481E+03  0.59633373868E+02 0.  0.
          5    1    3    3  502    0 -0.78225180095E+01  0.52021697497E+02 -0.16618780178E+02  0.55327254162E+02  0.41800000000E+01 0.  1.
         -5    1    3    3    0  502  0.64093618329E+02 -0.49664792724E+02 -0.67520978414E+02  0.10559895110E+03  0.41800000000E+01 0.  1.
        -11    1    4    4    0    0 -0.30001899937E+02 -0.20695750782E+02 -0.41248403854E+02  0.55044154284E+02  0.00000000000E+00 0.  1.
         11    1    4    4    0    0 -0.26269200382E+02  0.18338846009E+02 -0.14450232676E+03  0.14801117053E+03  0.00000000000E+00 0. -1.
</event>
<event>
 8    1  0.7136454E-009  0.1615964E+03  0.7561462E-02  0.1186906E+00
          2   -1    0    0  501    0  0.00000000000E+00  0.00000000000E+00  0.60636874723E+03  0.60636874723E+03  0.00000000000E+00 0. -1.
         -2   -1    0    0    0  501 -0.00000000000E+00 -0.00000000000E+00 -0.51812069120E+02  0.51812069120E+02  0.00000000000E+00 0.  1.
         25    2    1    2    0    0 -0.61566000506E+02  0.12155190940E+03  0.35779867375E+03  0.40277788288E+03  0.12507954628E+03 0.  0.
         23    2    1    2    0    0  0.61566000506E+02 -0.12155190940E+03  0.19675800436E+03  0.25540293347E+03  0.89172344643E+02 0.  0.
          5    1    3    3  502    0  0.74675760376E+01 -0.10023470820E+02  0.13066655555E+03  0.13132956940E+03  0.41800000000E+01 0. -1.
         -5    1    3    3    0  502 -0.69033576544E+02  0.13157538022E+03  0.22713211820E+03  0.27144831348E+03  0.41800000000E+01 0. -1.
        -11    1    4    4    0    0  0.80858758701E+02 -0.11580007623E+03  0.15943111880E+03  0.21299314110E+03  0.00000000000E+00 0.  1.
         11    1    4    4    0    0 -0.19292758195E+02 -0.57518331745E+01  0.37326885559E+02  0.42409792374E+02  0.00000000000E+00 0. -1.
</event>
<event>
 8    1  0.7136454E-009  0.1178002E+03  0.7561462E-02  0.1246771E+00
          4   -1    0    0  501    0  0.00000000000E+00  0.00000000000E+00  0.18570887684E+03  0.18570887684E+03  0.00000000000E+00 0. -1.
         -4   -1    0    0    0  501 -0.00000000000E+00 -0.00000000000E+00 -0.11223140915E+03  0.11223140915E+03  0.00000000000E+00 0.  1.
         25    2    1    2    0    0  0.71180168250E+02 -0.27572867073E+02 -0.18099030490E+02  0.14765245594E+03  0.12508714358E+03 0.  0.
         23    2    1    2    0    0 -0.71180168250E+02  0.27572867073E+02  0.91576498179E+02  0.15028783005E+03  0.91505723814E+02 0.  0.
          5    1    3    3  502    0  0.89473444262E+02  0.10801423158E+02 -0.41096022731E+02  0.99138909892E+02  0.41800000000E+01 0.  1.
         -5    1    3    3    0  502 -0.18293276012E+02 -0.38374290231E+02  0.22996992241E+02  0.48513546048E+02  0.41800000000E+01 0.  1.
        -11    1    4    4    0    0 -0.21654426536E+02 -0.23200655560E+02 -0.32142101633E+01  0.31898522756E+02  0.00000000000E+00 0.  1.
         11    1    4    4    0    0 -0.49525741714E+02  0.50773522633E+02  0.94790708343E+02  0.11838930729E+03  0.00000000000E+00 0. -1.
</event>
<event>
 8    1  0.7136454E-009  0.1118006E+03  0.7561462E-02  0.1257271E+00
          1   -1    0    0  501    0  0.00000000000E+00  0.00000000000E+00  0.98006151130E+03  0.98006151130E+03  0.00000000000E+00 0. -1.
         -1   -1    0    0    0  501 -0.00000000000E+00 -0.00000000000E+00 -0.19270002128E+02  0.19270002128E+02  0.00000000000E+00 0.  1.
         25    2    1    2    0    0  0.61227896584E+02  0.34271881420E+02  0.35234824810E+03  0.38042130538E+03  0.12509062504E+03 0.  0.
         23    2    1    2    0    0 -0.61227896584E+02 -0.34271881420E+02  0.60844326107E+03  0.61891020805E+03  0.89012507569E+02 0.  0.
          5    1    3    3  502    0  0.54431147300E+01 -0.26787295114E+02  0.12000889421E+02  0.30144326570E+02  0.41800000000E+01 0.  1.
         -5    1    3    3    0  502  0.55784781854E+02  0.61059176534E+02  0.34034735868E+03  0.35027697881E+03  0.41800000000E+01 0.  1.
        -11    1    4    4    0    0  0.71940641911E+01  0.22881588286E+02  0.14485375464E+03  0.14682619615E+03  0.00000000000E+00 0.  1.
         11    1    4    4    0    0 -0.68421960775E+02 -0.57153469706E+02  0.46358950643E+03  0.47208401190E+03  0.00000000000E+00 0. -1.
</event>
<event>
 8    1  0.7136454E-009  0.1172707E+03  0.7561462E-02  0.1247669E+00
         -1   -1    0    0    0  501 -0.00000000000E+00  0.00000000000E+00  0.44146211120E+03  0.44146211120E+03  0.00000000000E+00 0.  1.
          1   -1    0    0  501    0  0.00000000000E+00 -0.00000000000E+00 -0.54449062484E+02  0.54449062484E+02  0.00000000000E+00 0. -1.
         25    2    1    2    0    0 -0.22834290002E+02 -0.71131972880E+02  0.79504948808E+02  0.16597706176E+03  0.12508471442E+03 0.  0.
         23    2    1    2    0    0  0.22834290002E+02  0.71131972880E+02  0.30750809991E+03  0.32993411192E+03  0.93349474198E+02 0.  0.
          5    1    3    3  502    0  0.13778952283E+02 -0.76948130624E+02  0.14335267004E+00  0.78283889036E+02  0.41800000000E+01 0. -1.
         -5    1    3    3    0  502 -0.36613242285E+02  0.58161577444E+01  0.79361596137E+02  0.87693172728E+02  0.41800000000E+01 0. -1.
        -11    1    4    4    0    0  0.17640898156E+02 -0.20571732104E+02  0.56893783090E+02  0.63018251355E+02  0.00000000000E+00 0. -1.
         11    1    4    4    0    0  0.51933918457E+01  0.91703704984E+02  0.25061431682E+03  0.26691586056E+03  0.00000000000E+00 0.  1.
</event>
<event>
 8    1  0.7136454E-009  0.1781875E+03  0.7561462E-02  0.1169569E+00
         -1   -1    0    0    0  501 -0.00000000000E+00  0.00000000000E+00  0.86806665288E+02  0.86806665288E+02  0.00000000000E+00 0.  1.
          1   -1    0    0  501    0  0.00000000000E+00 -0.00000000000E+00 -0.45243289194E+03  0.45243289194E+03  0.00000000000E+00 0. -1.
         25    2    1    2    0    0 -0.77793955813E+02  0.13540382661E+03 -0.11624744560E+03  0.23140290330E+03  0.12509092383E+03 0.  0.
         23    2    1    2    0    0  0.77793955813E+02 -0.13540382661E+03 -0.24937878105E+03  0.30783665393E+03  0.90484989057E+02 0.  0.
          5    1    3    3  502    0 -0.11204956590E+03  0.95107203424E+02 -0.85393357388E+02  0.17002935996E+03  0.41800000000E+01 0.  1.
         -5    1    3    3    0  502  0.34255610088E+02  0.40296623181E+02 -0.30854088214E+02  0.61373543338E+02  0.41800000000E+01 0.  1.
        -11    1    4    4    0    0  0.24176750588E+02 -0.48161350736E+02 -0.16980880419E+03  0.17815459847E+03  0.00000000000E+00 0.  1.
         11    1    4    4    0    0  0.53617205225E+02 -0.87242475869E+02 -0.79569976856E+02  0.12968205546E+03  0.00000000000E+00 0. -1.
</event>
<event>
 8    1  0.7136454E-009  0.9683922E+02  0.7561462E-02  0.1287087E+00
         -2   -1    0    0    0  501 -0.00000000000E+00  0.00000000000E+00  0.36204866572E+02  0.36204866572E+02  0.00000000000E+00 0. -1.
          2   -1    0    0  501    0  0.00000000000E+00 -0.00000000000E+00 -0.66282664584E+03  0.66282664584E+03  0.00000000000E+00 0.  1.
         25    2    1    2    0    0 -0.38226664383E+02  0.78956034956E+02 -0.18256031888E+03  0.23805315106E+03  0.12508277010E+03 0.  0.
         23    2    1    2    0    0  0.38226664383E+02 -0.78956034956E+02 -0.44406146039E+03  0.46097836135E+03  0.87264744920E+02 0.  0.
          5    1    3    3  502    0 -0.16916893757E+02  0.25892361683E+02 -0.17780240721E+03  0.18052081347E+03  0.41800000000E+01 0.  1.
         -5    1    3    3    0  502 -0.21309770626E+02  0.53063673273E+02 -0.47579116763E+01  0.57532337593E+02  0.41800000000E+01 0.  1.
        -11    1    4    4    0    0  0.49421109961E+02 -0.37075229980E+02 -0.37031909469E+03  0.37543741247E+03  0.00000000000E+00 0.  1.
         11    1    4    4    0    0 -0.11194445577E+02 -0.41880804975E+02 -0.73742365694E+02  0.85540948880E+02  0.00000000000E+00 0. -1.
</event>
<event>
 8    1  0.7136454E-009  0.8840332E+02  0.7561462E-02  0.1306765E+00
         -1   -1    0    0    0  501 -0.00000000000E+00  0.00000000000E+00  0.38685001227E+03  0.38685001227E+03  0.00000000000E+00 0.  1.
          1   -1    0    0  501    0  0.00000000000E+00 -0.00000000000E+00 -0.36094263166E+02  0.36094263166E+02  0.00000000000E+00 0. -1.
         25    2    1    2    0    0  0.23488684725E+02  0.31976647300E+02  0.25635935579E+03  0.28799578538E+03  0.12508888364E+03 0.  0.
         23    2    1    2    0    0 -0.23488684725E+02 -0.31976647300E+02  0.94396393318E+02  0.13494849007E+03  0.87898757766E+02 0.  0.
          5    1    3    3  502    0  0.43978580706E+02  0.21418101821E+01  0.19475923276E+02  0.48326875538E+02  0.41800000000E+01 0. -1.
         -5    1    3    3    0  502 -0.20489895981E+02  0.29834837118E+02  0.23688343251E+03  0.23966890984E+03  0.41800000000E+01 0. -1.
        -11    1    4    4    0    0  0.32619788777E+02 -0.23758260382E+01  0.37198537059E+02  0.49532073736E+02  0.00000000000E+00 0.  1.
         11    1    4    4    0    0 -0.56108473502E+02 -0.29600821262E+02  0.57197856259E+02  0.85416416330E+02  0.00000000000E+00 0. -1.
</event>
<event>
 8    1  0.7136454E-009  0.1720544E+03  0.7561462E-02  0.1175722E+00
          1   -1    0    0  501    0  0.00000000000E+00  0.00000000000E+00  0.15758927610E+03  0.15758927610E+03  0.00000000000E+00 0. -1.
         -1   -1    0    0    0  501 -0.00000000000E+00 -0.00000000000E+00 -0.34249004517E+03  0.34249004517E+03  0.00000000000E+00 0.  1.
         25    2    1    2    0    0 -0.14409768254E+03 -0.30362627019E+02  0.58067564892E+02  0.20175469771E+03  0.12508830771E+03 0.  0.
         23    2    1    2    0    0  0.14409768254E+03  0.30362627019E+02 -0.24296833396E+03  0.29832462356E+03  0.90983176931E+02 0.  0.
          5    1    3    3  502    0 -0.12180020588E+03 -0.58236082400E+02  0.19131779163E+01  0.13508465529E+03  0.41800000000E+01 0.  1.
         -5    1    3    3    0  502 -0.22297476658E+02  0.27873455380E+02  0.56154386975E+02  0.66670042423E+02  0.41800000000E+01 0.  1.
        -11    1    4    4    0    0  0.27778857921E+02 -0.30968321716E+02 -0.57785607759E+02  0.71203078314E+02  0.00000000000E+00 0.  1.
         11    1    4    4    0    0  0.11631882461E+03  0.61330948736E+02 -0.18518272620E+03  0.22712154525E+03  0.00000000000E+00 0. -1.
</event>
<event>
 8    1  0.7136454E-009  0.3152741E+03  0.7561462E-02  0.1077845E+00
         -2   -1    0    0    0  501 -0.00000000000E+00  0.00000000000E+00  0.20791890127E+03  0.20791890127E+03  0.00000000000E+00 0.  1.
          2   -1    0    0  501    0  0.00000000000E+00 -0.00000000000E+00 -0.59630185477E+03  0.59630185477E+03  0.00000000000E+00 0. -1.
         25    2    1    2    0    0 -0.20822879424E+03  0.22314131929E+03 -0.35251178658E+03  0.48276727622E+03  0.12509358172E+03 0.  0.
         23    2    1    2    0    0  0.20822879424E+03 -0.22314131929E+03 -0.35871166919E+02  0.32145347982E+03  0.94309702290E+02 0.  0.
          5    1    3    3  502    0 -0.64084785156E+02  0.12158838932E+02 -0.31795914766E+02  0.72685278073E+02  0.41800000000E+01 0.  1.
         -5    1    3    3    0  502 -0.14414400909E+03  0.21098248036E+03 -0.32071587182E+03  0.41008199815E+03  0.41800000000E+01 0.  1.
        -11    1    4    4    0    0  0.89949550884E+02 -0.60002794471E+02 -0.50662419345E+02  0.11940660695E+03  0.00000000000E+00 0.  1.
         11    1    4    4    0    0  0.11827924336E+03 -0.16313852482E+03  0.14791252426E+02  0.20204687287E+03  0.00000000000E+00 0. -1.
</event>
<event>
 8    1  0.7136454E-009  0.9142488E+02  0.7561462E-02  0.1299437E+00
         -2   -1    0    0    0  501 -0.00000000000E+00  0.00000000000E+00  0.15602092815E+03  0.15602092815E+03  0.00000000000E+00 0.  1.
          2   -1    0    0  501    0  0.00000000000E+00 -0.00000000000E+00 -0.88343193145E+02  0.88343193145E+02  0.00000000000E+00 0. -1.
         25    2    1    2    0    0 -0.23520385384E+02  0.33788968548E+02  0.44541829756E+02  0.13901721109E+03  0.12508759914E+03 0.  0.
         23    2    1    2    0    0  0.23520385384E+02 -0.33788968548E+02  0.23135905252E+02  0.10534691020E+03  0.94168988810E+02 0.  0.
          5    1    3    3  502    0  0.31302424467E+02 -0.26233371254E+02  0.40268098598E+02  0.57506727516E+02  0.41800000000E+01 0. -1.
         -5    1    3    3    0  502 -0.54822809851E+02  0.60022339802E+02  0.42737311585E+01  0.81510483579E+02  0.41800000000E+01 0. -1.
        -11    1    4    4    0    0  0.33953059442E+02 -0.36260279855E+02  0.53583299458E+02  0.73067011171E+02  0.00000000000E+00 0.  1.
         11    1    4    4    0    0 -0.10432674059E+02  0.24713113079E+01 -0.30447394206E+02  0.32279899032E+02  0.00000000000E+00 0. -1.
</event>
<event>
 8    1  0.7136454E-009  0.9842178E+02  0.7561462E-02  0.1283650E+00
         -4   -1    0    0    0  501 -0.00000000000E+00  0.00000000000E+00  0.12807518751E+03  0.12807518751E+03  0.00000000000E+00 0.  1.
          4   -1    0    0  501    0  0.00000000000E+00 -0.00000000000E+00 -0.13143204419E+03  0.13143204419E+03  0.00000000000E+00 0. -1.
         25    2    1    2    0    0 -0.62185691654E+01 -0.67768810177E+02  0.16585458551E+02  0.14336695890E+03  0.12509086791E+03 0.  0.
         23    2    1    2    0    0  0.62185691654E+01  0.67768810177E+02 -0.19942315226E+02  0.11614027280E+03  0.91976001185E+02 0.  0.
          5    1    3    3  502    0 -0.41335466868E+02 -0.52664573347E+02 -0.37618214090E+02  0.76907610406E+02  0.41800000000E+01 0. -1.
         -5    1    3    3    0  502  0.35116897702E+02 -0.15104236831E+02  0.54203672641E+02  0.66459348494E+02  0.41800000000E+01 0. -1.
        -11    1    4    4    0    0  0.39161317442E+01  0.79377505589E+02  0.13547830171E+02  0.80620519619E+02  0.00000000000E+00 0.  1.
         11    1    4    4    0    0  0.23024374213E+01 -0.11608695412E+02 -0.33490145397E+02  0.35519753180E+02  0.00000000000E+00 0. -1.
</event>
<event>
 8    1  0.7136454E-009  0.1474906E+03  0.7561462E-02  0.1203591E+00
         -3   -1    0    0    0  501 -0.00000000000E+00  0.00000000000E+00  0.45176081406E+02  0.45176081406E+02  0.00000000000E+00 0.  1.
          3   -1    0    0  501    0  0.00000000000E+00 -0.00000000000E+00 -0.54214826033E+03  0.54214826033E+03  0.00000000000E+00 0. -1.
         25    2    1    2    0    0 -0.94544329522E+02  0.51186723465E+02 -0.32556462929E+03  0.36496385111E+03  0.12509026288E+03 0.  0.
         23    2    1    2    0    0  0.94544329522E+02 -0.51186723465E+02 -0.17140754963E+03  0.22236049063E+03  0.92222170962E+02 0.  0.
          5    1    3    3  502    0 -0.10324425580E+03  0.20162181566E+01 -0.14834227822E+03  0.18079365420E+03  0.41800000000E+01 0.  1.
         -5    1    3    3    0  502  0.86999262829E+01  0.49170505308E+02 -0.17722235107E+03  0.18417019690E+03  0.41800000000E+01 0.  1.
        -11    1    4    4    0    0  0.87054721333E+02  0.27219751192E+01 -0.10995128068E+03  0.14026837769E+03  0.00000000000E+00 0. -1.
         11    1    4    4    0    0  0.74896081887E+01 -0.53908698584E+02 -0.61456268948E+02  0.82092112939E+02  0.00000000000E+00 0.  1.
</event>
<event>
 8    1  0.7136454E-009  0.1388886E+03  0.7561462E-02  0.1214832E+00
         -4   -1    0    0    0  501 -0.00000000000E+00  0.00000000000E+00  0.10696548472E+03  0.10696548472E+03  0.00000000000E+00 0.  1.
          4   -1    0    0  501    0  0.00000000000E+00 -0.00000000000E+00 -0.22124350506E+03  0.22124350506E+03  0.00000000000E+00 0. -1.
         25    2    1    2    0    0 -0.57458350568E+01  0.10818215542E+03 -0.53846240725E+02  0.17402252651E+03  0.12509208096E+03 0.  0.
         23    2    1    2    0    0  0.57458350568E+01 -0.10818215542E+03 -0.60431779609E+02  0.15418646328E+03  0.91570039311E+02 0.  0.
          5    1    3    3  502    0  0.41478625405E+02  0.10169565056E+03 -0.60902049398E+02  0.12565434226E+03  0.41800000000E+01 0.  1.
         -5    1    3    3    0  502 -0.47224460462E+02  0.64865048603E+01  0.70558086729E+01  0.48368184246E+02  0.41800000000E+01 0.  1.
        -11    1    4    4    0    0 -0.13635930012E+02 -0.42342557428E+01  0.17679188043E+02  0.22724902615E+02  0.00000000000E+00 0.  1.
         11    1    4    4    0    0  0.19381765069E+02 -0.10394789968E+03 -0.78110967652E+02  0.13146156066E+03  0.00000000000E+00 0. -1.
</event>
<event>
 8    1  0.7136454E-009  0.1189086E+03  0.7561462E-02  0.1244909E+00
         -1   -1    0    0    0  501 -0.00000000000E+00  0.00000000000E+00  0.89672431232E+02  0.89672431232E+02  0.00000000000E+00 0.  1.
          1   -1    0    0  501    0  0.00000000000E+00 -0.00000000000E+00 -0.28963990542E+03  0.28963990542E+03  0.00000000000E+00 0. -1.
         25    2    1    2    0    0 -0.84743694346E+02 -0.23049491399E+02 -0.13031020800E+02  0.15339654020E+03  0.12509163944E+03 0.  0.
         23    2    1    2    0    0  0.84743694346E+02  0.23049491399E+02 -0.18693645339E+03  0.22591579645E+03  0.91541994169E+02 0.  0.
          5    1    3    3  502    0 -0.29906806673E+02 -0.59442563289E+02 -0.44668498485E+02  0.80253240263E+02  0.41800000000E+01 0.  1.
         -5    1    3    3    0  502 -0.54836887674E+02  0.36393071890E+02  0.31637477685E+02  0.73143299937E+02  0.41800000000E+01 0.  1.
        -11    1    4    4    0    0  0.18301122713E+02 -0.19147810133E+02 -0.40290429209E+01  0.26791844138E+02  0.00000000000E+00 0.  1.
         11    1    4    4    0    0  0.66442571634E+02  0.42197301531E+02 -0.18290741047E+03  0.19912395232E+03  0.00000000000E+00 0. -1.
</event>
<event>
 8    1  0.7136454E-009  0.2374286E+03  0.7561462E-02  0.1121518E+00
         -1   -1    0    0    0  501 -0.00000000000E+00  0.00000000000E+00  0.64673474040E+02  0.64673474040E+02  0.00000000000E+00 0.  1.
          1   -1    0    0  501    0  0.00000000000E+00 -0.00000000000E+00 -0.11443609190E+04  0.11443609190E+04  0.00000000000E+00 0. -1.
         25    2    1    2    0    0 -0.14759648656E+03  0.18395778124E+03 -0.73090507582E+03  0.77813490164E+03  0.12508599906E+03 0.  0.
         23    2    1    2    0    0  0.14759648656E+03 -0.18395778124E+03 -0.34878236917E+03  0.43089949143E+03  0.91651746012E+02 0.  0.
          5    1    3    3  502    0 -0.57438422148E+02  0.55531781897E+02 -0.44350326534E+03  0.45066125849E+03  0.41800000000E+01 0.  1.
         -5    1    3    3    0  502 -0.90158064414E+02  0.12842599935E+03 -0.28740181048E+03  0.32747364315E+03  0.41800000000E+01 0.  1.
        -11    1    4    4    0    0  0.15707465971E+02 -0.70290476117E+01  0.10933910271E+01  0.17243187104E+02  0.00000000000E+00 0.  1.
         11    1    4    4    0    0  0.13188902059E+03 -0.17692873363E+03 -0.34987576020E+03  0.41365630433E+03  0.00000000000E+00 0. -1.
</event>
<event>
 8    1  0.7136454E-009  0.8395773E+02  0.7561462E-02  0.1318181E+00
          1   -1    0    0  501    0  0.00000000000E+00  0.00000000000E+00  0.29578019913E+03  0.29578019913E+03  0.00000000000E+00 0. -1.
         -1   -1    0    0    0  501 -0.00000000000E+00 -0.00000000000E+00 -0.85346149069E+02  0.85346149069E+02  0.00000000000E+00 0.  1.
         25    2    1    2    0    0 -0.40447268106E+00  0.45789525081E+02  0.24279423513E+03  0.27693427837E+03  0.12508680873E+03 0.  0.
         23    2    1    2    0    0  0.40447268106E+00 -0.45789525081E+02 -0.32360185071E+02  0.10419206983E+03  0.87817775149E+02 0.  0.
          5    1    3    3  502    0  0.16142266312E+02  0.52356149535E+02  0.28570119306E+02  0.61931117162E+02  0.41800000000E+01 0. -1.
         -5    1    3    3    0  502 -0.16546738993E+02 -0.65666244538E+01  0.21422411582E+03  0.21500316121E+03  0.41800000000E+01 0. -1.
        -11    1    4    4    0    0  0.10551581924E+02  0.22917324572E+02 -0.22948192067E+02  0.34105119349E+02  0.00000000000E+00 0.  1.
         11    1    4    4    0    0 -0.10147109243E+02 -0.68706849653E+02 -0.94119930036E+01  0.70086950480E+02  0.00000000000E+00 0. -1.
</event>
<event>
 8    1  0.7136454E-009  0.2750188E+03  0.7561462E-02  0.1098441E+00
         -1   -1    0    0    0  501 -0.00000000000E+00  0.00000000000E+00  0.42638100520E+02  0.42638100520E+02  0.00000000000E+00 0.  1.
          1   -1    0    0  501    0  0.00000000000E+00 -0.00000000000E+00 -0.26405217145E+04  0.26405217145E+04  0.00000000000E+00 0. -1.
         25    2    1    2    0    0 -0.19957588457E+03 -0.16037218012E+03 -0.20721291758E+04  0.20916297588E+04  0.12508379985E+03 0.  0.
         23    2    1    2    0    0  0.19957588457E+03  0.16037218012E+03 -0.52575443823E+03  0.59153005623E+03  0.89108407294E+02 0.  0.
          5    1    3    3  502    0 -0.15888978945E+03 -0.58835240358E+02 -0.10410215832E+04  0.10547279079E+04  0.41800000000E+01 0. -1.
         -5    1    3    3    0  502 -0.40686095124E+02 -0.10153693976E+03 -0.10311075926E+04  0.10369018509E+04  0.41800000000E+01 0. -1.
        -11    1    4    4    0    0  0.53620182872E+02  0.99336607773E+02 -0.22017184666E+03  0.24742378163E+03  0.00000000000E+00 0.  1.
         11    1    4    4    0    0  0.14595570170E+03  0.61035572349E+02 -0.30558259157E+03  0.34410627461E+03  0.00000000000E+00 0. -1.
</event>
<event>
 8    1  0.7136454E-009  0.6767766E+02  0.7561462E-02  0.1368173E+00
         -3   -1    0    0    0  501 -0.00000000000E+00  0.00000000000E+00  0.54578288151E+02  0.54578288151E+02  0.00000000000E+00 0.  1.
          3   -1    0    0  501    0  0.00000000000E+00 -0.00000000000E+00 -0.21492793011E+03  0.21492793011E+03  0.00000000000E+00 0. -1.
         25    2    1    2    0    0 -0.17669306207E+02  0.33880203759E+02 -0.98982568944E+02  0.16403498269E+03  0.12509937651E+03 0.  0.
         23    2    1    2    0    0  0.17669306207E+02 -0.33880203759E+02 -0.61367073018E+02  0.10547123557E+03  0.76799682901E+02 0.  0.
          5    1    3    3  502    0  0.16640809328E+02 -0.14351824034E+02 -0.10219088480E+03  0.10461042360E+03  0.41800000000E+01 0.  1.
         -5    1    3    3    0  502 -0.34310115534E+02  0.48232027793E+02  0.32083158591E+01  0.59424559095E+02  0.41800000000E+01 0.  1.
        -11    1    4    4    0    0  0.29458906675E+02 -0.27212160952E+02  0.25018174601E+01  0.40181935951E+02  0.00000000000E+00 0.  1.
         11    1    4    4    0    0 -0.11789600468E+02 -0.66680428068E+01 -0.63868890478E+02  0.65289299621E+02  0.00000000000E+00 0. -1.
</event>
<event>
 8    1  0.7136454E-009  0.1008815E+03  0.7561462E-02  0.1278453E+00
         -2   -1    0    0    0  501 -0.00000000000E+00  0.00000000000E+00  0.14676405319E+03  0.14676405319E+03  0.00000000000E+00 0.  1.
          2   -1    0    0  501    0  0.00000000000E+00 -0.00000000000E+00 -0.15133180455E+03  0.15133180455E+03  0.00000000000E+00 0. -1.
         25    2    1    2    0    0  0.20464591618E+02  0.30620504301E+02  0.93059003285E+02  0.16020059162E+03  0.12509131333E+03 0.  0.
         23    2    1    2    0    0 -0.20464591618E+02 -0.30620504301E+02 -0.97626754639E+02  0.13789526612E+03  0.90153793055E+02 0.  0.
          5    1    3    3  502    0 -0.19843144981E+02  0.54532829708E+02  0.26041039126E+01  0.58239451198E+02  0.41800000000E+01 0. -1.
         -5    1    3    3    0  502  0.40307736599E+02 -0.23912325408E+02  0.90454899372E+02  0.10196114042E+03  0.41800000000E+01 0. -1.
        -11    1    4    4    0    0  0.24131083086E+02  0.18334896592E+02 -0.22482907608E+02  0.37735377810E+02  0.00000000000E+00 0. -1.
         11    1    4    4    0    0 -0.44595674704E+02 -0.48955400892E+02 -0.75143847031E+02  0.10015988831E+03  0.00000000000E+00 0.  1.
</event>
<event>
 8    1  0.7136454E-009  0.2368409E+03  0.7561462E-02  0.1121915E+00
         -1   -1    0    0    0  501 -0.00000000000E+00  0.00000000000E+00  0.26770800211E+02  0.26770800211E+02  0.00000000000E+00 0.  1.
          1   -1    0    0  501    0  0.00000000000E+00 -0.00000000000E+00 -0.24340988380E+04  0.24340988380E+04  0.00000000000E+00 0. -1.
         25    2    1    2    0    0  0.16907397489E+03 -0.15218684701E+03 -0.10484836157E+04  0.10801439293E+04  0.12508465224E+03 0.  0.
         23    2    1    2    0    0 -0.16907397489E+03  0.15218684701E+03 -0.13588444220E+04  0.13807257089E+04  0.90545427388E+02 0.  0.
          5    1    3    3  502    0  0.76447576349E+02 -0.53062349934E+02 -0.69982493076E+03  0.70599734491E+03  0.41800000000E+01 0.  1.
         -5    1    3    3    0  502  0.92626398538E+02 -0.99124497074E+02 -0.34865868499E+03  0.37414658443E+03  0.41800000000E+01 0.  1.
        -11    1    4    4    0    0 -0.17337859349E+03  0.11656929667E+03 -0.11509116586E+04  0.11697205579E+04  0.00000000000E+00 0.  1.
         11    1    4    4    0    0  0.43046185988E+01  0.35617550341E+02 -0.20793276343E+03  0.21100515098E+03  0.00000000000E+00 0. -1.
</event>
<event>
 8    1  0.7136454E-009  0.1148997E+03  0.7561462E-02  0.1251756E+00
          2   -1    0    0  501    0  0.00000000000E+00  0.00000000000E+00  0.64389261773E+03  0.64389261773E+03  0.00000000000E+00 0. -1.
         -2   -1    0    0    0  501 -0.00000000000E+00 -0.00000000000E+00 -0.35732374523E+02  0.35732374523E+02  0.00000000000E+00 0.  1.
         25    2    1    2    0    0  0.16770377675E+02  0.95669344011E+02  0.23984703227E+03  0.28741292601E+03  0.12508286132E+03 0.  0.
         23    2    1    2    0    0 -0.16770377675E+02 -0.95669344011E+02  0.36831321093E+03  0.39221206624E+03  0.93497671670E+02 0.  0.
          5    1    3    3  502    0 -0.12024872714E+02 -0.72725376267E+01 -0.85413205505E+01  0.16968026523E+02  0.41800000000E+01 0.  1.
         -5    1    3    3    0  502  0.28795250389E+02  0.10294188164E+03  0.24838835282E+03  0.27044489949E+03  0.41800000000E+01 0.  1.
        -11    1    4    4    0    0  0.15477573130E+02 -0.49374040249E+02  0.62040146161E+02  0.80785709480E+02  0.00000000000E+00 0.  1.
         11    1    4    4    0    0 -0.32247950804E+02 -0.46295303761E+02  0.30627306477E+03  0.31142635676E+03  0.00000000000E+00 0. -1.
</event>
<event>
 8    1  0.7136454E-009  0.1523072E+03  0.7561462E-02  0.1197666E+00
          1   -1    0    0  501    0  0.00000000000E+00  0.00000000000E+00  0.78248259653E+02  0.78248259653E+02  0.00000000000E+00 0. -1.
         -1   -1    0    0    0  501 -0.00000000000E+00 -0.00000000000E+00 -0.38398740097E+03  0.38398740097E+03  0.00000000000E+00 0.  1.
         25    2    1    2    0    0 -0.89242721303E+01  0.13390009797E+03 -0.17982071939E+03  0.25688991440E+03  0.12509219851E+03 0.  0.
         23    2    1    2    0    0  0.89242721303E+01 -0.13390009797E+03 -0.12591842193E+03  0.20534574622E+03  0.91118316721E+02 0.  0.
          5    1    3    3  502    0 -0.25912142229E+02  0.13082854078E+03 -0.80166878006E+02  0.15566549691E+03  0.41800000000E+01 0. -1.
         -5    1    3    3    0  502  0.16987870099E+02  0.30715571916E+01 -0.99653841388E+02  0.10122441750E+03  0.41800000000E+01 0. -1.
        -11    1    4    4    0    0  0.41885328898E+02 -0.77306034227E+02 -0.38171852090E+02  0.95852459524E+02  0.00000000000E+00 0. -1.
         11    1    4    4    0    0 -0.32961056768E+02 -0.56594063745E+02 -0.87746569835E+02  0.10949328670E+03  0.00000000000E+00 0.  1.
</event>
<event>
 8    1  0.7136454E-009  0.8114799E+02  0.7561462E-02  0.1325825E+00
         -1   -1    0    0    0  501 -0.00000000000E+00  0.00000000000E+00  0.20434025161E+03  0.20434025161E+03  0.00000000000E+00 0. -1.
          1   -1    0    0  501    0  0.00000000000E+00 -0.00000000000E+00 -0.59447715463E+02  0.59447715463E+02  0.00000000000E+00 0.  1.
         25    2    1    2    0    0 -0.13954131576E+02  0.35374540523E+01  0.62733285213E+02  0.14067545152E+03  0.12508751423E+03 0.  0.
         23    2    1    2    0    0  0.13954131576E+02 -0.35374540523E+01  0.82159250934E+02  0.12311251555E+03  0.90550083393E+02 0.  0.
          5    1    3    3  502    0  0.79827249605E+01  0.42827713018E+02  0.80890560532E+02  0.91971148103E+02  0.41800000000E+01 0. -1.
         -5    1    3    3    0  502 -0.21936856536E+02 -0.39290258966E+02 -0.18157275319E+02  0.48704303417E+02  0.41800000000E+01 0. -1.
        -11    1    4    4    0    0 -0.20508318718E+02 -0.25308127842E+02  0.74942247156E+02  0.81715560822E+02  0.00000000000E+00 0. -1.
         11    1    4    4    0    0  0.34462450294E+02  0.21770673790E+02  0.72170037780E+01  0.41396954732E+02  0.00000000000E+00 0.  1.
</event>
<event>
 8    1  0.7136454E-009  0.8089682E+02  0.7561462E-02  0.1326525E+00
          2   -1    0    0  501    0  0.00000000000E+00  0.00000000000E+00  0.62386101009E+03  0.62386101009E+03  0.00000000000E+00 0. -1.
         -2   -1    0    0    0  501 -0.00000000000E+00 -0.00000000000E+00 -0.23364444647E+02  0.23364444647E+02  0.00000000000E+00 0.  1.
         25    2    1    2    0    0 -0.41716974638E+02  0.21115709065E+01  0.43094856281E+03  0.45067658498E+03  0.12509178931E+03 0.  0.
         23    2    1    2    0    0  0.41716974638E+02 -0.21115709065E+01  0.16954800262E+03  0.19654886975E+03  0.90222881259E+02 0.  0.
          5    1    3    3  502    0 -0.65657777275E+02 -0.26283291567E+02  0.13578496650E+03  0.15315607941E+03  0.41800000000E+01 0.  1.
         -5    1    3    3    0  502  0.23940802637E+02  0.28394862474E+02  0.29516359632E+03  0.29752050557E+03  0.41800000000E+01 0.  1.
        -11    1    4    4    0    0  0.36299726145E+02 -0.15240502214E+02  0.17642825080E+03  0.18076744924E+03  0.00000000000E+00 0. -1.
         11    1    4    4    0    0  0.54172484932E+01  0.13128931307E+02 -0.68802481716E+01  0.15781420513E+02  0.00000000000E+00 0.  1.
</event>
<event>
 8    1  0.7136454E-009  0.8687655E+02  0.7561462E-02  0.1310597E+00
          1   -1    0    0  501    0  0.00000000000E+00  0.00000000000E+00  0.10641715627E+03  0.10641715627E+03  0.00000000000E+00 0. -1.
         -1   -1    0    0    0  501 -0.00000000000E+00 -0.00000000000E+00 -0.12867897340E+03  0.12867897340E+03  0.00000000000E+00 0.  1.
         25    2    1    2    0    0  0.18110840296E+01  0.36521363444E+02 -0.35121216724E+02  0.13497142496E+03  0.12508675261E+03 0.  0.
         23    2    1    2    0    0 -0.18110840296E+01 -0.36521363444E+02  0.12859399595E+02  0.10012470471E+03  0.92317399891E+02 0.  0.
          5    1    3    3  502    0 -0.31239942952E+02  0.45774927590E+02 -0.67614227744E+02  0.87523906591E+02  0.41800000000E+01 0. -1.
         -5    1    3    3    0  502  0.33051026982E+02 -0.92535641458E+01  0.32493011020E+02  0.47447518366E+02  0.41800000000E+01 0. -1.
        -11    1    4    4    0    0 -0.35057477084E+02 -0.11768674419E+01 -0.21066636996E+02  0.40917171344E+02  0.00000000000E+00 0.  1.
         11    1    4    4    0    0  0.33246393055E+02 -0.35344496002E+02  0.33926036591E+02  0.59207533368E+02  0.00000000000E+00 0. -1.
</event>
<event>
 8    1  0.7136454E-009  0.9672920E+02  0.7561462E-02  0.1287328E+00
          4   -1    0    0  501    0  0.00000000000E+00  0.00000000000E+00  0.13858154418E+03  0.13858154418E+03  0.00000000000E+00 0. -1.
         -4   -1    0    0    0  501 -0.00000000000E+00 -0.00000000000E+00 -0.10809610065E+03  0.10809610065E+03  0.00000000000E+00 0.  1.
         25    2    1    2    0    0  0.14575484154E+02 -0.37706381683E+02  0.56193622355E+02  0.14296636943E+03  0.12508974234E+03 0.  0.
         23    2    1    2    0    0 -0.14575484154E+02  0.37706381683E+02 -0.25708178828E+02  0.10371127540E+03  0.91983162740E+02 0.  0.
          5    1    3    3  502    0  0.21239496905E+02 -0.70940513841E+02 -0.34356938291E+01  0.74249236527E+02  0.41800000000E+01 0. -1.
         -5    1    3    3    0  502 -0.66640127511E+01  0.33234132158E+02  0.59629316184E+02  0.68717132906E+02  0.41800000000E+01 0. -1.
        -11    1    4    4    0    0  0.29809554873E+02  0.55373887912E+01 -0.36905247096E+02  0.47762637067E+02  0.00000000000E+00 0.  1.
         11    1    4    4    0    0 -0.44385039027E+02  0.32168992892E+02  0.11197068268E+02  0.55948638329E+02  0.00000000000E+00 0. -1.
</event>
<event>
 8    1  0.7136454E-009  0.9931337E+02  0.7561462E-02  0.1281746E+00
         -2   -1    0    0    0  501 -0.00000000000E+00  0.00000000000E+00  0.16796374954E+03  0.16796374954E+03  0.00000000000E+00 0. -1.
          2   -1    0    0  501    0  0.00000000000E+00 -0.00000000000E+00 -0.89094165440E+02  0.89094165440E+02  0.00000000000E+00 0.  1.
         25    2    1    2    0    0 -0.42193684719E+01  0.36448931200E+02  0.13183906752E+00  0.13036095292E+03  0.12509049928E+03 0.  0.
         23    2    1    2    0    0  0.42193684719E+01 -0.36448931200E+02  0.78737745033E+02  0.12669696206E+03  0.92228846062E+02 0.  0.
          5    1    3    3  502    0  0.39953198305E+02 -0.56496241563E+01  0.40304119352E+02  0.57184532390E+02  0.41800000000E+01 0.  1.
         -5    1    3    3    0  502 -0.44172566777E+02  0.42098555357E+02 -0.40172280285E+02  0.73176420533E+02  0.41800000000E+01 0.  1.
        -11    1    4    4    0    0  0.44611855669E+02 -0.34608777003E+02  0.59134774921E+02  0.81761278836E+02  0.00000000000E+00 0.  1.
         11    1    4    4    0    0 -0.40392487197E+02 -0.18401541978E+01  0.19602970111E+02  0.44935683222E+02  0.00000000000E+00 0. -1.
</event>
<event>
 8    1  0.7136454E-009  0.1721248E+03  0.7561462E-02  0.1175650E+00
         -1   -1    0    0    0  501 -0.00000000000E+00  0.00000000000E+00  0.15711883759E+03  0.15711883759E+03  0.00000000000E+00 0.  1.
          1   -1    0    0  501    0  0.00000000000E+00 -0.00000000000E+00 -0.28072181798E+03  0.28072181798E+03  0.00000000000E+00 0. -1.
         25    2    1    2    0    0 -0.14392427705E+03 -0.14293834257E+02  0.45751132843E+02  0.19662307776E+03  0.12509579262E+03 0.  0.
         23    2    1    2    0    0  0.14392427705E+03  0.14293834257E+02 -0.16935411323E+03  0.24121757780E+03  0.92663870792E+02 0.  0.
          5    1    3    3  502    0 -0.14406341457E+03  0.25862159156E+02  0.17767746547E+02  0.14750011496E+03  0.41800000000E+01 0.  1.
         -5    1    3    3    0  502  0.13913752276E+00 -0.40155993414E+02  0.27983386295E+02  0.49122962806E+02  0.41800000000E+01 0.  1.
        -11    1    4    4    0    0  0.48559268751E+02  0.35006527119E+02 -0.20595788337E+02  0.63305971439E+02  0.00000000000E+00 0.  1.
         11    1    4    4    0    0  0.95365008300E+02 -0.20712692862E+02 -0.14875832489E+03  0.17791160636E+03  0.00000000000E+00 0. -1.
</event>
<event>
 8    1  0.7136454E-009  0.6187314E+02  0.7561462E-02  0.1390135E+00
         -3   -1    0    0    0  501 -0.00000000000E+00  0.00000000000E+00  0.40450349219E+02  0.40450349219E+02  0.00000000000E+00 0.  1.
          3   -1    0    0  501    0  0.00000000000E+00 -0.00000000000E+00 -0.32903894630E+03  0.32903894630E+03  0.00000000000E+00 0. -1.
         25    2    1    2    0    0 -0.39832659363E+02  0.60276824235E+01 -0.17570887828E+03  0.21941650992E+03  0.12508805383E+03 0.  0.
         23    2    1    2    0    0  0.39832659363E+02 -0.60276824235E+01 -0.11287971879E+03  0.15007278559E+03  0.90316312777E+02 0.  0.
          5    1    3    3  502    0 -0.45867274579E+02 -0.22913638739E+02 -0.11757915299E+02  0.52768955738E+02  0.41800000000E+01 0.  1.
         -5    1    3    3    0  502  0.60346152160E+01  0.28941321163E+02 -0.16395096298E+03  0.16664755418E+03  0.41800000000E+01 0.  1.
        -11    1    4    4    0    0  0.19015007060E+02 -0.96374124591E+01  0.11286859184E+02  0.24121430360E+02  0.00000000000E+00 0.  1.
         11    1    4    4    0    0  0.20817652303E+02  0.36097300356E+01 -0.12416657798E+03  0.12595135523E+03  0.00000000000E+00 0. -1.
</event>
<event>
 8    1  0.7136454E-009  0.1079892E+03  0.7561462E-02  0.1264340E+00
         -1   -1    0    0    0  501 -0.00000000000E+00  0.00000000000E+00  0.55875457250E+02  0.55875457250E+02  0.00000000000E+00 0.  1.
          1   -1    0    0  501    0  0.00000000000E+00 -0.00000000000E+00 -0.22729731497E+03  0.22729731497E+03  0.00000000000E+00 0. -1.
         25    2    1    2    0    0 -0.25178286584E+02 -0.11500763761E+01 -0.11645861726E+03  0.17275711517E+03  0.12508853871E+03 0.  0.
         23    2    1    2    0    0  0.25178286584E+02  0.11500763761E+01 -0.54963240463E+02  0.11041565705E+03  0.92387178377E+02 0.  0.
          5    1    3    3  502    0 -0.44822618746E+02 -0.54254442089E+02 -0.70632257690E+02  0.99794788762E+02  0.41800000000E+01 0. -1.
         -5    1    3    3    0  502  0.19644332162E+02  0.53104365713E+02 -0.45826359567E+02  0.72962326409E+02  0.41800000000E+01 0. -1.
        -11    1    4    4    0    0  0.14425803509E+02 -0.41909249255E+02 -0.48269908473E+02  0.65532229048E+02  0.00000000000E+00 0. -1.
         11    1    4    4    0    0  0.10752483075E+02  0.43059325631E+02 -0.66933319901E+01  0.44883428002E+02  0.00000000000E+00 0.  1.
</event>
<event>
 8    1  0.7136454E-009  0.2986878E+03  0.7561462E-02  0.1085898E+00
         -2   -1    0    0    0  501 -0.00000000000E+00  0.00000000000E+00  0.54845628818E+02  0.54845628818E+02  0.00000000000E+00 0.  1.
          2   -1    0    0  501    0  0.00000000000E+00 -0.00000000000E+00 -0.20693940714E+04  0.20693940714E+04  0.00000000000E+00 0. -1.
         25    2    1    2    0    0 -0.10632380357E+03 -0.26577142484E+03 -0.58196516663E+03  0.66050773279E+03  0.12509120045E+03 0.  0.
         23    2    1    2    0    0  0.10632380357E+03  0.26577142484E+03 -0.14325832759E+04  0.14637319674E+04  0.90979275015E+02 0.  0.
          5    1    3    3  502    0 -0.49410788785E+02 -0.22056931462E+03 -0.51130495018E+03  0.55905498216E+03  0.41800000000E+01 0. -1.
         -5    1    3    3    0  502 -0.56913014789E+02 -0.45202110214E+02 -0.70660216458E+02  0.10145275063E+03  0.41800000000E+01 0. -1.
        -11    1    4    4    0    0  0.77901790051E+01  0.13266106412E+03 -0.55791958866E+03  0.57352760373E+03  0.00000000000E+00 0.  1.
         11    1    4    4    0    0  0.98533624569E+02  0.13311036072E+03 -0.87466368724E+03  0.89020436366E+03  0.00000000000E+00 0. -1.
</event>
<event>
 8    1  0.7136454E-009  0.9451699E+02  0.7561462E-02  0.1292268E+00
          3   -1    0    0  501    0  0.00000000000E+00  0.00000000000E+00  0.16598560603E+02  0.16598560603E+02  0.00000000000E+00 0. -1.
         -3   -1    0    0    0  501 -0.00000000000E+00 -0.00000000000E+00 -0.98329861241E+03  0.98329861241E+03  0.00000000000E+00 0.  1.
         25    2    1    2    0    0  0.34158602152E+02  0.65894692657E+02 -0.53821571025E+03  0.55752378757E+03  0.12509077634E+03 0.  0.
         23    2    1    2    0    0 -0.34158602152E+02 -0.65894692657E+02 -0.42848434156E+03  0.44237338544E+03  0.81157011822E+02 0.  0.
          5    1    3    3  502    0  0.20724617177E+02  0.67559526690E+01 -0.76343522209E+01  0.23471437694E+02  0.41800000000E+01 0.  1.
         -5    1    3    3    0  502  0.13433984976E+02  0.59138739988E+02 -0.53058135803E+03  0.53405234988E+03  0.41800000000E+01 0.  1.
        -11    1    4    4    0    0 -0.48743614015E+02 -0.11976301337E+02 -0.26212358775E+03  0.26688601866E+03  0.00000000000E+00 0.  1.
         11    1    4    4    0    0  0.14585011863E+02 -0.53918391320E+02 -0.16636075381E+03  0.17548736679E+03  0.00000000000E+00 0. -1.
</event>
<event>
 8    1  0.7136454E-009  0.1331439E+03  0.7561462E-02  0.1222864E+00
         -1   -1    0    0    0  501 -0.00000000000E+00  0.00000000000E+00  0.94774973439E+02  0.94774973439E+02  0.00000000000E+00 0.  1.
          1   -1    0    0  501    0  0.00000000000E+00 -0.00000000000E+00 -0.26603701520E+03  0.26603701520E+03  0.00000000000E+00 0. -1.
         25    2    1    2    0    0 -0.40127854728E+01 -0.95281039610E+02 -0.16001408131E+03  0.22437797377E+03  0.12508553050E+03 0.  0.
         23    2    1    2    0    0  0.40127854728E+01  0.95281039610E+02 -0.11247960449E+02  0.13643401486E+03  0.96918237918E+02 0.  0.
          5    1    3    3  502    0  0.55956161746E+02 -0.73331317339E+02 -0.82163087950E+02  0.12359943188E+03  0.41800000000E+01 0.  1.
         -5    1    3    3    0  502 -0.59968947219E+02 -0.21949722272E+02 -0.77850993358E+02  0.10077854189E+03  0.41800000000E+01 0.  1.
        -11    1    4    4    0    0 -0.24160564595E+02  0.27817515041E+02 -0.43086589582E+02  0.56692161949E+02  0.00000000000E+00 0. -1.
         11    1    4    4    0    0  0.28173350067E+02  0.67463524569E+02  0.31838629133E+02  0.79741852915E+02  0.00000000000E+00 0.  1.
</event>
<event>
 8    1  0.7136454E-009  0.1643800E+03  0.7561462E-02  0.1183839E+00
         -2   -1    0    0    0  501 -0.00000000000E+00  0.00000000000E+00  0.20255162688E+02  0.20255162688E+02  0.00000000000E+00 0.  1.
          2   -1    0    0  501    0  0.00000000000E+00 -0.00000000000E+00 -0.17372851797E+04  0.17372851797E+04  0.00000000000E+00 0. -1.
         25    2    1    2    0    0 -0.13332219542E+03 -0.30085590773E+02 -0.12131575286E+04  0.12272241495E+04  0.12509185951E+03 0.  0.
         23    2    1    2    0    0  0.13332219542E+03  0.30085590773E+02 -0.50387248847E+03  0.53031619296E+03  0.93101177841E+02 0.  0.
          5    1    3    3  502    0  0.20324769336E+02 -0.17653352735E+02 -0.28988959317E+03  0.29116693792E+03  0.41800000000E+01 0. -1.
         -5    1    3    3    0  502 -0.15364696476E+03 -0.12432238037E+02 -0.92326793541E+03  0.93605721154E+03  0.41800000000E+01 0. -1.
        -11    1    4    4    0    0  0.24442197742E+02 -0.15856375063E+02 -0.29564633091E+02  0.41507989477E+02  0.00000000000E+00 0.  1.
         11    1    4    4    0    0  0.10887999768E+03  0.45941965835E+02 -0.47430785538E+03  0.48880820349E+03  0.00000000000E+00 0. -1.
</event>
<event>
 8    1  0.7136454E-009  0.1223084E+03  0.7561462E-02  0.1239337E+00
          1   -1    0    0  501    0  0.00000000000E+00  0.00000000000E+00  0.31368887603E+03  0.31368887603E+03  0.00000000000E+00 0. -1.
         -1   -1    0    0    0  501 -0.00000000000E+00 -0.00000000000E+00 -0.80281571558E+02  0.80281571558E+02  0.00000000000E+00 0.  1.
         25    2    1    2    0    0 -0.11991080195E+02  0.11244437580E+03  0.12636963625E+03  0.21072220991E+03  0.12508813345E+03 0.  0.
         23    2    1    2    0    0  0.11991080195E+02 -0.11244437580E+03  0.10703766822E+03  0.18324823768E+03  0.96619514286E+02 0.  0.
          5    1    3    3  502    0  0.20526396480E+02  0.13184053425E+02  0.99855806556E+02  0.10287762983E+03  0.41800000000E+01 0.  1.
         -5    1    3    3    0  502 -0.32517476675E+02  0.99260322372E+02  0.26513829692E+02  0.10784458008E+03  0.41800000000E+01 0.  1.
        -11    1    4    4    0    0  0.17850118589E+02 -0.61120948077E+02 -0.79714669463E+00  0.63679136853E+02  0.00000000000E+00 0.  1.
         11    1    4    4    0    0 -0.58590383940E+01 -0.51323427720E+02  0.10783481492E+03  0.11956910083E+03  0.00000000000E+00 0. -1.
</event>
<event>
 8    1  0.7136454E-009  0.9527539E+02  0.7561462E-02  0.1290557E+00
          1   -1    0    0  501    0  0.00000000000E+00  0.00000000000E+00  0.40310854769E+03  0.40310854769E+03  0.00000000000E+00 0. -1.
         -1   -1    0    0    0  501 -0.00000000000E+00 -0.00000000000E+00 -0.29916984703E+02  0.29916984703E+02  0.00000000000E+00 0.  1.
         25    2    1    2    0    0 -0.18015831320E+02 -0.95350736057E+01  0.22459403693E+03  0.25788792628E+03  0.12509281870E+03 0.  0.
         23    2    1    2    0    0  0.18015831320E+02  0.95350736057E+01  0.14859752605E+03  0.17513760611E+03  0.90423827157E+02 0.  0.
          5    1    3    3  502    0 -0.60500633034E+02 -0.30963763103E+02  0.77158116107E+02  0.10290737828E+03  0.41800000000E+01 0.  1.
         -5    1    3    3    0  502  0.42484801714E+02  0.21428689497E+02  0.14743592083E+03  0.15498054801E+03  0.41800000000E+01 0.  1.
        -11    1    4    4    0    0  0.45902571875E+02  0.27102556330E+01  0.34506857027E+02  0.57490127606E+02  0.00000000000E+00 0.  1.
         11    1    4    4    0    0 -0.27886740555E+02  0.68248179727E+01  0.11409066903E+03  0.11764747850E+03  0.00000000000E+00 0. -1.
</event>
<event>
 8    1  0.7136454E-009  0.1369713E+03  0.7561462E-02  0.1217463E+00
          1   -1    0    0  501    0  0.00000000000E+00  0.00000000000E+00  0.61528974521E+02  0.61528974521E+02  0.00000000000E+00 0. -1.
         -1   -1    0    0    0  501 -0.00000000000E+00 -0.00000000000E+00 -0.36519383667E+03  0.36519383667E+03  0.00000000000E+00 0.  1.
         25    2    1    2    0    0  0.93513964467E+02 -0.23234223307E+02 -0.11402363131E+03  0.19476364671E+03  0.12508716521E+03 0.  0.
         23    2    1    2    0    0 -0.93513964467E+02  0.23234223307E+02 -0.18964123084E+03  0.23195916448E+03  0.92501712798E+02 0.  0.
          5    1    3    3  502    0  0.12333417227E+03 -0.20100186046E+02 -0.10471907508E+03  0.16309166936E+03  0.41800000000E+01 0.  1.
         -5    1    3    3    0  502 -0.29820207800E+02 -0.31340372606E+01 -0.93045562294E+01  0.31671977352E+02  0.41800000000E+01 0.  1.
        -11    1    4    4    0    0  0.40416995867E+01  0.20655499159E+02 -0.90230945109E+02  0.92653162041E+02  0.00000000000E+00 0.  1.
         11    1    4    4    0    0 -0.97555664054E+02  0.25787241480E+01 -0.99410285727E+02  0.13930600244E+03  0.00000000000E+00 0. -1.
</event>
<event>
 8    1  0.7136454E-009  0.1158060E+03  0.7561462E-02  0.1250181E+00
         -1   -1    0    0    0  501 -0.00000000000E+00  0.00000000000E+00  0.20750240104E+02  0.20750240104E+02  0.00000000000E+00 0.  1.
          1   -1    0    0  501    0  0.00000000000E+00 -0.00000000000E+00 -0.10238436549E+04  0.10238436549E+04  0.00000000000E+00 0. -1.
         25    2    1    2    0    0  0.23211778232E+02 -0.94726315764E+02 -0.54252867259E+03  0.56524492248E+03  0.12511035231E+03 0.  0.
         23    2    1    2    0    0 -0.23211778232E+02  0.94726315764E+02 -0.46056474216E+03  0.47934897249E+03  0.90242418810E+02 0.  0.
          5    1    3    3  502    0 -0.17660886348E+02 -0.25042653653E+02 -0.20774865950E+02  0.37257333021E+02  0.41800000000E+01 0. -1.
         -5    1    3    3    0  502  0.40872664580E+02 -0.69683662111E+02 -0.52175380664E+03  0.52798758946E+03  0.41800000000E+01 0. -1.
        -11    1    4    4    0    0 -0.77058735655E+01  0.10226080035E+03 -0.44308662435E+03  0.45479930569E+03  0.00000000000E+00 0. -1.
         11    1    4    4    0    0 -0.15505904666E+02 -0.75344845904E+01 -0.17478117811E+02  0.24549666796E+02  0.00000000000E+00 0.  1.
</event>
<event>
 8    1  0.7136454E-009  0.1290757E+03  0.7561462E-02  0.1228834E+00
         -1   -1    0    0    0  501 -0.00000000000E+00  0.00000000000E+00  0.11145234704E+03  0.11145234704E+03  0.00000000000E+00 0.  1.
          1   -1    0    0  501    0  0.00000000000E+00 -0.00000000000E+00 -0.20036121692E+03  0.20036121692E+03  0.00000000000E+00 0. -1.
         25    2    1    2    0    0  0.34664826720E+02  0.96531958470E+02 -0.43031329961E+02  0.16738130158E+03  0.12507891726E+03 0.  0.
         23    2    1    2    0    0 -0.34664826720E+02 -0.96531958470E+02 -0.45877539919E+02  0.14443226238E+03  0.90751642028E+02 0.  0.
          5    1    3    3  502    0 -0.46463037489E+01  0.77982413232E+02  0.28760532181E+02  0.83351577810E+02  0.41800000000E+01 0. -1.
         -5    1    3    3    0  502  0.39311130469E+02  0.18549545238E+02 -0.71791862142E+02  0.84029723771E+02  0.41800000000E+01 0. -1.
        -11    1    4    4    0    0 -0.42139482707E+02 -0.28120960287E+01 -0.75510397881E+01  0.42902937997E+02  0.00000000000E+00 0.  1.
         11    1    4    4    0    0  0.74746559874E+01 -0.93719862442E+02 -0.38326500131E+02  0.10152932439E+03  0.00000000000E+00 0. -1.
</event>
<event>
 8    1  0.7136454E-009  0.5458288E+02  0.7561462E-02  0.1422082E+00
          2   -1    0    0  501    0  0.00000000000E+00  0.00000000000E+00  0.16830459305E+03  0.16830459305E+03  0.00000000000E+00 0. -1.
         -2   -1    0    0    0  501 -0.00000000000E+00 -0.00000000000E+00 -0.85769123273E+02  0.85769123273E+02  0.00000000000E+00 0.  1.
         25    2    1    2    0    0  0.30584588112E+02  0.23359501166E+02  0.84102341164E+02  0.15557366226E+03  0.12509547264E+03 0.  0.
         23    2    1    2    0    0 -0.30584588112E+02 -0.23359501166E+02 -0.15668713846E+01  0.98500054067E+02  0.90657168721E+02 0.  0.
          5    1    3    3  502    0  0.96774939727E+01  0.17772455413E+02 -0.31618848468E+02  0.37772186056E+02  0.41800000000E+01 0. -1.
         -5    1    3    3    0  502  0.20907094139E+02  0.55870457522E+01  0.11572118963E+03  0.11780147620E+03  0.41800000000E+01 0. -1.
        -11    1    4    4    0    0  0.14293421201E+02  0.27286795097E+01 -0.34212297593E+02  0.37178338963E+02  0.00000000000E+00 0.  1.
         11    1    4    4    0    0 -0.44878009313E+02 -0.26088180675E+02  0.32645426208E+02  0.61321715103E+02  0.00000000000E+00 0. -1.
</event>
<event>
 8    1  0.7136454E-009  0.1152034E+03  0.7561462E-02  0.1251227E+00
         -2   -1    0    0    0  501 -0.00000000000E+00  0.00000000000E+00  0.49021298289E+02  0.49021298289E+02  0.00000000000E+00 0.  1.
          2   -1    0    0  501    0  0.00000000000E+00 -0.00000000000E+00 -0.43108194483E+03  0.43108194483E+03  0.00000000000E+00 0. -1.
         25    2    1    2    0    0 -0.59352291777E+02 -0.66130341055E+02 -0.14339096109E+03  0.21000738258E+03  0.12508483709E+03 0.  0.
         23    2    1    2    0    0  0.59352291777E+02  0.66130341055E+02 -0.23866968545E+03  0.27009586053E+03  0.89959093909E+02 0.  0.
          5    1    3    3  502    0 -0.84053660085E+01 -0.53758212705E+02 -0.14748189324E+03  0.15725449706E+03  0.41800000000E+01 0. -1.
         -5    1    3    3    0  502 -0.50946925768E+02 -0.12372128349E+02  0.40909321562E+01  0.52752885523E+02  0.41800000000E+01 0. -1.
        -11    1    4    4    0    0  0.40729337477E+02 -0.12366459811E+02 -0.55471858278E+02  0.69920921908E+02  0.00000000000E+00 0. -1.
         11    1    4    4    0    0  0.18622954300E+02  0.78496800866E+02 -0.18319782717E+03  0.20017493863E+03  0.00000000000E+00 0.  1.
</event>
<event>
 8    1  0.7136454E-009  0.1220050E+03  0.7561462E-02  0.1239826E+00
          1   -1    0    0  501    0  0.00000000000E+00  0.00000000000E+00  0.66683881370E+03  0.66683881370E+03  0.00000000000E+00 0. -1.
         -1   -1    0    0    0  501 -0.00000000000E+00 -0.00000000000E+00 -0.29506289216E+02  0.29506289216E+02  0.00000000000E+00 0.  1.
         25    2    1    2    0    0 -0.72005572475E+02  0.11108687632E+02  0.47593082167E+03  0.49745960228E+03  0.12509078091E+03 0.  0.
         23    2    1    2    0    0  0.72005572475E+02 -0.11108687632E+02  0.16140170281E+03  0.19888550064E+03  0.90535779038E+02 0.  0.
          5    1    3    3  502    0 -0.86767654833E+02 -0.27137717261E+02  0.40783143639E+03  0.41786245886E+03  0.41800000000E+01 0.  1.
         -5    1    3    3    0  502  0.14762082358E+02  0.38246404893E+02  0.68099385288E+02  0.79597143412E+02  0.41800000000E+01 0.  1.
        -11    1    4    4    0    0  0.32490481021E+02  0.37193597801E+02  0.45014579378E+02  0.66822955868E+02  0.00000000000E+00 0.  1.
         11    1    4    4    0    0  0.39515091455E+02 -0.48302285433E+02  0.11638712343E+03  0.13206254477E+03  0.00000000000E+00 0. -1.
</event>
<event>
 8    1  0.7136454E-009  0.4725173E+02  0.7561462E-02  0.1460755E+00
          1   -1    0    0  501    0  0.00000000000E+00  0.00000000000E+00  0.38076302784E+03  0.38076302784E+03  0.00000000000E+00 0. -1.
         -1   -1    0    0    0  501 -0.00000000000E+00 -0.00000000000E+00 -0.33099418651E+02  0.33099418651E+02  0.00000000000E+00 0.  1.
         25    2    1    2    0    0  0.32026978912E+01 -0.12830355656E+02  0.19914056315E+03  0.23553313276E+03  0.12507604662E+03 0.  0.
         23    2    1    2    0    0 -0.32026978912E+01  0.12830355656E+02  0.14852304604E+03  0.17832931373E+03  0.97812952263E+02 0.  0.
          5    1    3    3  502    0  0.25050511895E+01  0.85873943957E+01  0.21063018036E+03  0.21086148037E+03  0.41800000000E+01 0. -1.
         -5    1    3    3    0  502  0.69764670178E+00 -0.21417750052E+02 -0.11489617212E+02  0.24671652395E+02  0.41800000000E+01 0. -1.
        -11    1    4    4    0    0  0.23624607486E+02 -0.11773190464E+02  0.13790901686E+03  0.14041234641E+03  0.00000000000E+00 0. -1.
         11    1    4    4    0    0 -0.26827305377E+02  0.24603546120E+02  0.10614029182E+02  0.37916967323E+02  0.00000000000E+00 0.  1.
</event>
<event>
 8    1  0.7136454E-009  0.2379839E+03  0.7561462E-02  0.1121143E+00
         -2   -1    0    0    0  501 -0.00000000000E+00  0.00000000000E+00  0.59703042485E+02  0.59703042485E+02  0.00000000000E+00 0. -1.
          2   -1    0    0  501    0  0.00000000000E+00 -0.00000000000E+00 -0.11369602503E+04  0.11369602503E+04  0.00000000000E+00 0.  1.
         25    2    1    2    0    0 -0.17272666974E+03 -0.13502586438E+03 -0.75923011563E+03  0.80008974567E+03  0.12508695437E+03 0.  0.
         23    2    1    2    0    0  0.17272666974E+03  0.13502586438E+03 -0.31802709222E+03  0.39657354715E+03  0.89793431966E+02 0.  0.
          5    1    3    3  502    0 -0.13800550525E+03 -0.15729050558E+03 -0.59610251483E+03  0.63177646617E+03  0.41800000000E+01 0.  1.
         -5    1    3    3    0  502 -0.34721164491E+02  0.22264641198E+02 -0.16312760081E+03  0.16831327950E+03  0.41800000000E+01 0.  1.
        -11    1    4    4    0    0  0.16023127147E+03  0.10208863018E+03 -0.21116298760E+03  0.28405273472E+03  0.00000000000E+00 0. -1.
         11    1    4    4    0    0  0.12495398269E+02  0.32937234202E+02 -0.10686410462E+03  0.11252081243E+03  0.00000000000E+00 0.  1.
</event>
<event>
 8    1  0.7136454E-009  0.1088008E+03  0.7561462E-02  0.1262807E+00
         -1   -1    0    0    0  501 -0.00000000000E+00  0.00000000000E+00  0.35963150197E+02  0.35963150197E+02  0.00000000000E+00 0.  1.
          1   -1    0    0  501    0  0.00000000000E+00 -0.00000000000E+00 -0.57107927757E+03  0.57107927757E+03  0.00000000000E+00 0. -1.
         25    2    1    2    0    0  0.50025360973E+02  0.65046731503E+02 -0.19642984629E+03  0.24691399287E+03  0.12509285089E+03 0.  0.
         23    2    1    2    0    0 -0.50025360973E+02 -0.65046731503E+02 -0.33868628109E+03  0.36012843489E+03  0.90832145207E+02 0.  0.
          5    1    3    3  502    0  0.16281569431E+02  0.73222176710E+02 -0.37093816749E+02  0.83785442090E+02  0.41800000000E+01 0. -1.
         -5    1    3    3    0  502  0.33743791542E+02 -0.81754452064E+01 -0.15933602954E+03  0.16312855078E+03  0.41800000000E+01 0. -1.
        -11    1    4    4    0    0  0.12745454122E+02 -0.36283366746E+02 -0.21555788409E+03  0.21896148222E+03  0.00000000000E+00 0. -1.
         11    1    4    4    0    0 -0.62770815094E+02 -0.28763364757E+02 -0.12312839699E+03  0.14116695267E+03  0.00000000000E+00 0.  1.
</event>
<event>
 8    1  0.7136454E-009  0.1465016E+03  0.7561462E-02  0.1204839E+00
         -2   -1    0    0    0  501 -0.00000000000E+00  0.00000000000E+00  0.45119745132E+02  0.45119745132E+02  0.00000000000E+00 0. -1.
          2   -1    0    0  501    0  0.00000000000E+00 -0.00000000000E+00 -0.71307462762E+03  0.71307462762E+03  0.00000000000E+00 0.  1.
         25    2    1    2    0    0  0.67123486794E+02  0.12447750416E+03 -0.41031279322E+03  0.45166897975E+03  0.12509223583E+03 0.  0.
         23    2    1    2    0    0 -0.67123486794E+02 -0.12447750416E+03 -0.25764208926E+03  0.30652539300E+03  0.87052621298E+02 0.  0.
          5    1    3    3  502    0  0.50441979878E+02  0.44009011876E+02 -0.32978256565E+03  0.33653409852E+03  0.41800000000E+01 0. -1.
         -5    1    3    3    0  502  0.16681506916E+02  0.80468492280E+02 -0.80530227579E+02  0.11513488123E+03  0.41800000000E+01 0. -1.
        -11    1    4    4    0    0 -0.27326073442E+02 -0.27263146668E+02 -0.15472111088E+03  0.15946352438E+03  0.00000000000E+00 0.  1.
         11    1    4    4    0    0 -0.39797413352E+02 -0.97214357488E+02 -0.10292097839E+03  0.14706186862E+03  0.00000000000E+00 0. -1.
</event>
<event>
 8    1  0.7136454E-009  0.1121591E+03  0.7561462E-02  0.1256623E+00
          2   -1    0    0  501    0  0.00000000000E+00  0.00000000000E+00  0.65869143924E+02  0.65869143924E+02  0.00000000000E+00 0. -1.
         -2   -1    0    0    0  501 -0.00000000000E+00 -0.00000000000E+00 -0.28409063908E+03  0.28409063908E+03  0.00000000000E+00 0.  1.
         25    2    1    2    0    0  0.45780861007E+02 -0.21674670379E+02 -0.21360206660E+03  0.25266431675E+03  0.12509090907E+03 0.  0.
         23    2    1    2    0    0 -0.45780861007E+02  0.21674670379E+02 -0.46194285551E+01  0.97295466254E+02  0.82942088610E+02 0.  0.
          5    1    3    3  502    0  0.18649167495E+02  0.48336155895E+02 -0.47841302276E+02  0.70643032342E+02  0.41800000000E+01 0.  1.
         -5    1    3    3    0  502  0.27131693511E+02 -0.70010826273E+02 -0.16576076432E+03  0.18202128441E+03  0.41800000000E+01 0.  1.
        -11    1    4    4    0    0 -0.69677546469E+02  0.22526332207E+02 -0.47638221678E+01  0.73383173318E+02  0.00000000000E+00 0.  1.
         11    1    4    4    0    0  0.23896685462E+02 -0.85166182807E+00  0.14439361269E+00  0.23912292936E+02  0.00000000000E+00 0. -1.
</event>
<event>
 8    1  0.7136454E-009  0.1070140E+03  0.7561462E-02  0.1266202E+00
         -1   -1    0    0    0  501 -0.00000000000E+00  0.00000000000E+00  0.17445926324E+03  0.17445926324E+03  0.00000000000E+00 0.  1.
          1   -1    0    0  501    0  0.00000000000E+00 -0.00000000000E+00 -0.12700169448E+03  0.12700169448E+03  0.00000000000E+00 0. -1.
         25    2    1    2    0    0 -0.50711010289E+02  0.17043115579E+02 -0.61789213747E+02  0.14942588194E+03  0.12509241745E+03 0.  0.
         23    2    1    2    0    0  0.50711010289E+02 -0.17043115579E+02  0.10924678250E+03  0.15203507578E+03  0.91201592234E+02 0.  0.
          5    1    3    3  502    0  0.41749362844E+02  0.17597768556E+01 -0.14972836123E+02  0.44584350775E+02  0.41800000000E+01 0. -1.
         -5    1    3    3    0  502 -0.92460373134E+02  0.15283338723E+02 -0.46816377625E+02  0.10484153116E+03  0.41800000000E+01 0. -1.
        -11    1    4    4    0    0  0.56028644395E+02  0.43342471615E+01  0.11608291982E+03  0.12896991496E+03  0.00000000000E+00 0.  1.
         11    1    4    4    0    0 -0.53176341053E+01 -0.21377362740E+02 -0.68361373135E+01  0.23065160819E+02  0.00000000000E+00 0. -1.
</event>
<event>
 8    1  0.7136454E-009  0.1154207E+03  0.7561462E-02  0.1250849E+00
          2   -1    0    0  501    0  0.00000000000E+00  0.00000000000E+00  0.79397208825E+03  0.79397208825E+03  0.00000000000E+00 0. -1.
         -2   -1    0    0    0  501 -0.00000000000E+00 -0.00000000000E+00 -0.17852774372E+02  0.17852774372E+02  0.00000000000E+00 0.  1.
         25    2    1    2    0    0 -0.27351467897E+00 -0.46304677233E+02  0.42512052281E+03  0.44555043047E+03  0.12507409498E+03 0.  0.
         23    2    1    2    0    0  0.27351467897E+00  0.46304677233E+02  0.35099879107E+03  0.36627443215E+03  0.93875504639E+02 0.  0.
          5    1    3    3  502    0 -0.16528388646E+02 -0.86481281623E+02  0.31600409538E+03  0.32806746318E+03  0.41800000000E+01 0.  1.
         -5    1    3    3    0  502  0.16254873967E+02  0.40176604390E+02  0.10911642743E+03  0.11748296729E+03  0.41800000000E+01 0.  1.
        -11    1    4    4    0    0  0.28640513477E+02 -0.14467700845E+02  0.64629553144E+02  0.72156583342E+02  0.00000000000E+00 0.  1.
         11    1    4    4    0    0 -0.28366998798E+02  0.60772378078E+02  0.28636923793E+03  0.29411784881E+03  0.00000000000E+00 0. -1.
</event>
<event>
 8    1  0.7136454E-009  0.4517955E+02  0.7561462E-02  0.1473224E+00
          1   -1    0    0  501    0  0.00000000000E+00  0.00000000000E+00  0.16763749365E+03  0.16763749365E+03  0.00000000000E+00 0. -1.
         -1   -1    0    0    0  501 -0.00000000000E+00 -0.00000000000E+00 -0.94805414131E+02  0.94805414131E+02  0.00000000000E+00 0.  1.
         25    2    1    2    0    0  0.12765602409E+02  0.14636914663E+02  0.10397929691E+03  0.16382238626E+03  0.12509548425E+03 0.  0.
         23    2    1    2    0    0 -0.12765602409E+02 -0.14636914663E+02 -0.31147217383E+02  0.98620521527E+02  0.91535011006E+02 0.  0.
          5    1    3    3  502    0 -0.58076727892E+01 -0.58232309090E+00 -0.28361412045E+02  0.29255943953E+02  0.41800000000E+01 0.  1.
         -5    1    3    3    0  502  0.18573275198E+02  0.15219237754E+02  0.13234070895E+03  0.13456644231E+03  0.41800000000E+01 0.  1.
        -11    1    4    4    0    0  0.22089165915E+02 -0.62636694500E+01 -0.52215975131E+02  0.57040975313E+02  0.00000000000E+00 0.  1.
         11    1    4    4    0    0 -0.34854768324E+02 -0.83732452127E+01  0.21068757748E+02  0.41579546214E+02  0.00000000000E+00 0. -1.
</event>
<event>
 7    1  0.7136454E-009  0.1070580E+03  0.7561462E-02  0.1266117E+00
         -1   -1    0    0    0  501 -0.00000000000E+00  0.00000000000E+00  0.47260058198E+03  0.47260058198E+03  0.00000000000E+00 0.  1.
          1   -1    0    0  501    0  0.00000000000E+00 -0.00000000000E+00 -0.27602152317E+02  0.27602152317E+02  0.00000000000E+00 0. -1.
         23    2    1    2    0    0  0.42456998311E+01 -0.25052630534E+02  0.24988371182E+03  0.26695516899E+03  0.90429710566E+02 0.  0.
          5    1    1    2  502    0  0.53735310577E+02 -0.15345125281E+02  0.72084173355E+02  0.91304747527E+02  0.41800000000E+01 0. -1.
         -5    1    1    2    0  502 -0.57981010408E+02  0.40397755815E+02  0.12303054449E+03  0.14194281778E+03  0.41800000000E+01 0. -1.
        -11    1    3    3    0    0  0.10212988144E+02 -0.55412355369E+02  0.10886796087E+03  0.12258493854E+03  0.00000000000E+00 0. -1.
         11    1    3    3    0    0 -0.59672883132E+01  0.30359724835E+02  0.14101575095E+03  0.14437023045E+03  0.00000000000E+00 0.  1.
</event>
<event>
 8    1  0.7136454E-009  0.7231956E+02  0.7561462E-02  0.1352378E+00
         -2   -1    0    0    0  501 -0.00000000000E+00  0.00000000000E+00  0.27493284674E+02  0.27493284674E+02  0.00000000000E+00 0. -1.
          2   -1    0    0  501    0  0.00000000000E+00 -0.00000000000E+00 -0.46589407401E+03  0.46589407401E+03  0.00000000000E+00 0.  1.
         25    2    1    2    0    0  0.10854735494E+02 -0.14665890980E+02 -0.25973505587E+03  0.28886461346E+03  0.12509017556E+03 0.  0.
         23    2    1    2    0    0 -0.10854735494E+02  0.14665890980E+02 -0.17866573347E+03  0.20452274522E+03  0.97852927179E+02 0.  0.
          5    1    3    3  502    0  0.20873701961E+02 -0.25705264964E+02 -0.51046428778E+01  0.33763913566E+02  0.41800000000E+01 0. -1.
         -5    1    3    3    0  502 -0.10018966466E+02  0.11039373984E+02 -0.25463041299E+03  0.25510069990E+03  0.41800000000E+01 0. -1.
        -11    1    4    4    0    0  0.12697503858E+02 -0.36936083823E+02 -0.46682270225E+02  0.60866536337E+02  0.00000000000E+00 0. -1.
         11    1    4    4    0    0 -0.23552239352E+02  0.51601974803E+02 -0.13198346324E+03  0.14365620889E+03  0.00000000000E+00 0.  1.
</event>
<event>
 8    1  0.7136454E-009  0.6959658E+02  0.7561462E-02  0.1361470E+00
          3   -1    0    0  501    0  0.00000000000E+00  0.00000000000E+00  0.34414188917E+03  0.34414188917E+03  0.00000000000E+00 0. -1.
         -3   -1    0    0    0  501 -0.00000000000E+00 -0.00000000000E+00 -0.39795820598E+02  0.39795820598E+02  0.00000000000E+00 0.  1.
         25    2    1    2    0    0 -0.19547438384E+02  0.36248079554E+02  0.19771811294E+03  0.23756313746E+03  0.12509103277E+03 0.  0.
         23    2    1    2    0    0  0.19547438384E+02 -0.36248079554E+02  0.10662795563E+03  0.14637457230E+03  0.91432865403E+02 0.  0.
          5    1    3    3  502    0 -0.51905852140E+01  0.11849455786E+02 -0.16535642943E+02  0.21406813514E+02  0.41800000000E+01 0. -1.
         -5    1    3    3    0  502 -0.14356853170E+02  0.24398623768E+02  0.21425375588E+03  0.21615632395E+03  0.41800000000E+01 0. -1.
        -11    1    4    4    0    0  0.32094813560E+02  0.21013370758E+02  0.24667521413E+02  0.45608391998E+02  0.00000000000E+00 0.  1.
         11    1    4    4    0    0 -0.12547375176E+02 -0.57261450312E+02  0.81960434222E+02  0.10076618031E+03  0.00000000000E+00 0. -1.
</event>
<event>
 8    1  0.7136454E-009  0.2003435E+03  0.7561462E-02  0.1149450E+00
          2   -1    0    0  501    0  0.00000000000E+00  0.00000000000E+00  0.41139469374E+03  0.41139469374E+03  0.00000000000E+00 0. -1.
         -2   -1    0    0    0  501 -0.00000000000E+00 -0.00000000000E+00 -0.10943638400E+03  0.10943638400E+03  0.00000000000E+00 0.  1.
         25    2    1    2    0    0  0.17088469348E+03  0.29766666696E+02  0.87141850415E+02  0.23093067504E+03  0.12509053389E+03 0.  0.
         23    2    1    2    0    0 -0.17088469348E+03 -0.29766666696E+02  0.21481645933E+03  0.28990040269E+03  0.88365713780E+02 0.  0.
          5    1    3    3  502    0  0.12133038068E+03  0.71701090390E+02  0.87386620707E+02  0.16587947890E+03  0.41800000000E+01 0.  1.
         -5    1    3    3    0  502  0.49554312800E+02 -0.41934423694E+02 -0.24477029117E+00  0.65051196147E+02  0.41800000000E+01 0.  1.
        -11    1    4    4    0    0 -0.39774701311E+02 -0.47924422414E+02  0.71043463828E+02  0.94477250599E+02  0.00000000000E+00 0.  1.
         11    1    4    4    0    0 -0.13110999217E+03  0.18157755718E+02  0.14377299550E+03  0.19542315210E+03  0.00000000000E+00 0. -1.
</event>
<event>
 8    1  0.7136454E-009  0.1018670E+03  0.7561462E-02  0.1276418E+00
          1   -1    0    0  501    0  0.00000000000E+00  0.00000000000E+00  0.43701361546E+02  0.43701361546E+02  0.00000000000E+00 0. -1.
         -1   -1    0    0    0  501 -0.00000000000E+00 -0.00000000000E+00 -0.30725912115E+03  0.30725912115E+03  0.00000000000E+00 0.  1.
         25    2    1    2    0    0 -0.78052424559E+01 -0.15718435749E+01 -0.94211411678E+02  0.15680426440E+03  0.12509354397E+03 0.  0.
         23    2    1    2    0    0  0.78052424559E+01  0.15718435749E+01 -0.16934634793E+03  0.19415621829E+03  0.94631173739E+02 0.  0.
          5    1    3    3  502    0  0.80009638282E+01 -0.58006836746E+02 -0.74457988553E+02  0.94817050106E+02  0.41800000000E+01 0.  1.
         -5    1    3    3    0  502 -0.15806206284E+02  0.56434993171E+02 -0.19753423125E+02  0.61987214298E+02  0.41800000000E+01 0.  1.
        -11    1    4    4    0    0 -0.68850870456E+01 -0.40826066227E+02 -0.12241054249E+03  0.12922272641E+03  0.00000000000E+00 0.  1.
         11    1    4    4    0    0  0.14690329501E+02  0.42397909802E+02 -0.46935805436E+02  0.64933491884E+02  0.00000000000E+00 0. -1.
</event>
<event>
 8    1  0.7136454E-009  0.2037964E+03  0.7561462E-02  0.1146575E+00
         -1   -1    0    0    0  501 -0.00000000000E+00  0.00000000000E+00  0.70061144732E+03  0.70061144732E+03  0.00000000000E+00 0.  1.
          1   -1    0    0  501    0  0.00000000000E+00 -0.00000000000E+00 -0.67014018897E+02  0.67014018897E+02  0.00000000000E+00 0. -1.
         25    2    1    2    0    0 -0.10740489975E+03  0.15023127408E+03  0.27243085490E+03  0.35209539835E+03  0.12508937060E+03 0.  0.
         23    2    1    2    0    0  0.10740489975E+03 -0.15023127408E+03  0.36116657353E+03  0.41553006787E+03  0.90103802753E+02 0.  0.
          5    1    3    3  502    0  0.13016826168E+02  0.31111648918E+02  0.11815925398E+03  0.12294899008E+03  0.41800000000E+01 0.  1.
         -5    1    3    3    0  502 -0.12042172592E+03  0.11911962516E+03  0.15427160092E+03  0.22914640827E+03  0.41800000000E+01 0.  1.
        -11    1    4    4    0    0  0.78861162931E+02 -0.36468120818E+02  0.13086656763E+03  0.15708298882E+03  0.00000000000E+00 0. -1.
         11    1    4    4    0    0  0.28543736816E+02 -0.11376315326E+03  0.23030000590E+03  0.25844707905E+03  0.00000000000E+00 0.  1.
</event>
<event>
 8    1  0.7136454E-009  0.8987993E+02  0.7561462E-02  0.1303143E+00
          1   -1    0    0  501    0  0.00000000000E+00  0.00000000000E+00  0.18089794574E+03  0.18089794574E+03  0.00000000000E+00 0. -1.
         -1   -1    0    0    0  501 -0.00000000000E+00 -0.00000000000E+00 -0.73662636951E+02  0.73662636951E+02  0.00000000000E+00 0.  1.
         25    2    1    2    0    0  0.91245291329E+01 -0.31719763170E+02  0.84259668736E+02  0.15439066780E+03  0.12508951243E+03 0.  0.
         23    2    1    2    0    0 -0.91245291329E+01  0.31719763170E+02  0.22975640055E+02  0.10016991489E+03  0.91742745795E+02 0.  0.
          5    1    3    3  502    0  0.28008656029E+02  0.36144708558E+02  0.19310482206E+01  0.45957873281E+02  0.41800000000E+01 0. -1.
         -5    1    3    3    0  502 -0.18884126896E+02 -0.67864471728E+02  0.82328620515E+02  0.10843279452E+03  0.41800000000E+01 0. -1.
        -11    1    4    4    0    0 -0.29672790253E+02  0.30709066794E+02  0.50290138414E+02  0.65974383563E+02  0.00000000000E+00 0. -1.
         11    1    4    4    0    0  0.20548261120E+02  0.10106963757E+01 -0.27314498359E+02  0.34195531329E+02  0.00000000000E+00 0.  1.
</event>
<event>
 8    1  0.7136454E-009  0.1103269E+03  0.7561462E-02  0.1259966E+00
          2   -1    0    0  501    0  0.00000000000E+00  0.00000000000E+00  0.12210219799E+03  0.12210219799E+03  0.00000000000E+00 0. -1.
         -2   -1    0    0    0  501 -0.00000000000E+00 -0.00000000000E+00 -0.12958765103E+03  0.12958765103E+03  0.00000000000E+00 0.  1.
         25    2    1    2    0    0 -0.34070822625E+02  0.45262575088E+02 -0.31896475789E+02  0.14097569621E+03  0.12508892875E+03 0.  0.
         23    2    1    2    0    0  0.34070822625E+02 -0.45262575088E+02  0.24411022746E+02  0.11071415281E+03  0.91935868639E+02 0.  0.
          5    1    3    3  502    0 -0.47598108273E+02 -0.31772034629E+02 -0.24195621018E+02  0.62273128812E+02  0.41800000000E+01 0.  1.
         -5    1    3    3    0  502  0.13527285647E+02  0.77034609717E+02 -0.77008547713E+01  0.78702567400E+02  0.41800000000E+01 0.  1.
        -11    1    4    4    0    0  0.43716952233E+02 -0.55342182957E+01  0.46652022728E+02  0.64173286571E+02  0.00000000000E+00 0.  1.
         11    1    4    4    0    0 -0.96461296079E+01 -0.39728356792E+02 -0.22240999982E+02  0.46540866236E+02  0.00000000000E+00 0. -1.
</event>
<event>
 8    1  0.7136454E-009  0.6932925E+02  0.7561462E-02  0.1362389E+00
         -4   -1    0    0    0  501 -0.00000000000E+00  0.00000000000E+00  0.32183474918E+02  0.32183474918E+02  0.00000000000E+00 0.  1.
          4   -1    0    0  501    0  0.00000000000E+00 -0.00000000000E+00 -0.54441739924E+03  0.54441739924E+03  0.00000000000E+00 0. -1.
         25    2    1    2    0    0  0.26910764245E+01 -0.15338160157E+02 -0.12160431806E+03  0.17515143051E+03  0.12509161598E+03 0.  0.
         23    2    1    2    0    0 -0.26910764245E+01  0.15338160157E+02 -0.39062960627E+03  0.40144944365E+03  0.91256043459E+02 0.  0.
          5    1    3    3  502    0  0.21209213489E+02  0.39577187004E+01 -0.14045601470E+03  0.14216489981E+03  0.41800000000E+01 0.  1.
         -5    1    3    3    0  502 -0.18518137065E+02 -0.19295878858E+02  0.18851696639E+02  0.32986530696E+02  0.41800000000E+01 0.  1.
        -11    1    4    4    0    0  0.40876431866E+02  0.20521155414E+02 -0.24947993046E+03  0.25363800228E+03  0.00000000000E+00 0. -1.
         11    1    4    4    0    0 -0.43567508291E+02 -0.51829952565E+01 -0.14114967581E+03  0.14781144137E+03  0.00000000000E+00 0.  1.
</event>
<event>
 8    1  0.7136454E-009  0.1298356E+03  0.7561462E-02  0.1227700E+00
         -2   -1    0    0    0  501 -0.00000000000E+00  0.00000000000E+00  0.58283369794E+02  0.58283369794E+02  0.00000000000E+00 0.  1.
          2   -1    0    0  501    0  0.00000000000E+00 -0.00000000000E+00 -0.62949006991E+03  0.62949006991E+03  0.00000000000E+00 0. -1.
         25    2    1    2    0    0  0.47399115291E+01 -0.11239539016E+03 -0.12017689876E+03  0.20674608221E+03  0.12508503118E+03 0.  0.
         23    2    1    2    0    0 -0.47399115291E+01  0.11239539016E+03 -0.45102980136E+03  0.48102735749E+03  0.12371033285E+03 0.  0.
          5    1    3    3  502    0 -0.12418756634E+02  0.14048449658E+02  0.12261144518E+02  0.22790184708E+02  0.41800000000E+01 0.  1.
         -5    1    3    3    0  502  0.17158668163E+02 -0.12644383981E+03 -0.13243804327E+03  0.18395589750E+03  0.41800000000E+01 0.  1.
        -11    1    4    4    0    0  0.23357859172E+01  0.26269880148E+02 -0.51765606204E+01  0.26876742338E+02  0.00000000000E+00 0.  1.
         11    1    4    4    0    0 -0.70756974464E+01  0.86125510007E+02 -0.44585324074E+03  0.45415061516E+03  0.00000000000E+00 0. -1.
</event>
<event>
 8    1  0.7136454E-009  0.8237056E+02  0.7561462E-02  0.1322456E+00
         -2   -1    0    0    0  501 -0.00000000000E+00  0.00000000000E+00  0.13724301571E+02  0.13724301571E+02  0.00000000000E+00 0.  1.
          2   -1    0    0  501    0  0.00000000000E+00 -0.00000000000E+00 -0.10864837293E+04  0.10864837293E+04  0.00000000000E+00 0. -1.
         25    2    1    2    0    0 -0.43581389680E+02  0.90782709510E+01 -0.78658065344E+03  0.79770845348E+03  0.12509156585E+03 0.  0.
         23    2    1    2    0    0  0.43581389680E+02 -0.90782709510E+01 -0.28617877428E+03  0.30249957739E+03  0.87326690892E+02 0.  0.
          5    1    3    3  502    0 -0.29020481093E+02 -0.20411757860E+02 -0.56317016002E+02  0.66692629826E+02  0.41800000000E+01 0.  1.
         -5    1    3    3    0  502 -0.14560908587E+02  0.29490028811E+02 -0.73026363744E+03  0.73101582365E+03  0.41800000000E+01 0.  1.
        -11    1    4    4    0    0  0.24868278444E+02  0.37879469313E+02 -0.10410628130E+03  0.11354031563E+03  0.00000000000E+00 0.  1.
         11    1    4    4    0    0  0.18713111236E+02 -0.46957740264E+02 -0.18207249298E+03  0.18895926176E+03  0.00000000000E+00 0. -1.
</event>
<event>
 8    1  0.7136454E-009  0.1132908E+03  0.7561462E-02  0.1254594E+00
          3   -1    0    0  501    0  0.00000000000E+00  0.00000000000E+00  0.43836875810E+02  0.43836875810E+02  0.00000000000E+00 0. -1.
         -3   -1    0    0    0  501 -0.00000000000E+00 -0.00000000000E+00 -0.51017286444E+03  0.51017286444E+03  0.00000000000E+00 0.  1.
         25    2    1    2    0    0 -0.44228232091E+02 -0.33467218614E+02 -0.41309334931E+03  0.43516676924E+03  0.12509120902E+03 0.  0.
         23    2    1    2    0    0  0.44228232091E+02  0.33467218614E+02 -0.53242639317E+02  0.11884297100E+03  0.90623848297E+02 0.  0.
          5    1    3    3  502    0 -0.35091493925E+02  0.38844172555E+02 -0.26383328986E+03  0.26900884730E+03  0.41800000000E+01 0.  1.
         -5    1    3    3    0  502 -0.91367381656E+01 -0.72311391169E+02 -0.14926005945E+03  0.16615792194E+03  0.41800000000E+01 0.  1.
        -11    1    4    4    0    0  0.45111033287E+02  0.59692443976E+02 -0.54510831073E+02  0.92572263105E+02  0.00000000000E+00 0.  1.
         11    1    4    4    0    0 -0.88280119562E+00 -0.26225225362E+02  0.12681917565E+01  0.26270707900E+02  0.00000000000E+00 0. -1.
</event>
<event>
 8    1  0.7136454E-009  0.1404705E+03  0.7561462E-02  0.1212697E+00
          1   -1    0    0  501    0  0.00000000000E+00  0.00000000000E+00  0.24070133725E+03  0.24070133725E+03  0.00000000000E+00 0. -1.
         -1   -1    0    0    0  501 -0.00000000000E+00 -0.00000000000E+00 -0.97431284624E+02  0.97431284624E+02  0.00000000000E+00 0.  1.
         25    2    1    2    0    0  0.38557761580E+02 -0.87456590167E+02  0.21190292481E+02  0.15884382959E+03  0.12508787935E+03 0.  0.
         23    2    1    2    0    0 -0.38557761580E+02  0.87456590167E+02  0.12207976015E+03  0.17928879229E+03  0.90031367096E+02 0.  0.
          5    1    3    3  502    0 -0.16183482139E+02 -0.93014949054E+02  0.36926073347E+02  0.10146276723E+03  0.41800000000E+01 0. -1.
         -5    1    3    3    0  502  0.54741243719E+02  0.55583588870E+01 -0.15735780866E+02  0.57381062355E+02  0.41800000000E+01 0. -1.
        -11    1    4    4    0    0 -0.60706094872E+02  0.90421057219E+02  0.99404709522E+02  0.14745336150E+03  0.00000000000E+00 0. -1.
         11    1    4    4    0    0  0.22148333292E+02 -0.29644670522E+01  0.22675050626E+02  0.31835430787E+02  0.00000000000E+00 0.  1.
</event>
<event>
 8    1  0.7136454E-009  0.1283552E+03  0.7561462E-02  0.1229917E+00
         -2   -1    0    0    0  501 -0.00000000000E+00  0.00000000000E+00  0.89976670811E+02  0.89976670811E+02  0.00000000000E+00 0.  1.
          2   -1    0    0  501    0  0.00000000000E+00 -0.00000000000E+00 -0.51036731155E+03  0.51036731155E+03  0.00000000000E+00 0. -1.
         25    2    1    2    0    0  0.44634479219E+02  0.86818202275E+02 -0.43737242375E+03  0.46526532386E+03  0.12509015768E+03 0.  0.
         23    2    1    2    0    0 -0.44634479219E+02 -0.86818202275E+02  0.16981783005E+02  0.13507865851E+03  0.91805370479E+02 0.  0.
          5    1    3    3  502    0 -0.15936603691E+02  0.83231308562E+02 -0.15790825961E+03  0.17925935657E+03  0.41800000000E+01 0. -1.
         -5    1    3    3    0  502  0.60571082911E+02  0.35868937133E+01 -0.27946416413E+03  0.28600596729E+03  0.41800000000E+01 0. -1.
        -11    1    4    4    0    0 -0.48679986073E+01 -0.65957928267E+02 -0.27724472913E+02  0.71713263139E+02  0.00000000000E+00 0. -1.
         11    1    4    4    0    0 -0.39766480612E+02 -0.20860274008E+02  0.44706255919E+02  0.63365395369E+02  0.00000000000E+00 0.  1.
</event>
<event>
 8    1  0.7136454E-009  0.1210758E+03  0.7561462E-02  0.1241333E+00
          1   -1    0    0  501    0  0.00000000000E+00  0.00000000000E+00  0.52982565166E+03  0.52982565166E+03  0.00000000000E+00 0. -1.
         -1   -1    0    0    0  501 -0.00000000000E+00 -0.00000000000E+00 -0.52344306595E+02  0.52344306595E+02  0.00000000000E+00 0.  1.
         25    2    1    2    0    0  0.49485736801E+02 -0.76667525830E+02  0.40661088574E+03  0.43508844745E+03  0.12507116789E+03 0.  0.
         23    2    1    2    0    0 -0.49485736801E+02  0.76667525830E+02  0.70870459320E+02  0.14708151080E+03  0.91014290920E+02 0.  0.
          5    1    3    3  502    0  0.70907422343E+02 -0.97565765784E+02  0.27961640471E+03  0.30454843191E+03  0.41800000000E+01 0.  1.
         -5    1    3    3    0  502 -0.21421685542E+02  0.20898239954E+02  0.12699448103E+03  0.13054001554E+03  0.41800000000E+01 0.  1.
        -11    1    4    4    0    0 -0.93301346724E+01  0.14519755487E+02 -0.22240090721E+02  0.28151311651E+02  0.00000000000E+00 0.  1.
         11    1    4    4    0    0 -0.40155602129E+02  0.62147770344E+02  0.93110550041E+02  0.11893019915E+03  0.00000000000E+00 0. -1.
</event>
<event>
 8    1  0.7136454E-009  0.1558242E+03  0.7561462E-02  0.1193494E+00
         -1   -1    0    0    0  501 -0.00000000000E+00  0.00000000000E+00  0.18971649098E+04  0.18971649098E+04  0.00000000000E+00 0.  1.
          1   -1    0    0  501    0  0.00000000000E+00 -0.00000000000E+00 -0.14755213367E+02  0.14755213367E+02  0.00000000000E+00 0. -1.
         25    2    1    2    0    0 -0.97499133623E+02 -0.72496320151E+02  0.12309984862E+04  0.12432889693E+04  0.12509352780E+03 0.  0.
         23    2    1    2    0    0  0.97499133623E+02  0.72496320151E+02  0.65141121028E+03  0.66863115390E+03  0.89270698414E+02 0.  0.
          5    1    3    3  502    0 -0.79105147521E+02 -0.10773747672E+03  0.89858590308E+03  0.90848174768E+03  0.41800000000E+01 0.  1.
         -5    1    3    3    0  502 -0.18393986102E+02  0.35241156573E+02  0.33241258311E+03  0.33480722162E+03  0.41800000000E+01 0.  1.
        -11    1    4    4    0    0  0.51353008147E+02  0.75943674076E+02  0.54407748536E+03  0.55174711885E+03  0.00000000000E+00 0.  1.
         11    1    4    4    0    0  0.46146125477E+02 -0.34473539258E+01  0.10733372491E+03  0.11688403505E+03  0.00000000000E+00 0. -1.
</event>
<event>
 8    1  0.7136454E-009  0.1479392E+03  0.7561462E-02  0.1203028E+00
         -2   -1    0    0    0  501 -0.00000000000E+00  0.00000000000E+00  0.38303383016E+02  0.38303383016E+02  0.00000000000E+00 0.  1.
          2   -1    0    0  501    0  0.00000000000E+00 -0.00000000000E+00 -0.79910824254E+03  0.79910824254E+03  0.00000000000E+00 0. -1.
         25    2    1    2    0    0 -0.12956487944E+03 -0.38208867992E+02 -0.45697283680E+03  0.49266323554E+03  0.12508363003E+03 0.  0.
         23    2    1    2    0    0  0.12956487944E+03  0.38208867992E+02 -0.30383202273E+03  0.34474839002E+03  0.91052615600E+02 0.  0.
          5    1    3    3  502    0 -0.38393807608E+02 -0.45847450590E+02 -0.33397594297E+03  0.33931324182E+03  0.41800000000E+01 0.  1.
         -5    1    3    3    0  502 -0.91171071835E+02  0.76385825983E+01 -0.12299689383E+03  0.15334999372E+03  0.41800000000E+01 0.  1.
        -11    1    4    4    0    0  0.45413137650E+02 -0.11183787234E+02 -0.18584775070E+03  0.19164241861E+03  0.00000000000E+00 0. -1.
         11    1    4    4    0    0  0.84151741792E+02  0.49392655226E+02 -0.11798427203E+03  0.15310597142E+03  0.00000000000E+00 0.  1.
</event>
<event>
 8    1  0.7136454E-009  0.1124122E+03  0.7561462E-02  0.1256167E+00
         -1   -1    0    0    0  501 -0.00000000000E+00  0.00000000000E+00  0.16343103446E+03  0.16343103446E+03  0.00000000000E+00 0.  1.
          1   -1    0    0  501    0  0.00000000000E+00 -0.00000000000E+00 -0.13503978548E+03  0.13503978548E+03  0.00000000000E+00 0. -1.
         25    2    1    2    0    0 -0.32281231321E+02 -0.94789668543E+02  0.37225143083E+02  0.16450130291E+03  0.12509119963E+03 0.  0.
         23    2    1    2    0    0  0.32281231321E+02  0.94789668543E+02 -0.88338941038E+01  0.13396951702E+03  0.88558650896E+02 0.  0.
          5    1    3    3  502    0  0.77802530562E+01  0.59727578277E+01  0.53695387094E+02  0.54743704377E+02  0.41800000000E+01 0.  1.
         -5    1    3    3    0  502 -0.40061484378E+02 -0.10076242637E+03 -0.16470244011E+02  0.10975759854E+03  0.41800000000E+01 0.  1.
        -11    1    4    4    0    0 -0.71184983636E+01  0.17570944400E+02  0.32735250520E+02  0.37828662845E+02  0.00000000000E+00 0.  1.
         11    1    4    4    0    0  0.39399729685E+02  0.77218724143E+02 -0.41569144624E+02  0.96140854179E+02  0.00000000000E+00 0. -1.
</event>
<event>
 8    1  0.7136454E-009  0.8951873E+02  0.7561462E-02  0.1304021E+00
          2   -1    0    0  501    0  0.00000000000E+00  0.00000000000E+00  0.12206885291E+03  0.12206885291E+03  0.00000000000E+00 0. -1.
         -2   -1    0    0    0  501 -0.00000000000E+00 -0.00000000000E+00 -0.12579414741E+03  0.12579414741E+03  0.00000000000E+00 0.  1.
         25    2    1    2    0    0 -0.21739439377E+02 -0.49878013768E+02  0.33073456933E+02  0.14036374390E+03  0.12509079729E+03 0.  0.
         23    2    1    2    0    0  0.21739439377E+02  0.49878013768E+02 -0.36798751435E+02  0.10749925641E+03  0.85097135907E+02 0.  0.
          5    1    3    3  502    0 -0.56703702357E+02 -0.48397248129E+02 -0.19406666027E+02  0.77147226611E+02  0.41800000000E+01 0.  1.
         -5    1    3    3    0  502  0.34964262981E+02 -0.14807656393E+01  0.52480122959E+02  0.63216517292E+02  0.41800000000E+01 0.  1.
        -11    1    4    4    0    0 -0.25751500503E+01  0.44047593273E+02 -0.59264150480E+02  0.73885461378E+02  0.00000000000E+00 0.  1.
         11    1    4    4    0    0  0.24314589427E+02  0.58304204952E+01  0.22465399045E+02  0.33613795031E+02  0.00000000000E+00 0. -1.
</event>
<event>
 8    1  0.7136454E-009  0.1190027E+03  0.7561462E-02  0.1244751E+00
          1   -1    0    0  501    0  0.00000000000E+00  0.00000000000E+00  0.11068566237E+03  0.11068566237E+03  0.00000000000E+00 0. -1.
         -1   -1    0    0    0  501 -0.00000000000E+00 -0.00000000000E+00 -0.14344141050E+03  0.14344141050E+03  0.00000000000E+00 0.  1.
         25    2    1    2    0    0  0.57431093662E+02  0.94254331681E+01 -0.32464003973E+02  0.14172918977E+03  0.12508430106E+03 0.  0.
         23    2    1    2    0    0 -0.57431093662E+02 -0.94254331681E+01 -0.29174415634E+00  0.11239788310E+03  0.96156277491E+02 0.  0.
          5    1    3    3  502    0  0.90077170220E+02  0.21451167916E+02 -0.46840906195E+02  0.10385370524E+03  0.41800000000E+01 0. -1.
         -5    1    3    3    0  502 -0.32646076559E+02 -0.12025734747E+02  0.14376902222E+02  0.37875484530E+02  0.41800000000E+01 0. -1.
        -11    1    4    4    0    0  0.19851714127E+02 -0.24501696182E+02 -0.99527105385E+01  0.33067810884E+02  0.00000000000E+00 0.  1.
         11    1    4    4    0    0 -0.77282807789E+02  0.15076263014E+02  0.96609663822E+01  0.79330072215E+02  0.00000000000E+00 0. -1.
</event>
<event>
 8    1  0.7136454E-009  0.1242561E+03  0.7561462E-02  0.1236236E+00
         -1   -1    0    0    0  501 -0.00000000000E+00  0.00000000000E+00  0.59629091607E+03  0.59629091607E+03  0.00000000000E+00 0.  1.
          1   -1    0    0  501    0  0.00000000000E+00 -0.00000000000E+00 -0.27304340741E+02  0.27304340741E+02  0.00000000000E+00 0. -1.
         25    2    1    2    0    0 -0.61508079673E+02 -0.20834628818E+02  0.28568356331E+03  0.31855816903E+03  0.12508750171E+03 0.  0.
         23    2    1    2    0    0  0.61508079673E+02  0.20834628818E+02  0.28330301202E+03  0.30503708779E+03  0.92572688641E+02 0.  0.
          5    1    3    3  502    0 -0.96548904356E+02 -0.47459854885E+01  0.15953920319E+03  0.18658629388E+03  0.41800000000E+01 0. -1.
         -5    1    3    3    0  502  0.35040824682E+02 -0.16088643329E+02  0.12614436013E+03  0.13197187515E+03  0.41800000000E+01 0. -1.
        -11    1    4    4    0    0  0.92495117218E+00  0.46979668495E+02  0.12441983437E+03  0.13299714272E+03  0.00000000000E+00 0.  1.
         11    1    4    4    0    0  0.60583128501E+02 -0.26145039677E+02  0.15888317765E+03  0.17203994507E+03  0.00000000000E+00 0. -1.
</event>
<event>
 8    1  0.7136454E-009  0.1251571E+03  0.7561462E-02  0.1234824E+00
          1   -1    0    0  501    0  0.00000000000E+00  0.00000000000E+00  0.77990114284E+03  0.77990114284E+03  0.00000000000E+00 0. -1.
         -1   -1    0    0    0  501 -0.00000000000E+00 -0.00000000000E+00 -0.26646940476E+02  0.26646940476E+02  0.00000000000E+00 0.  1.
         25    2    1    2    0    0 -0.48428534148E+02 -0.60384222150E+02  0.56543823195E+03  0.58425940294E+03  0.12508828308E+03 0.  0.
         23    2    1    2    0    0  0.48428534148E+02  0.60384222150E+02  0.18781597041E+03  0.22228868037E+03  0.90254315561E+02 0.  0.
          5    1    3    3  502    0  0.26412676476E+02 -0.52285156912E+02  0.37272268692E+03  0.37732087254E+03  0.41800000000E+01 0.  1.
         -5    1    3    3    0  502 -0.74841210623E+02 -0.80990652378E+01  0.19271554504E+03  0.20693853040E+03  0.41800000000E+01 0.  1.
        -11    1    4    4    0    0  0.33544551768E+02 -0.16849371902E+02  0.40044582154E+02  0.54888130290E+02  0.00000000000E+00 0.  1.
         11    1    4    4    0    0  0.14883982380E+02  0.77233594053E+02  0.14777138825E+03  0.16740055008E+03  0.00000000000E+00 0. -1.
</event>
<event>
 8    1  0.7136454E-009  0.1322697E+03  0.7561462E-02  0.1224126E+00
         -2   -1    0    0    0  501 -0.00000000000E+00  0.00000000000E+00  0.39058994793E+02  0.39058994793E+02  0.00000000000E+00 0. -1.
          2   -1    0    0  501    0  0.00000000000E+00 -0.00000000000E+00 -0.59154376613E+03  0.59154376613E+03  0.00000000000E+00 0.  1.
         25    2    1    2    0    0  0.99895957479E+02  0.24146785626E+02 -0.35231680870E+03  0.38773329747E+03  0.12509079380E+03 0.  0.
         23    2    1    2    0    0 -0.99895957479E+02 -0.24146785626E+02 -0.20016796263E+03  0.24286946345E+03  0.91411670136E+02 0.  0.
          5    1    3    3  502    0  0.81872294547E+02 -0.42641009493E+02 -0.19206914660E+03  0.21314163784E+03  0.41800000000E+01 0.  1.
         -5    1    3    3    0  502  0.18023662932E+02  0.66787795119E+02 -0.16024766210E+03  0.17459165963E+03  0.41800000000E+01 0.  1.
        -11    1    4    4    0    0 -0.72317537149E+02 -0.15889071659E+02 -0.48544674747E+02  0.88537417083E+02  0.00000000000E+00 0. -1.
         11    1    4    4    0    0 -0.27578420330E+02 -0.82577139669E+01 -0.15162328788E+03  0.15433204637E+03  0.00000000000E+00 0.  1.
</event>
<event>
 8    1  0.7136454E-009  0.9269345E+02  0.7561462E-02  0.1296457E+00
         -3   -1    0    0    0  501 -0.00000000000E+00  0.00000000000E+00  0.12754481886E+03  0.12754481886E+03  0.00000000000E+00 0.  1.
          3   -1    0    0  501    0  0.00000000000E+00 -0.00000000000E+00 -0.11295125646E+03  0.11295125646E+03  0.00000000000E+00 0. -1.
         25    2    1    2    0    0  0.28216701675E+02  0.38698077170E+02  0.28918023833E+02  0.13703246041E+03  0.12509164510E+03 0.  0.
         23    2    1    2    0    0 -0.28216701675E+02 -0.38698077170E+02 -0.14324461428E+02  0.10346361491E+03  0.90585903901E+02 0.  0.
          5    1    3    3  502    0 -0.22380420706E+02  0.13448663527E+02  0.64761332583E+02  0.69951786107E+02  0.41800000000E+01 0. -1.
         -5    1    3    3    0  502  0.50597122380E+02  0.25249413643E+02 -0.35843308750E+02  0.67080674301E+02  0.41800000000E+01 0. -1.
        -11    1    4    4    0    0  0.31813011363E+02 -0.19821831994E+01 -0.76510898614E+01  0.32780114678E+02  0.00000000000E+00 0.  1.
         11    1    4    4    0    0 -0.60029713037E+02 -0.36715893971E+02 -0.66733715666E+01  0.70683500235E+02  0.00000000000E+00 0. -1.
</event>
<event>
 8    1  0.7136454E-009  0.9889196E+02  0.7561462E-02  0.1282643E+00
          1   -1    0    0  501    0  0.00000000000E+00  0.00000000000E+00  0.15265515635E+03  0.15265515635E+03  0.00000000000E+00 0. -1.
         -1   -1    0    0    0  501 -0.00000000000E+00 -0.00000000000E+00 -0.86073153658E+02  0.86073153658E+02  0.00000000000E+00 0.  1.
         25    2    1    2    0    0  0.34586171317E+02  0.21994534787E+02  0.50377358809E+02  0.14094539403E+03  0.12509101891E+03 0.  0.
         23    2    1    2    0    0 -0.34586171317E+02 -0.21994534787E+02  0.16204643888E+02  0.97782915980E+02  0.87286570371E+02 0.  0.
          5    1    3    3  502    0  0.44988445818E+02  0.56233884212E+02  0.69489283634E+02  0.10016208330E+03  0.41800000000E+01 0. -1.
         -5    1    3    3    0  502 -0.10402274502E+02 -0.34239349426E+02 -0.19111924825E+02  0.40783310734E+02  0.41800000000E+01 0. -1.
        -11    1    4    4    0    0  0.48294653273E+01  0.26608201550E+02  0.22106457102E+02  0.34928721286E+02  0.00000000000E+00 0.  1.
         11    1    4    4    0    0 -0.39415636644E+02 -0.48602736336E+02 -0.59018132144E+01  0.62854194694E+02  0.00000000000E+00 0. -1.
</event>
<event>
 8    1  0.7136454E-009  0.9385515E+02  0.7561462E-02  0.1293776E+00
         -1   -1    0    0    0  501 -0.00000000000E+00  0.00000000000E+00  0.18010841478E+03  0.18010841478E+03  0.00000000000E+00 0.  1.
          1   -1    0    0  501    0  0.00000000000E+00 -0.00000000000E+00 -0.86888095014E+02  0.86888095014E+02  0.00000000000E+00 0. -1.
         25    2    1    2    0    0  0.58854596396E+02  0.21851322982E+02  0.60387821637E+02  0.15243117256E+03  0.12508888653E+03 0.  0.
         23    2    1    2    0    0 -0.58854596396E+02 -0.21851322982E+02  0.32832498133E+02  0.11456533723E+03  0.90032770305E+02 0.  0.
          5    1    3    3  502    0  0.82834991627E+02 -0.11027732816E+02  0.71478798833E+02  0.11004516260E+03  0.41800000000E+01 0.  1.
         -5    1    3    3    0  502 -0.23980395231E+02  0.32879055798E+02 -0.11090977196E+02  0.42386009965E+02  0.41800000000E+01 0.  1.
        -11    1    4    4    0    0 -0.12366343428E+02 -0.17765285096E+01  0.57073306779E+02  0.58424693838E+02  0.00000000000E+00 0.  1.
         11    1    4    4    0    0 -0.46488252968E+02 -0.20074794472E+02 -0.24240808646E+02  0.56140643396E+02  0.00000000000E+00 0. -1.
</event>
<event>
 8    1  0.7136454E-009  0.1057491E+03  0.7561462E-02  0.1268651E+00
         -1   -1    0    0    0  501 -0.00000000000E+00  0.00000000000E+00  0.88373627362E+02  0.88373627362E+02  0.00000000000E+00 0.  1.
          1   -1    0    0  501    0  0.00000000000E+00 -0.00000000000E+00 -0.16731111216E+03  0.16731111216E+03  0.00000000000E+00 0. -1.
         25    2    1    2    0    0  0.37444127964E+02 -0.33183960124E+02 -0.23745393128E+02  0.13679971978E+03  0.12508829565E+03 0.  0.
         23    2    1    2    0    0 -0.37444127964E+02  0.33183960124E+02 -0.55192091670E+02  0.11888501974E+03  0.92651189995E+02 0.  0.
          5    1    3    3  502    0  0.56073757840E+02  0.22921889090E+02  0.19115564429E+02  0.63659693065E+02  0.41800000000E+01 0. -1.
         -5    1    3    3    0  502 -0.18629629876E+02 -0.56105849214E+02 -0.42860957557E+02  0.73140026716E+02  0.41800000000E+01 0. -1.
        -11    1    4    4    0    0 -0.54318275885E+02  0.45307006839E+02 -0.13088869710E+02  0.71934125936E+02  0.00000000000E+00 0.  1.
         11    1    4    4    0    0  0.16874147921E+02 -0.12123046715E+02 -0.42103221959E+02  0.46950893805E+02  0.00000000000E+00 0. -1.
</event>
<event>
 8    1  0.7136454E-009  0.9000278E+02  0.7561462E-02  0.1302845E+00
          1   -1    0    0  501    0  0.00000000000E+00  0.00000000000E+00  0.91950123655E+02  0.91950123655E+02  0.00000000000E+00 0. -1.
         -1   -1    0    0    0  501 -0.00000000000E+00 -0.00000000000E+00 -0.13847689662E+03  0.13847689662E+03  0.00000000000E+00 0.  1.
         25    2    1    2    0    0  0.21416797104E+02 -0.83223796950E+01 -0.35584451394E+01  0.12723074367E+03  0.12508820248E+03 0.  0.
         23    2    1    2    0    0 -0.21416797104E+02  0.83223796950E+01 -0.42968327823E+02  0.10319627660E+03  0.90968418186E+02 0.  0.
          5    1    3    3  502    0 -0.44551557168E+02  0.64780066466E+01 -0.30276456180E+02  0.54414538636E+02  0.41800000000E+01 0.  1.
         -5    1    3    3    0  502  0.65968354272E+02 -0.14800386342E+02  0.26718011040E+02  0.72816205031E+02  0.41800000000E+01 0.  1.
        -11    1    4    4    0    0  0.17294649470E+02 -0.14103693872E+02 -0.52859935996E+02  0.57377625558E+02  0.00000000000E+00 0.  1.
         11    1    4    4    0    0 -0.38711446574E+02  0.22426073567E+02  0.98916081737E+01  0.45818651047E+02  0.00000000000E+00 0. -1.
</event>
<event>
 8    1  0.7136454E-009  0.1059597E+03  0.7561462E-02  0.1268240E+00
         -2   -1    0    0    0  501 -0.00000000000E+00  0.00000000000E+00  0.56446418507E+03  0.56446418507E+03  0.00000000000E+00 0. -1.
          2   -1    0    0  501    0  0.00000000000E+00 -0.00000000000E+00 -0.27207395486E+02  0.27207395486E+02  0.00000000000E+00 0.  1.
         25    2    1    2    0    0  0.21349767292E+02 -0.52718675903E+02  0.33002431071E+03  0.35748562840E+03  0.12507940477E+03 0.  0.
         23    2    1    2    0    0 -0.21349767292E+02  0.52718675903E+02  0.20723247887E+03  0.23418595216E+03  0.93073565189E+02 0.  0.
          5    1    3    3  502    0  0.28389222967E+02  0.19748084717E+02  0.22584651709E+02  0.41514741038E+02  0.41800000000E+01 0.  1.
         -5    1    3    3    0  502 -0.70394556741E+01 -0.72466760619E+02  0.30743965900E+03  0.31597088736E+03  0.41800000000E+01 0.  1.
        -11    1    4    4    0    0 -0.51619269682E+02  0.11274070039E+02  0.70225787556E+02  0.87882392409E+02  0.00000000000E+00 0.  1.
         11    1    4    4    0    0  0.30269502390E+02  0.41444605864E+02  0.13700669132E+03  0.14630355975E+03  0.00000000000E+00 0. -1.
</event>
<event>
 8    1  0.7136454E-009  0.1211177E+03  0.7561462E-02  0.1241264E+00
          1   -1    0    0  501    0  0.00000000000E+00  0.00000000000E+00  0.15761556023E+03  0.15761556023E+03  0.00000000000E+00 0. -1.
         -1   -1    0    0    0  501 -0.00000000000E+00 -0.00000000000E+00 -0.15433045343E+03  0.15433045343E+03  0.00000000000E+00 0.  1.
         25    2    1    2    0    0 -0.80344428854E+02  0.49722938684E+02  0.61242062789E+02  0.16828777111E+03  0.12507032330E+03 0.  0.
         23    2    1    2    0    0  0.80344428854E+02 -0.49722938684E+02 -0.57956955990E+02  0.14365824256E+03  0.91384265754E+02 0.  0.
          5    1    3    3  502    0 -0.43593356346E+02 -0.65499243746E+01  0.85845865563E+02  0.96593308573E+02  0.41800000000E+01 0.  1.
         -5    1    3    3    0  502 -0.36751072508E+02  0.56272863059E+02 -0.24603802773E+02  0.71694462535E+02  0.41800000000E+01 0.  1.
        -11    1    4    4    0    0 -0.29173480441E+01  0.21103060536E+02 -0.15700160012E+02  0.26464034235E+02  0.00000000000E+00 0. -1.
         11    1    4    4    0    0  0.83261776898E+02 -0.70825999220E+02 -0.42256795978E+02  0.11719420832E+03  0.00000000000E+00 0.  1.
</event>
<event>
 8    1  0.7136454E-009  0.1734440E+03  0.7561462E-02  0.1174303E+00
          1   -1    0    0  501    0  0.00000000000E+00  0.00000000000E+00  0.29645507004E+03  0.29645507004E+03  0.00000000000E+00 0. -1.
         -1   -1    0    0    0  501 -0.00000000000E+00 -0.00000000000E+00 -0.14865653147E+03  0.14865653147E+03  0.00000000000E+00 0.  1.
         25    2    1    2    0    0  0.60223174537E+02  0.14670585115E+03  0.15840183487E+03  0.25668584177E+03  0.12508813917E+03 0.  0.
         23    2    1    2    0    0 -0.60223174537E+02 -0.14670585115E+03 -0.10603296297E+02  0.18842575974E+03  0.10120474064E+03 0.  0.
          5    1    3    3  502    0  0.35558869395E+02  0.82584994583E+02  0.68925437232E+01  0.90275656087E+02  0.41800000000E+01 0. -1.
         -5    1    3    3    0  502  0.24664305142E+02  0.64120856568E+02  0.15150929115E+03  0.16641018569E+03  0.41800000000E+01 0. -1.
        -11    1    4    4    0    0  0.25916374192E+02 -0.62175725511E+02 -0.64228225396E+01  0.67666327989E+02  0.00000000000E+00 0. -1.
         11    1    4    4    0    0 -0.86139548728E+02 -0.84530125640E+02 -0.41804737574E+01  0.12075943175E+03  0.00000000000E+00 0.  1.
</event>
<event>
 8    1  0.7136454E-009  0.9167433E+02  0.7561462E-02  0.1298847E+00
         -2   -1    0    0    0  501 -0.00000000000E+00  0.00000000000E+00  0.52251041332E+02  0.52251041332E+02  0.00000000000E+00 0.  1.
          2   -1    0    0  501    0  0.00000000000E+00 -0.00000000000E+00 -0.19335301953E+03  0.19335301953E+03  0.00000000000E+00 0. -1.
         25    2    1    2    0    0  0.29104971533E+02  0.22817595095E+02 -0.85806735303E+02  0.15613880415E+03  0.12509511711E+03 0.  0.
         23    2    1    2    0    0 -0.29104971533E+02 -0.22817595095E+02 -0.55295242896E+02  0.89465256712E+02  0.59822456133E+02 0.  0.
          5    1    3    3  502    0  0.13839009640E+02  0.74687004773E+02 -0.53689534274E+02  0.93111252598E+02  0.41800000000E+01 0.  1.
         -5    1    3    3    0  502  0.15265961893E+02 -0.51869409678E+02 -0.32117201028E+02  0.63027551553E+02  0.41800000000E+01 0.  1.
        -11    1    4    4    0    0 -0.12223485779E+01 -0.25043666666E+02 -0.56136154941E+02  0.61481275749E+02  0.00000000000E+00 0. -1.
         11    1    4    4    0    0 -0.27882622955E+02  0.22260715709E+01  0.84091204469E+00  0.27983980963E+02  0.00000000000E+00 0.  1.
</event>
<event>
 8    1  0.7136454E-009  0.1278531E+03  0.7561462E-02  0.1230677E+00
          1   -1    0    0  501    0  0.00000000000E+00  0.00000000000E+00  0.19396209456E+02  0.19396209456E+02  0.00000000000E+00 0. -1.
         -1   -1    0    0    0  501 -0.00000000000E+00 -0.00000000000E+00 -0.12782608789E+04  0.12782608789E+04  0.00000000000E+00 0.  1.
         25    2    1    2    0    0  0.56099545684E+02  0.96602883408E+02 -0.58820988263E+03  0.61165407874E+03  0.12510223781E+03 0.  0.
         23    2    1    2    0    0 -0.56099545684E+02 -0.96602883408E+02 -0.67065478679E+03  0.68600300959E+03  0.91340078918E+02 0.  0.
          5    1    3    3  502    0  0.64268176471E+01  0.24549077194E+02 -0.11236032141E+02  0.28065672884E+02  0.41800000000E+01 0.  1.
         -5    1    3    3    0  502  0.49672728037E+02  0.72053806214E+02 -0.57697385049E+03  0.58358840585E+03  0.41800000000E+01 0.  1.
        -11    1    4    4    0    0  0.10309760913E+02 -0.70124494249E+02 -0.27804067126E+03  0.28693265889E+03  0.00000000000E+00 0. -1.
         11    1    4    4    0    0 -0.66409306597E+02 -0.26478389159E+02 -0.39261411553E+03  0.39907035070E+03  0.00000000000E+00 0.  1.
</event>
<event>
 8    1  0.7136454E-009  0.1115444E+03  0.7561462E-02  0.1257736E+00
          2   -1    0    0  501    0  0.00000000000E+00  0.00000000000E+00  0.19561407253E+03  0.19561407253E+03  0.00000000000E+00 0. -1.
         -2   -1    0    0    0  501 -0.00000000000E+00 -0.00000000000E+00 -0.12578087579E+03  0.12578087579E+03  0.00000000000E+00 0.  1.
         25    2    1    2    0    0 -0.36393910142E+02  0.60205104783E+02  0.12711995286E+03  0.19171948013E+03  0.12509078826E+03 0.  0.
         23    2    1    2    0    0  0.36393910142E+02 -0.60205104783E+02 -0.57286756121E+02  0.12967546819E+03  0.92654105609E+02 0.  0.
          5    1    3    3  502    0 -0.40262813843E+02  0.90650802542E+02  0.12641370487E+03  0.16073754807E+03  0.41800000000E+01 0. -1.
         -5    1    3    3    0  502  0.38689037017E+01 -0.30445697759E+02  0.70624799560E+00  0.30981932059E+02  0.41800000000E+01 0. -1.
        -11    1    4    4    0    0  0.45672104496E+02 -0.17138189321E+02  0.94698454420E+01  0.49692420298E+02  0.00000000000E+00 0. -1.
         11    1    4    4    0    0 -0.92781943550E+01 -0.43066915462E+02 -0.66756601563E+02  0.79983047893E+02  0.00000000000E+00 0.  1.
</event>
<event>
 8    1  0.7136454E-009  0.1235785E+03  0.7561462E-02  0.1237308E+00
         -2   -1    0    0    0  501 -0.00000000000E+00  0.00000000000E+00  0.37936595118E+03  0.37936595118E+03  0.00000000000E+00 0. -1.
          2   -1    0    0  501    0  0.00000000000E+00 -0.00000000000E+00 -0.56691547104E+02  0.56691547104E+02  0.00000000000E+00 0.  1.
         25    2    1    2    0    0 -0.74956654893E+02 -0.49900801859E+01  0.27039419480E+03  0.30725989238E+03  0.12510883211E+03 0.  0.
         23    2    1    2    0    0  0.74956654893E+02  0.49900801859E+01  0.52280209271E+02  0.12879760590E+03  0.90621200560E+02 0.  0.
          5    1    3    3  502    0  0.27900808205E+02 -0.28126977762E+01  0.15405866412E+02  0.32267312984E+02  0.41800000000E+01 0. -1.
         -5    1    3    3    0  502 -0.10285746310E+03 -0.21773824097E+01  0.25498832839E+03  0.27499257940E+03  0.41800000000E+01 0. -1.
        -11    1    4    4    0    0 -0.19290933287E+02 -0.76414694211E+01  0.10280954750E+01  0.20774723640E+02  0.00000000000E+00 0.  1.
         11    1    4    4    0    0  0.94247588180E+02  0.12631549607E+02  0.51252113796E+02  0.10802288226E+03  0.00000000000E+00 0. -1.
</event>
<event>
 8    1  0.7136454E-009  0.3984175E+03  0.7561462E-02  0.1044329E+00
          1   -1    0    0  501    0  0.00000000000E+00  0.00000000000E+00  0.58346719040E+03  0.58346719040E+03  0.00000000000E+00 0. -1.
         -1   -1    0    0    0  501 -0.00000000000E+00 -0.00000000000E+00 -0.37037197901E+03  0.37037197901E+03  0.00000000000E+00 0.  1.
         25    2    1    2    0    0 -0.18126913957E+03  0.34485963369E+03 -0.12756552035E+03  0.42861195825E+03  0.12509428790E+03 0.  0.
         23    2    1    2    0    0  0.18126913957E+03 -0.34485963369E+03  0.34066073174E+03  0.52522721116E+03  0.89594761459E+02 0.  0.
          5    1    3    3  502    0 -0.49508674783E+02  0.14899183519E+02 -0.30903279365E+02  0.60378635492E+02  0.41800000000E+01 0. -1.
         -5    1    3    3    0  502 -0.13176046479E+03  0.32996045017E+03 -0.96662240987E+02  0.36823332276E+03  0.41800000000E+01 0. -1.
        -11    1    4    4    0    0  0.27046620389E+02 -0.56194844595E+02  0.10429385561E+03  0.12151785281E+03  0.00000000000E+00 0. -1.
         11    1    4    4    0    0  0.15422251918E+03 -0.28866478909E+03  0.23636687613E+03  0.40370935835E+03  0.00000000000E+00 0.  1.
</event>
<event>
 8    1  0.7136454E-009  0.1107214E+03  0.7561462E-02  0.1259240E+00
          1   -1    0    0  501    0  0.00000000000E+00  0.00000000000E+00  0.45904016763E+02  0.45904016763E+02  0.00000000000E+00 0. -1.
         -1   -1    0    0    0  501 -0.00000000000E+00 -0.00000000000E+00 -0.42018429082E+03  0.42018429082E+03  0.00000000000E+00 0.  1.
         25    2    1    2    0    0  0.46423852328E+01 -0.41773279428E+02 -0.32946382669E+03  0.35490838600E+03  0.12508793203E+03 0.  0.
         23    2    1    2    0    0 -0.46423852328E+01  0.41773279428E+02 -0.44816447368E+02  0.11117992158E+03  0.92660144582E+02 0.  0.
          5    1    3    3  502    0  0.53902528718E+02 -0.46968287847E+02 -0.25869879869E+03  0.26842884254E+03  0.41800000000E+01 0.  1.
         -5    1    3    3    0  502 -0.49260143485E+02  0.51950084189E+01 -0.70765028005E+02  0.86479543461E+02  0.41800000000E+01 0.  1.
        -11    1    4    4    0    0 -0.38364387441E+02 -0.87722175571E+01 -0.80788447393E+01  0.40175188324E+02  0.00000000000E+00 0. -1.
         11    1    4    4    0    0  0.33722002208E+02  0.50545496985E+02 -0.36737602629E+02  0.71004733260E+02  0.00000000000E+00 0.  1.
</event>
<event>
 8    1  0.7136454E-009  0.1031118E+03  0.7561462E-02  0.1273885E+00
         -2   -1    0    0    0  501 -0.00000000000E+00  0.00000000000E+00  0.25424515731E+02  0.25424515731E+02  0.00000000000E+00 0.  1.
          2   -1    0    0  501    0  0.00000000000E+00 -0.00000000000E+00 -0.55295801540E+03  0.55295801540E+03  0.00000000000E+00 0. -1.
         25    2    1    2    0    0 -0.18745579738E+02  0.36664280188E+02 -0.34600172570E+03  0.37021738662E+03  0.12509217790E+03 0.  0.
         23    2    1    2    0    0  0.18745579738E+02 -0.36664280188E+02 -0.18153177397E+03  0.20816514451E+03  0.93184098563E+02 0.  0.
          5    1    3    3  502    0  0.47112071344E+02  0.21827268238E+02 -0.77872704923E+02  0.93688886625E+02  0.41800000000E+01 0.  1.
         -5    1    3    3    0  502 -0.65857651082E+02  0.14837011950E+02 -0.26812902077E+03  0.27652850000E+03  0.41800000000E+01 0.  1.
        -11    1    4    4    0    0  0.16907741704E+02  0.22030993937E+02 -0.14958302967E+02  0.31543418505E+02  0.00000000000E+00 0.  1.
         11    1    4    4    0    0  0.18378380340E+01 -0.58695274125E+02 -0.16657347100E+03  0.17662172600E+03  0.00000000000E+00 0. -1.
</event>
<event>
 8    1  0.7136454E-009  0.1497490E+03  0.7561462E-02  0.1200782E+00
         -1   -1    0    0    0  501 -0.00000000000E+00  0.00000000000E+00  0.15294931370E+02  0.15294931370E+02  0.00000000000E+00 0.  1.
          1   -1    0    0  501    0  0.00000000000E+00 -0.00000000000E+00 -0.19425619387E+04  0.19425619387E+04  0.00000000000E+00 0. -1.
         25    2    1    2    0    0 -0.11327418691E+03  0.52896484269E+02 -0.12943355495E+04  0.13063617882E+04  0.12509007725E+03 0.  0.
         23    2    1    2    0    0  0.11327418691E+03 -0.52896484269E+02 -0.63293145781E+03  0.65149508188E+03  0.90634055180E+02 0.  0.
          5    1    3    3  502    0 -0.63867139520E+02  0.91314977844E+02 -0.71550187240E+03  0.72413937781E+03  0.41800000000E+01 0.  1.
         -5    1    3    3    0  502 -0.49407047394E+02 -0.38418493574E+02 -0.57883367709E+03  0.58222241035E+03  0.41800000000E+01 0.  1.
        -11    1    4    4    0    0  0.17401939277E+02 -0.11329545800E+02 -0.17210888953E+02  0.26970368874E+02  0.00000000000E+00 0.  1.
         11    1    4    4    0    0  0.95872247637E+02 -0.41566938469E+02 -0.61572056886E+03  0.62452471301E+03  0.00000000000E+00 0. -1.
</event>
<event>
 8    1  0.7136454E-009  0.9981745E+02  0.7561462E-02  0.1280680E+00
         -2   -1    0    0    0  501 -0.00000000000E+00  0.00000000000E+00  0.27553511778E+02  0.27553511778E+02  0.00000000000E+00 0.  1.
          2   -1    0    0  501    0  0.00000000000E+00 -0.00000000000E+00 -0.47140365185E+03  0.47140365185E+03  0.00000000000E+00 0. -1.
         25    2    1    2    0    0 -0.95092719223E+01 -0.22069230451E+02 -0.19539948671E+03  0.23324231099E+03  0.12507413419E+03 0.  0.
         23    2    1    2    0    0  0.95092719223E+01  0.22069230451E+02 -0.24845065335E+03  0.26571485263E+03  0.91099827501E+02 0.  0.
          5    1    3    3  502    0 -0.19431738885E+02 -0.61455018225E+02 -0.48493469178E+02  0.80767572045E+02  0.41800000000E+01 0. -1.
         -5    1    3    3    0  502  0.99224669625E+01  0.39385787774E+02 -0.14690601753E+03  0.15247473895E+03  0.41800000000E+01 0. -1.
        -11    1    4    4    0    0  0.45649938276E+02 -0.90310117952E+01 -0.12198328714E+03  0.13055802687E+03  0.00000000000E+00 0. -1.
         11    1    4    4    0    0 -0.36140666354E+02  0.31100242246E+02 -0.12646736621E+03  0.13515682576E+03  0.00000000000E+00 0.  1.
</event>
<event>
 8    1  0.7136454E-009  0.2165136E+03  0.7561462E-02  0.1136509E+00
         -2   -1    0    0    0  501 -0.00000000000E+00  0.00000000000E+00  0.26555616953E+02  0.26555616953E+02  0.00000000000E+00 0.  1.
          2   -1    0    0  501    0  0.00000000000E+00 -0.00000000000E+00 -0.22710995006E+04  0.22710995006E+04  0.00000000000E+00 0. -1.
         25    2    1    2    0    0 -0.22238811503E+01 -0.20538116022E+03 -0.15268823615E+04  0.15457049760E+04  0.12509100792E+03 0.  0.
         23    2    1    2    0    0  0.22238811503E+01  0.20538116022E+03 -0.71766152211E+03  0.75195014155E+03  0.90579183197E+02 0.  0.
          5    1    3    3  502    0 -0.48514513866E+02 -0.89289337831E+02 -0.94977049588E+03  0.95520035132E+03  0.41800000000E+01 0.  1.
         -5    1    3    3    0  502  0.46290632716E+02 -0.11609182239E+03 -0.57711186564E+03  0.59050462468E+03  0.41800000000E+01 0.  1.
        -11    1    4    4    0    0  0.10440215987E+02  0.13757726803E+03 -0.60216874028E+03  0.61777317404E+03  0.00000000000E+00 0.  1.
         11    1    4    4    0    0 -0.82163348370E+01  0.67803892194E+02 -0.11549278183E+03  0.13417696751E+03  0.00000000000E+00 0. -1.
</event>
<event>
 8    1  0.7136454E-009  0.7110670E+02  0.7561462E-02  0.1356370E+00
         -2   -1    0    0    0  501 -0.00000000000E+00  0.00000000000E+00  0.22756325454E+02  0.22756325454E+02  0.00000000000E+00 0.  1.
          2   -1    0    0  501    0  0.00000000000E+00 -0.00000000000E+00 -0.57079632845E+03  0.57079632845E+03  0.00000000000E+00 0. -1.
         25    2    1    2    0    0  0.24925225367E+02 -0.18764006666E+02 -0.32843127557E+03  0.35282901837E+03  0.12509140108E+03 0.  0.
         23    2    1    2    0    0 -0.24925225367E+02  0.18764006666E+02 -0.21960872742E+03  0.24072363554E+03  0.93522835388E+02 0.  0.
          5    1    3    3  502    0 -0.63587816372E+01 -0.17891919908E+01 -0.31415602490E+03  0.31425326680E+03  0.41800000000E+01 0. -1.
         -5    1    3    3    0  502  0.31284007004E+02 -0.16974814675E+02 -0.14275250672E+02  0.38575751571E+02  0.41800000000E+01 0. -1.
        -11    1    4    4    0    0 -0.49974982361E+02 -0.18812347566E+02 -0.11599957220E+03  0.12770005495E+03  0.00000000000E+00 0.  1.
         11    1    4    4    0    0  0.25049756994E+02  0.37576354232E+02 -0.10360915522E+03  0.11302358058E+03  0.00000000000E+00 0. -1.
</event>
<event>
 8    1  0.7136454E-009  0.2604940E+03  0.7561462E-02  0.1106847E+00
          2   -1    0    0  501    0  0.00000000000E+00  0.00000000000E+00  0.12684777337E+04  0.12684777337E+04  0.00000000000E+00 0. -1.
         -2   -1    0    0    0  501 -0.00000000000E+00 -0.00000000000E+00 -0.69625972472E+02  0.69625972472E+02  0.00000000000E+00 0.  1.
         25    2    1    2    0    0 -0.16336738063E+03  0.18945015759E+03  0.87823171787E+03  0.92169341477E+03  0.12509011671E+03 0.  0.
         23    2    1    2    0    0  0.16336738063E+03 -0.18945015759E+03  0.32062004333E+03  0.41641029137E+03  0.89554761509E+02 0.  0.
          5    1    3    3  502    0 -0.65668886434E+02  0.11844138234E+03  0.27610064597E+03  0.30755455256E+03  0.41800000000E+01 0.  1.
         -5    1    3    3    0  502 -0.97698494200E+02  0.71008775244E+02  0.60213107189E+03  0.61413886221E+03  0.41800000000E+01 0.  1.
        -11    1    4    4    0    0  0.94018071052E+00 -0.51596468329E+02  0.78068510678E+02  0.93582967699E+02  0.00000000000E+00 0. -1.
         11    1    4    4    0    0  0.16242719992E+03 -0.13785368926E+03  0.24255153266E+03  0.32282732367E+03  0.00000000000E+00 0.  1.
</event>
<event>
 8    1  0.7136454E-009  0.1685852E+03  0.7561462E-02  0.1179331E+00
          2   -1    0    0  501    0  0.00000000000E+00  0.00000000000E+00  0.21799442844E+04  0.21799442844E+04  0.00000000000E+00 0.  1.
         -2   -1    0    0    0  501 -0.00000000000E+00 -0.00000000000E+00 -0.17709494439E+02  0.17709494439E+02  0.00000000000E+00 0. -1.
         25    2    1    2    0    0  0.13263227248E+02  0.13908328225E+03  0.16361760000E+04  0.16468880128E+04  0.12509257025E+03 0.  0.
         23    2    1    2    0    0 -0.13263227248E+02 -0.13908328225E+03  0.52605878995E+03  0.55076576603E+03  0.84172477362E+02 0.  0.
          5    1    3    3  502    0  0.21767928153E+02 -0.12992439723E+02  0.10287811785E+03  0.10603785041E+03  0.41800000000E+01 0.  1.
         -5    1    3    3    0  502 -0.85047009046E+01  0.15207572197E+03  0.15332978821E+04  0.15408501624E+04  0.41800000000E+01 0.  1.
        -11    1    4    4    0    0 -0.30617847063E+02 -0.15512304232E+02  0.17119498680E+03  0.17460185465E+03  0.00000000000E+00 0. -1.
         11    1    4    4    0    0  0.17354619815E+02 -0.12357097802E+03  0.35486380315E+03  0.37616391138E+03  0.00000000000E+00 0.  1.
</event>
<event>
 8    1  0.7136454E-009  0.7830876E+02  0.7561462E-02  0.1333921E+00
         -2   -1    0    0    0  501 -0.00000000000E+00  0.00000000000E+00  0.67778052407E+02  0.67778052407E+02  0.00000000000E+00 0. -1.
          2   -1    0    0  501    0  0.00000000000E+00 -0.00000000000E+00 -0.29459353071E+03  0.29459353071E+03  0.00000000000E+00 0.  1.
         25    2    1    2    0    0 -0.41487674455E+01  0.17039657980E+02 -0.23354488477E+03  0.26551527777E+03  0.12509031661E+03 0.  0.
         23    2    1    2    0    0  0.41487674455E+01 -0.17039657980E+02  0.67294064750E+01  0.96856305341E+02  0.95017349771E+02 0.  0.
          5    1    3    3  502    0 -0.47588498330E+02 -0.53724813351E+01 -0.31204604957E+02  0.57312550977E+02  0.41800000000E+01 0. -1.
         -5    1    3    3    0  502  0.43439730884E+02  0.22412139315E+02 -0.20234027982E+03  0.20820272679E+03  0.41800000000E+01 0. -1.
        -11    1    4    4    0    0  0.51466198776E+01 -0.38077704410E+02 -0.33804177137E+02  0.51177354965E+02  0.00000000000E+00 0.  1.
         11    1    4    4    0    0 -0.99785243215E+00  0.21038046430E+02  0.40533583612E+02  0.45678950376E+02  0.00000000000E+00 0. -1.
</event>
<event>
 8    1  0.7136454E-009  0.2660799E+03  0.7561462E-02  0.1103544E+00
          2   -1    0    0  501    0  0.00000000000E+00  0.00000000000E+00  0.85621104998E+02  0.85621104998E+02  0.00000000000E+00 0.  1.
         -2   -1    0    0    0  501 -0.00000000000E+00 -0.00000000000E+00 -0.86170755406E+03  0.86170755406E+03  0.00000000000E+00 0. -1.
         25    2    1    2    0    0  0.20020612692E+03 -0.14435350655E+03 -0.44857653658E+03  0.52706432093E+03  0.12512178515E+03 0.  0.
         23    2    1    2    0    0 -0.20020612692E+03  0.14435350655E+03 -0.32750991248E+03  0.42026433813E+03  0.91863719842E+02 0.  0.
          5    1    3    3  502    0  0.36409950152E+02 -0.98771190883E+02 -0.14726753797E+03  0.18107079488E+03  0.41800000000E+01 0.  1.
         -5    1    3    3    0  502  0.16379617676E+03 -0.45582315663E+02 -0.30130899862E+03  0.34599352605E+03  0.41800000000E+01 0.  1.
        -11    1    4    4    0    0 -0.10159215225E+03  0.11585222977E+03 -0.24086635781E+03  0.28593584397E+03  0.00000000000E+00 0. -1.
         11    1    4    4    0    0 -0.98613974666E+02  0.28501276773E+02 -0.86643554670E+02  0.13432849416E+03  0.00000000000E+00 0.  1.
</event>
<event>
 8    1  0.7136454E-009  0.1237332E+03  0.7561462E-02  0.1237063E+00
          1   -1    0    0  501    0  0.00000000000E+00  0.00000000000E+00  0.18833338469E+03  0.18833338469E+03  0.00000000000E+00 0. -1.
         -1   -1    0    0    0  501 -0.00000000000E+00 -0.00000000000E+00 -0.95612933287E+02  0.95612933287E+02  0.00000000000E+00 0.  1.
         25    2    1    2    0    0  0.83205460724E+01 -0.78824531700E+02  0.67211254233E+02  0.16262843805E+03  0.12509243735E+03 0.  0.
         23    2    1    2    0    0 -0.83205460724E+01  0.78824531700E+02  0.25509197172E+02  0.12131787993E+03  0.88231346839E+02 0.  0.
          5    1    3    3  502    0  0.19305433218E+02  0.23167530827E+02  0.49983951651E+02  0.58526080161E+02  0.41800000000E+01 0. -1.
         -5    1    3    3    0  502 -0.10984887146E+02 -0.10199206253E+03  0.17227302582E+02  0.10410235789E+03  0.41800000000E+01 0. -1.
        -11    1    4    4    0    0 -0.45072874306E+02  0.52227125479E+02  0.30976707047E+02  0.75622701707E+02  0.00000000000E+00 0. -1.
         11    1    4    4    0    0  0.36752328234E+02  0.26597406221E+02 -0.54675098749E+01  0.45695178220E+02  0.00000000000E+00 0.  1.
</event>
<event>
 8    1  0.7136454E-009  0.1109111E+03  0.7561462E-02  0.1258892E+00
         -1   -1    0    0    0  501 -0.00000000000E+00  0.00000000000E+00  0.49435318657E+02  0.49435318657E+02  0.00000000000E+00 0.  1.
          1   -1    0    0  501    0  0.00000000000E+00 -0.00000000000E+00 -0.28820218359E+03  0.28820218359E+03  0.00000000000E+00 0. -1.
         25    2    1    2    0    0  0.20612290250E+02  0.47002078892E+02 -0.15253753516E+03  0.20383591726E+03  0.12508924656E+03 0.  0.
         23    2    1    2    0    0 -0.20612290250E+02 -0.47002078892E+02 -0.86229329767E+02  0.13380158498E+03  0.88505959695E+02 0.  0.
          5    1    3    3  502    0  0.35569080892E+02  0.85593634957E+02 -0.94557800815E+02  0.13247671477E+03  0.41800000000E+01 0.  1.
         -5    1    3    3    0  502 -0.14956790642E+02 -0.38591556066E+02 -0.57979734346E+02  0.71359202495E+02  0.41800000000E+01 0.  1.
        -11    1    4    4    0    0 -0.42492393197E+02 -0.49704835687E+02 -0.90190220886E+02  0.11140219977E+03  0.00000000000E+00 0. -1.
         11    1    4    4    0    0  0.21880102947E+02  0.27027567955E+01  0.39608911189E+01  0.22399385209E+02  0.00000000000E+00 0.  1.
</event>
<event>
 8    1  0.7136454E-009  0.1089707E+03  0.7561462E-02  0.1262488E+00
          3   -1    0    0  501    0  0.00000000000E+00  0.00000000000E+00  0.20612657028E+03  0.20612657028E+03  0.00000000000E+00 0. -1.
         -3   -1    0    0    0  501 -0.00000000000E+00 -0.00000000000E+00 -0.10452110968E+03  0.10452110968E+03  0.00000000000E+00 0.  1.
         25    2    1    2    0    0  0.33785235098E+02 -0.84687103009E+02  0.94875539646E+02  0.18155507786E+03  0.12509009052E+03 0.  0.
         23    2    1    2    0    0 -0.33785235098E+02  0.84687103009E+02  0.67299209592E+01  0.12909260210E+03  0.91138688573E+02 0.  0.
          5    1    3    3  502    0  0.92419549471E+01 -0.29052377082E+02  0.11367813526E+03  0.11776945776E+03  0.41800000000E+01 0. -1.
         -5    1    3    3    0  502  0.24543280151E+02 -0.55634725927E+02 -0.18802595611E+02  0.63785620098E+02  0.41800000000E+01 0. -1.
        -11    1    4    4    0    0 -0.41095984349E+01  0.94782816420E+02  0.16421613856E+02  0.96282607409E+02  0.00000000000E+00 0.  1.
         11    1    4    4    0    0 -0.29675636663E+02 -0.10095713410E+02 -0.96916928970E+01  0.32809994694E+02  0.00000000000E+00 0. -1.
</event>
<event>
 8    1  0.7136454E-009  0.1146167E+03  0.7561462E-02  0.1252252E+00
          1   -1    0    0  501    0  0.00000000000E+00  0.00000000000E+00  0.17662024178E+03  0.17662024178E+03  0.00000000000E+00 0. -1.
         -1   -1    0    0    0  501 -0.00000000000E+00 -0.00000000000E+00 -0.95682264290E+02  0.95682264290E+02  0.00000000000E+00 0.  1.
         25    2    1    2    0    0 -0.57397315972E+02 -0.33498627177E+02  0.21788810984E+02  0.14331604651E+03  0.12509247379E+03 0.  0.
         23    2    1    2    0    0  0.57397315972E+02  0.33498627177E+02  0.59149166509E+02  0.12898645956E+03  0.93393109749E+02 0.  0.
          5    1    3    3  502    0  0.22094889440E+02  0.29479743281E+02  0.19262195524E+02  0.41782101188E+02  0.41800000000E+01 0. -1.
         -5    1    3    3    0  502 -0.79492205412E+02 -0.62978370458E+02  0.25266154596E+01  0.10153394532E+03  0.41800000000E+01 0. -1.
        -11    1    4    4    0    0  0.19088338250E+02  0.46446420121E+02  0.70894560717E+02  0.86877346521E+02  0.00000000000E+00 0. -1.
         11    1    4    4    0    0  0.38308977721E+02 -0.12947792943E+02 -0.11745394208E+02  0.42109113043E+02  0.00000000000E+00 0.  1.
</event>
<event>
 8    1  0.7136454E-009  0.1037305E+03  0.7561462E-02  0.1272641E+00
         -1   -1    0    0    0  501 -0.00000000000E+00  0.00000000000E+00  0.20076327117E+02  0.20076327117E+02  0.00000000000E+00 0.  1.
          1   -1    0    0  501    0  0.00000000000E+00 -0.00000000000E+00 -0.65487218013E+03  0.65487218013E+03  0.00000000000E+00 0. -1.
         25    2    1    2    0    0  0.86884306252E+00 -0.14537276201E+02 -0.48944539424E+03  0.50538695965E+03  0.12508835978E+03 0.  0.
         23    2    1    2    0    0 -0.86884306252E+00  0.14537276201E+02 -0.14535045878E+03  0.16956154760E+03  0.86094571667E+02 0.  0.
          5    1    3    3  502    0  0.41306722441E+02  0.38118649518E+02 -0.17038262539E+03  0.17946305524E+03  0.41800000000E+01 0. -1.
         -5    1    3    3    0  502 -0.40437879379E+02 -0.52655925719E+02 -0.31906276885E+03  0.32592390441E+03  0.41800000000E+01 0. -1.
        -11    1    4    4    0    0  0.13140234709E+02  0.47221158940E+02 -0.10435254364E+03  0.11529074978E+03  0.00000000000E+00 0. -1.
         11    1    4    4    0    0 -0.14009077772E+02 -0.32683882739E+02 -0.40997915138E+02  0.54270797825E+02  0.00000000000E+00 0.  1.
</event>
<event>
 8    1  0.7136454E-009  0.1304490E+03  0.7561462E-02  0.1226791E+00
         -2   -1    0    0    0  501 -0.00000000000E+00  0.00000000000E+00  0.98191209321E+02  0.98191209321E+02  0.00000000000E+00 0. -1.
          2   -1    0    0  501    0  0.00000000000E+00 -0.00000000000E+00 -0.26304814500E+03  0.26304814500E+03  0.00000000000E+00 0.  1.
         25    2    1    2    0    0  0.80067175514E+01 -0.72605646241E+02  0.15927360754E+02  0.14571702669E+03  0.12507631133E+03 0.  0.
         23    2    1    2    0    0 -0.80067175514E+01  0.72605646241E+02 -0.18078429643E+03  0.21552232763E+03  0.91821699377E+02 0.  0.
          5    1    3    3  502    0 -0.45562823044E+02 -0.78417957532E+02  0.92358728669E+01  0.91258537436E+02  0.41800000000E+01 0.  1.
         -5    1    3    3    0  502  0.53569540596E+02  0.58123112917E+01  0.66914878876E+01  0.54458489259E+02  0.41800000000E+01 0.  1.
        -11    1    4    4    0    0  0.41270291432E+02  0.32991100777E+02 -0.98226643478E+02  0.11153530013E+03  0.00000000000E+00 0.  1.
         11    1    4    4    0    0 -0.49277008984E+02  0.39614545464E+02 -0.82557652955E+02  0.10398702750E+03  0.00000000000E+00 0. -1.
</event>
<event>
 8    1  0.7136454E-009  0.1190532E+03  0.7561462E-02  0.1244667E+00
          2   -1    0    0  501    0  0.00000000000E+00  0.00000000000E+00  0.17935854342E+03  0.17935854342E+03  0.00000000000E+00 0. -1.
         -2   -1    0    0    0  501 -0.00000000000E+00 -0.00000000000E+00 -0.16738228447E+03  0.16738228447E+03  0.00000000000E+00 0.  1.
         25    2    1    2    0    0 -0.28647646742E+02  0.99943993502E+02 -0.77358796735E+02  0.18010749191E+03  0.12507931767E+03 0.  0.
         23    2    1    2    0    0  0.28647646742E+02 -0.99943993502E+02  0.89335055689E+02  0.16663333598E+03  0.94744007647E+02 0.  0.
          5    1    3    3  502    0 -0.33552635344E+02  0.10594722359E+03 -0.94308615376E+01  0.11161096306E+03  0.41800000000E+01 0. -1.
         -5    1    3    3    0  502  0.49049886019E+01 -0.60032300882E+01 -0.67927935198E+02  0.68496528853E+02  0.41800000000E+01 0. -1.
        -11    1    4    4    0    0  0.43245110297E+02 -0.50263098187E+02  0.35119419061E+01  0.66399189302E+02  0.00000000000E+00 0.  1.
         11    1    4    4    0    0 -0.14597463555E+02 -0.49680895315E+02  0.85823113783E+02  0.10023414668E+03  0.00000000000E+00 0. -1.
</event>
<event>
 8    1  0.7136454E-009  0.9607355E+02  0.7561462E-02  0.1288776E+00
         -2   -1    0    0    0  501 -0.00000000000E+00  0.00000000000E+00  0.26463357431E+02  0.26463357431E+02  0.00000000000E+00 0.  1.
          2   -1    0    0  501    0  0.00000000000E+00 -0.00000000000E+00 -0.63473054701E+03  0.63473054701E+03  0.00000000000E+00 0. -1.
         25    2    1    2    0    0 -0.29485332560E+02  0.33997925178E+02 -0.47888609410E+03  0.49699559733E+03  0.12508992320E+03 0.  0.
         23    2    1    2    0    0  0.29485332560E+02 -0.33997925178E+02 -0.12938109547E+03  0.16419830711E+03  0.90533819312E+02 0.  0.
          5    1    3    3  502    0 -0.21644732936E+02 -0.43773043265E+02 -0.25889587241E+03  0.26349405863E+03  0.41800000000E+01 0. -1.
         -5    1    3    3    0  502 -0.78405996236E+01  0.77770968443E+02 -0.21999022169E+03  0.23350153870E+03  0.41800000000E+01 0. -1.
        -11    1    4    4    0    0  0.78363115019E+01 -0.41281063243E+02 -0.13439744845E+03  0.14081267028E+03  0.00000000000E+00 0. -1.
         11    1    4    4    0    0  0.21649021058E+02  0.72831380651E+01  0.50163529786E+01  0.23385636832E+02  0.00000000000E+00 0.  1.
</event>
<event>
 8    1  0.7136454E-009  0.1027157E+03  0.7561462E-02  0.1274687E+00
          2   -1    0    0  501    0  0.00000000000E+00  0.00000000000E+00  0.47468225272E+02  0.47468225272E+02  0.00000000000E+00 0.  1.
         -2   -1    0    0    0  501 -0.00000000000E+00 -0.00000000000E+00 -0.25445837002E+03  0.25445837002E+03  0.00000000000E+00 0. -1.
         25    2    1    2    0    0  0.85580451693E+01  0.66707175802E+01 -0.10191856748E+03  0.16170678629E+03  0.12507578392E+03 0.  0.
         23    2    1    2    0    0 -0.85580451693E+01 -0.66707175802E+01 -0.10507157726E+03  0.14021980900E+03  0.92216158444E+02 0.  0.
          5    1    3    3  502    0 -0.53263564947E+02  0.13470391295E+02 -0.19668386427E+02  0.58504500828E+02  0.41800000000E+01 0. -1.
         -5    1    3    3    0  502  0.61821610116E+02 -0.67996737145E+01 -0.82250181056E+02  0.10320228546E+03  0.41800000000E+01 0. -1.
        -11    1    4    4    0    0  0.20968386870E+02  0.32663129990E+02 -0.69210009897E+02  0.79350984736E+02  0.00000000000E+00 0. -1.
         11    1    4    4    0    0 -0.29526432039E+02 -0.39333847570E+02 -0.35861567365E+02  0.60868824266E+02  0.00000000000E+00 0.  1.
</event>
<event>
 8    1  0.7136454E-009  0.1149708E+03  0.7561462E-02  0.1251632E+00
          2   -1    0    0  501    0  0.00000000000E+00  0.00000000000E+00  0.34415954808E+03  0.34415954808E+03  0.00000000000E+00 0. -1.
         -2   -1    0    0    0  501 -0.00000000000E+00 -0.00000000000E+00 -0.77738375649E+02  0.77738375649E+02  0.00000000000E+00 0.  1.
         25    2    1    2    0    0  0.70011070329E+02  0.55604341433E+02  0.35376397155E+02  0.15777331158E+03  0.12509010998E+03 0.  0.
         23    2    1    2    0    0 -0.70011070329E+02 -0.55604341433E+02  0.23104477528E+03  0.26412461215E+03  0.91579090443E+02 0.  0.
          5    1    3    3  502    0  0.26165358667E+02 -0.68772805706E+01  0.69021234305E+02  0.74251775516E+02  0.41800000000E+01 0.  1.
         -5    1    3    3    0  502  0.43845711661E+02  0.62481622004E+02 -0.33644837150E+02  0.83521536062E+02  0.41800000000E+01 0.  1.
        -11    1    4    4    0    0  0.96031869810E+01 -0.44752148697E+02  0.63145805923E+02  0.77989543010E+02  0.00000000000E+00 0. -1.
         11    1    4    4    0    0 -0.79614257310E+02 -0.10852192736E+02  0.16789896935E+03  0.18613506914E+03  0.00000000000E+00 0.  1.
</event>
<event>
 8    1  0.7136454E-009  0.8844464E+02  0.7561462E-02  0.1306663E+00
         -1   -1    0    0    0  501 -0.00000000000E+00  0.00000000000E+00  0.52076878872E+02  0.52076878872E+02  0.00000000000E+00 0.  1.
          1   -1    0    0  501    0  0.00000000000E+00 -0.00000000000E+00 -0.22721097656E+03  0.22721097656E+03  0.00000000000E+00 0. -1.
         25    2    1    2    0    0  0.19065767703E+02 -0.28108308691E+01 -0.81551602183E+02  0.15056355187E+03  0.12508922841E+03 0.  0.
         23    2    1    2    0    0 -0.19065767703E+02  0.28108308691E+01 -0.93582495506E+02  0.12872430356E+03  0.86260411513E+02 0.  0.
          5    1    3    3  502    0  0.13529396032E+02 -0.61885713394E+02 -0.59845684874E+02  0.87245999778E+02  0.41800000000E+01 0. -1.
         -5    1    3    3    0  502  0.55363716714E+01  0.59074882525E+02 -0.21705917310E+02  0.63317552091E+02  0.41800000000E+01 0. -1.
        -11    1    4    4    0    0  0.15640739289E+02  0.98858814512E+01 -0.91381209364E+02  0.93235662717E+02  0.00000000000E+00 0. -1.
         11    1    4    4    0    0 -0.34706506993E+02 -0.70750505821E+01 -0.22012861420E+01  0.35488640846E+02  0.00000000000E+00 0.  1.
</event>
<event>
 8    1  0.7136454E-009  0.9778507E+02  0.7561462E-02  0.1285024E+00
          1   -1    0    0  501    0  0.00000000000E+00  0.00000000000E+00  0.12605543818E+03  0.12605543818E+03  0.00000000000E+00 0. -1.
         -1   -1    0    0    0  501 -0.00000000000E+00 -0.00000000000E+00 -0.16921270159E+03  0.16921270159E+03  0.00000000000E+00 0.  1.
         25    2    1    2    0    0  0.25284658148E+02  0.15417285235E+02 -0.11766618108E+03  0.17427068101E+03  0.12509170024E+03 0.  0.
         23    2    1    2    0    0 -0.25284658148E+02 -0.15417285235E+02  0.74508917675E+02  0.12099745876E+03  0.90618980308E+02 0.  0.
          5    1    3    3  502    0 -0.37970774072E+02  0.41189837165E+01  0.18991199292E+01  0.38468490574E+02  0.41800000000E+01 0.  1.
         -5    1    3    3    0  502  0.63255432220E+02  0.11298301518E+02 -0.11956530101E+03  0.13580219044E+03  0.41800000000E+01 0.  1.
        -11    1    4    4    0    0  0.31347887710E+02 -0.17845797698E+02  0.43063429975E+02  0.56174919319E+02  0.00000000000E+00 0.  1.
         11    1    4    4    0    0 -0.56632545857E+02  0.24285124631E+01  0.31445487701E+02  0.64822539443E+02  0.00000000000E+00 0. -1.
</event>
<event>
 8    1  0.7136454E-009  0.1192588E+03  0.7561462E-02  0.1244325E+00
         -1   -1    0    0    0  501 -0.00000000000E+00  0.00000000000E+00  0.10365754206E+03  0.10365754206E+03  0.00000000000E+00 0.  1.
          1   -1    0    0  501    0  0.00000000000E+00 -0.00000000000E+00 -0.23002225466E+03  0.23002225466E+03  0.00000000000E+00 0. -1.
         25    2    1    2    0    0 -0.63560020307E+02  0.65581416844E+02 -0.13309922476E+03  0.20422031024E+03  0.12509889315E+03 0.  0.
         23    2    1    2    0    0  0.63560020307E+02 -0.65581416844E+02  0.67345121532E+01  0.12945948648E+03  0.91507412638E+02 0.  0.
          5    1    3    3  502    0 -0.11674892266E+02 -0.15603311735E+02  0.16740266477E+02  0.26028357002E+02  0.41800000000E+01 0. -1.
         -5    1    3    3    0  502 -0.51885128041E+02  0.81184728579E+02 -0.14983949124E+03  0.17819195324E+03  0.41800000000E+01 0. -1.
        -11    1    4    4    0    0  0.82342146276E+02 -0.43389760473E+02 -0.13485247703E+02  0.94046543120E+02  0.00000000000E+00 0. -1.
         11    1    4    4    0    0 -0.18782125969E+02 -0.22191656371E+02  0.20219759856E+02  0.35412943355E+02  0.00000000000E+00 0.  1.
</event>
<event>
 8    1  0.7136454E-009  0.9644585E+02  0.7561462E-02  0.1287952E+00
         -1   -1    0    0    0  501 -0.00000000000E+00  0.00000000000E+00  0.25475750130E+03  0.25475750130E+03  0.00000000000E+00 0.  1.
          1   -1    0    0  501    0  0.00000000000E+00 -0.00000000000E+00 -0.55005002947E+02  0.55005002947E+02  0.00000000000E+00 0. -1.
         25    2    1    2    0    0 -0.22822065134E+02  0.75140718045E+01  0.61949238023E+02  0.14164243607E+03  0.12509022213E+03 0.  0.
         23    2    1    2    0    0  0.22822065134E+02 -0.75140718045E+01  0.13780326033E+03  0.16812006817E+03  0.93259373966E+02 0.  0.
          5    1    3    3  502    0  0.34731978063E+02 -0.39033777929E+02  0.33639897297E+02  0.62282109869E+02  0.41800000000E+01 0. -1.
         -5    1    3    3    0  502 -0.57554043197E+02  0.46547849733E+02  0.28309340726E+02  0.79360326205E+02  0.41800000000E+01 0. -1.
        -11    1    4    4    0    0 -0.21503454445E+02 -0.91926028532E+00 -0.17053644739E+01  0.21590550260E+02  0.00000000000E+00 0. -1.
         11    1    4    4    0    0  0.44325519579E+02 -0.65948115192E+01  0.13950862480E+03  0.14652951791E+03  0.00000000000E+00 0.  1.
</event>
<event>
 8    1  0.7136454E-009  0.1315585E+03  0.7561462E-02  0.1225161E+00
          1   -1    0    0  501    0  0.00000000000E+00  0.00000000000E+00  0.14470318991E+03  0.14470318991E+03  0.00000000000E+00 0. -1.
         -1   -1    0    0    0  501 -0.00000000000E+00 -0.00000000000E+00 -0.13624240186E+03  0.13624240186E+03  0.00000000000E+00 0.  1.
         25    2    1    2    0    0  0.38294776418E+02  0.80002308351E+02  0.13319311422E+02  0.15392055819E+03  0.12508906800E+03 0.  0.
         23    2    1    2    0    0 -0.38294776418E+02 -0.80002308351E+02 -0.48585233713E+01  0.12702503359E+03  0.90801402338E+02 0.  0.
          5    1    3    3  502    0  0.80303769582E+02  0.70398773415E+02  0.23538430701E+02  0.10943588455E+03  0.41800000000E+01 0. -1.
         -5    1    3    3    0  502 -0.42008993165E+02  0.96035349366E+01 -0.10219119279E+02  0.44484673640E+02  0.41800000000E+01 0. -1.
        -11    1    4    4    0    0 -0.51269799536E+02 -0.26148799292E+02  0.26510474030E+02  0.63365268738E+02  0.00000000000E+00 0.  1.
         11    1    4    4    0    0  0.12975023118E+02 -0.53853509059E+02 -0.31368997402E+02  0.63659764851E+02  0.00000000000E+00 0. -1.
</event>
<event>
 8    1  0.7136454E-009  0.1945280E+03  0.7561462E-02  0.1154440E+00
          1   -1    0    0  501    0  0.00000000000E+00  0.00000000000E+00  0.84888727649E+03  0.84888727649E+03  0.00000000000E+00 0. -1.
         -1   -1    0    0    0  501 -0.00000000000E+00 -0.00000000000E+00 -0.55198645796E+02  0.55198645796E+02  0.00000000000E+00 0.  1.
         25    2    1    2    0    0 -0.18570111829E+03  0.88286682213E+01  0.44738302593E+03  0.50036197375E+03  0.12509069577E+03 0.  0.
         23    2    1    2    0    0  0.18570111829E+03 -0.88286682213E+01  0.34630560476E+03  0.40372394853E+03  0.92209565724E+02 0.  0.
          5    1    3    3  502    0 -0.48667430411E+02 -0.26830957812E+02  0.38768780756E+02  0.67888952277E+02  0.41800000000E+01 0.  1.
         -5    1    3    3    0  502 -0.13703368788E+03  0.35659626033E+02  0.40861424517E+03  0.43247302147E+03  0.41800000000E+01 0.  1.
        -11    1    4    4    0    0  0.62360894816E+02 -0.25169043878E+02  0.54702991211E+02  0.86687826247E+02  0.00000000000E+00 0.  1.
         11    1    4    4    0    0  0.12334022348E+03  0.16340375657E+02  0.29160261355E+03  0.31703612229E+03  0.00000000000E+00 0. -1.
</event>
<event>
 8    1  0.7136454E-009  0.1289668E+03  0.7561462E-02  0.1228997E+00
          1   -1    0    0  501    0  0.00000000000E+00  0.00000000000E+00  0.22878607646E+03  0.22878607646E+03  0.00000000000E+00 0. -1.
         -1   -1    0    0    0  501 -0.00000000000E+00 -0.00000000000E+00 -0.11192275021E+03  0.11192275021E+03  0.00000000000E+00 0.  1.
         25    2    1    2    0    0  0.10646690397E+03  0.23481817751E+02  0.42070933529E+02  0.17118788150E+03  0.12509488366E+03 0.  0.
         23    2    1    2    0    0 -0.10646690397E+03 -0.23481817751E+02  0.74792392717E+02  0.16952094517E+03  0.10609831024E+03 0.  0.
          5    1    3    3  502    0  0.90184874937E+02  0.25082754450E+02  0.84091118370E+02  0.12590172686E+03  0.41800000000E+01 0.  1.
         -5    1    3    3    0  502  0.16282029038E+02 -0.16009366994E+01 -0.42020184840E+02  0.45286154638E+02  0.41800000000E+01 0.  1.
        -11    1    4    4    0    0 -0.90530472425E+02  0.26949739294E+02  0.27007456124E+02  0.98241832087E+02  0.00000000000E+00 0.  1.
         11    1    4    4    0    0 -0.15936431550E+02 -0.50431557045E+02  0.47784936593E+02  0.71279113082E+02  0.00000000000E+00 0. -1.
</event>
<event>
 8    1  0.7136454E-009  0.1244980E+03  0.7561462E-02  0.1235856E+00
          2   -1    0    0  501    0  0.00000000000E+00  0.00000000000E+00  0.69986512501E+03  0.69986512501E+03  0.00000000000E+00 0. -1.
         -2   -1    0    0    0  501 -0.00000000000E+00 -0.00000000000E+00 -0.32844764305E+02  0.32844764305E+02  0.00000000000E+00 0.  1.
         25    2    1    2    0    0  0.25312820145E+02 -0.80548940677E+02  0.20805018967E+03  0.25701738049E+03  0.12507670344E+03 0.  0.
         23    2    1    2    0    0 -0.25312820145E+02  0.80548940677E+02  0.45897017103E+03  0.47569250883E+03  0.92200186257E+02 0.  0.
          5    1    3    3  502    0  0.64831835209E+01  0.30298364680E+02  0.83557368498E+02  0.89215070482E+02  0.41800000000E+01 0.  1.
         -5    1    3    3    0  502  0.18829636625E+02 -0.11084730536E+03  0.12449282118E+03  0.16780231001E+03  0.41800000000E+01 0.  1.
        -11    1    4    4    0    0 -0.23304427706E+02  0.91327605305E+02  0.45395336846E+03  0.46363508126E+03  0.00000000000E+00 0. -1.
         11    1    4    4    0    0 -0.20083924391E+01 -0.10778664628E+02  0.50168025741E+01  0.12057427563E+02  0.00000000000E+00 0.  1.
</event>
<event>
 8    1  0.7136454E-009  0.8531430E+02  0.7561462E-02  0.1314613E+00
         -3   -1    0    0    0  501 -0.00000000000E+00  0.00000000000E+00  0.73620287782E+02  0.73620287782E+02  0.00000000000E+00 0.  1.
          3   -1    0    0  501    0  0.00000000000E+00 -0.00000000000E+00 -0.16155714915E+03  0.16155714915E+03  0.00000000000E+00 0. -1.
         25    2    1    2    0    0  0.47075369851E+01  0.33592506749E+01 -0.68517073060E+02  0.14276361094E+03  0.12511360373E+03 0.  0.
         23    2    1    2    0    0 -0.47075369851E+01 -0.33592506749E+01 -0.19419788305E+02  0.92413825991E+02  0.90165079643E+02 0.  0.
          5    1    3    3  502    0  0.48222736539E+02 -0.43577850769E+01 -0.82904262490E+02  0.96098968512E+02  0.41800000000E+01 0.  1.
         -5    1    3    3    0  502 -0.43515199554E+02  0.77170357518E+01  0.14387189430E+02  0.46664642425E+02  0.41800000000E+01 0.  1.
        -11    1    4    4    0    0 -0.41122009026E+02 -0.28347651805E+01  0.13447035046E+02  0.43357563025E+02  0.00000000000E+00 0.  1.
         11    1    4    4    0    0  0.36414472040E+02 -0.52448549439E+00 -0.32866823351E+02  0.49056262966E+02  0.00000000000E+00 0. -1.
</event>
<event>
 7    1  0.7136454E-009  0.9573551E+02  0.7561462E-02  0.1289528E+00
         -4   -1    0    0    0  501 -0.00000000000E+00  0.00000000000E+00  0.19308359340E+03  0.19308359340E+03  0.00000000000E+00 0.  1.
          4   -1    0    0  501    0  0.00000000000E+00 -0.00000000000E+00 -0.67926846308E+02  0.67926846308E+02  0.00000000000E+00 0. -1.
         23    2    1    2    0    0  0.32353044924E+02  0.52512612990E+01  0.71876414132E+02  0.12120914202E+03  0.91930092677E+02 0.  0.
          5    1    1    2  502    0 -0.38679975544E+02 -0.43768621276E+02  0.74828866152E+02  0.95019283969E+02  0.41800000000E+01 0.  1.
         -5    1    1    2    0  502  0.63269306203E+01  0.38517359977E+02 -0.21548533187E+02  0.44782013724E+02  0.41800000000E+01 0.  1.
        -11    1    3    3    0    0 -0.25108229962E+02 -0.18795632774E+02  0.88345119664E+01  0.32584469074E+02  0.00000000000E+00 0.  1.
         11    1    3    3    0    0  0.57461274885E+02  0.24046894073E+02  0.63041902165E+02  0.88624672945E+02  0.00000000000E+00 0. -1.
</event>
<event>
 8    1  0.7136454E-009  0.1087440E+03  0.7561462E-02  0.1262914E+00
          2   -1    0    0  501    0  0.00000000000E+00  0.00000000000E+00  0.50506321354E+02  0.50506321354E+02  0.00000000000E+00 0. -1.
         -2   -1    0    0    0  501 -0.00000000000E+00 -0.00000000000E+00 -0.33038380139E+03  0.33038380139E+03  0.00000000000E+00 0.  1.
         25    2    1    2    0    0 -0.27522537689E+02  0.49982738958E+02 -0.21528635486E+03  0.25544359181E+03  0.12508976670E+03 0.  0.
         23    2    1    2    0    0  0.27522537689E+02 -0.49982738958E+02 -0.64591125175E+02  0.12544653093E+03  0.91154014706E+02 0.  0.
          5    1    3    3  502    0 -0.84837106427E+01 -0.28618018712E+02 -0.14535280597E+03  0.14844485489E+03  0.41800000000E+01 0.  1.
         -5    1    3    3    0  502 -0.19038827047E+02  0.78600757670E+02 -0.69933548892E+02  0.10699873692E+03  0.41800000000E+01 0.  1.
        -11    1    4    4    0    0  0.26713434084E+02 -0.75885833770E+02 -0.56459508140E+02  0.98285010999E+02  0.00000000000E+00 0. -1.
         11    1    4    4    0    0  0.80910360492E+00  0.25903094812E+02 -0.81316170342E+01  0.27161519933E+02  0.00000000000E+00 0.  1.
</event>
<event>
 8    1  0.7136454E-009  0.6119396E+02  0.7561462E-02  0.1392888E+00
          2   -1    0    0  501    0  0.00000000000E+00  0.00000000000E+00  0.48511662690E+02  0.48511662690E+02  0.00000000000E+00 0. -1.
         -2   -1    0    0    0  501 -0.00000000000E+00 -0.00000000000E+00 -0.25449482216E+03  0.25449482216E+03  0.00000000000E+00 0.  1.
         25    2    1    2    0    0 -0.92869415804E+01  0.18324946370E+02 -0.13774207932E+03  0.18719474945E+03  0.12508774066E+03 0.  0.
         23    2    1    2    0    0  0.92869415804E+01 -0.18324946370E+02 -0.68241080155E+02  0.11581173540E+03  0.91287798161E+02 0.  0.
          5    1    3    3  502    0 -0.21656132786E+02 -0.24361119024E+02  0.87874670608E+01  0.34016822083E+02  0.41800000000E+01 0.  1.
         -5    1    3    3    0  502  0.12369191205E+02  0.42686065394E+02 -0.14652954638E+03  0.15317792736E+03  0.41800000000E+01 0.  1.
        -11    1    4    4    0    0  0.14131496933E+02  0.92503495556E+01 -0.82626196099E+02  0.84334787924E+02  0.00000000000E+00 0.  1.
         11    1    4    4    0    0 -0.48445553526E+01 -0.27575295926E+02  0.14385115943E+02  0.31476947480E+02  0.00000000000E+00 0. -1.
</event>
<event>
 8    1  0.7136454E-009  0.1105531E+03  0.7561462E-02  0.1259549E+00
         -1   -1    0    0    0  501 -0.00000000000E+00  0.00000000000E+00  0.19173709834E+03  0.19173709834E+03  0.00000000000E+00 0.  1.
          1   -1    0    0  501    0  0.00000000000E+00 -0.00000000000E+00 -0.87673378822E+02  0.87673378822E+02  0.00000000000E+00 0. -1.
         25    2    1    2    0    0  0.60824944267E+02  0.16858622899E+02  0.21963656332E+02  0.14182075222E+03  0.12508731570E+03 0.  0.
         23    2    1    2    0    0 -0.60824944267E+02 -0.16858622899E+02  0.82100063185E+02  0.13758972494E+03  0.90590424569E+02 0.  0.
          5    1    3    3  502    0 -0.23760521438E+02 -0.19739129874E+01 -0.31641517514E+02  0.39838633788E+02  0.41800000000E+01 0. -1.
         -5    1    3    3    0  502  0.84585465706E+02  0.18832535887E+02  0.53605173845E+02  0.10198211843E+03  0.41800000000E+01 0. -1.
        -11    1    4    4    0    0  0.53915599372E+01  0.29064429188E+02  0.17879669262E+02  0.34546961307E+02  0.00000000000E+00 0. -1.
         11    1    4    4    0    0 -0.66216504204E+02 -0.45923052088E+02  0.64220393923E+02  0.10304276364E+03  0.00000000000E+00 0.  1.
</event>
<event>
 8    1  0.7136454E-009  0.1671253E+03  0.7561462E-02  0.1180879E+00
         -2   -1    0    0    0  501 -0.00000000000E+00  0.00000000000E+00  0.49235752543E+02  0.49235752543E+02  0.00000000000E+00 0. -1.
          2   -1    0    0  501    0  0.00000000000E+00 -0.00000000000E+00 -0.64926261020E+03  0.64926261020E+03  0.00000000000E+00 0.  1.
         25    2    1    2    0    0  0.29474239075E+02 -0.12883155533E+03 -0.41079491136E+03  0.44929519832E+03  0.12508963031E+03 0.  0.
         23    2    1    2    0    0 -0.29474239075E+02  0.12883155533E+03 -0.18923194629E+03  0.24920316443E+03  0.93953111935E+02 0.  0.
          5    1    3    3  502    0 -0.37641176741E+02 -0.91161310965E+02 -0.28662100728E+03  0.30314405324E+03  0.41800000000E+01 0. -1.
         -5    1    3    3    0  502  0.67115415816E+02 -0.37670244370E+02 -0.12417390408E+03  0.14615114507E+03  0.41800000000E+01 0. -1.
        -11    1    4    4    0    0  0.31156472907E+02  0.36381813373E+02 -0.34493236774E+02  0.59026651027E+02  0.00000000000E+00 0. -1.
         11    1    4    4    0    0 -0.60630711982E+02  0.92449741962E+02 -0.15473870952E+03  0.19017651340E+03  0.00000000000E+00 0.  1.
</event>
<event>
 8    1  0.7136454E-009  0.1069022E+03  0.7561462E-02  0.1266416E+00
          1   -1    0    0  501    0  0.00000000000E+00  0.00000000000E+00  0.57663927665E+02  0.57663927665E+02  0.00000000000E+00 0. -1.
         -1   -1    0    0    0  501 -0.00000000000E+00 -0.00000000000E+00 -0.30821943377E+03  0.30821943377E+03  0.00000000000E+00 0.  1.
         25    2    1    2    0    0 -0.25132050081E+02  0.51106714621E+02 -0.66756326651E+02  0.15280089512E+03  0.12509272633E+03 0.  0.
         23    2    1    2    0    0  0.25132050081E+02 -0.51106714621E+02 -0.18379917945E+03  0.21308246631E+03  0.91534053017E+02 0.  0.
          5    1    3    3  502    0  0.31435239510E+02  0.29876902647E+01 -0.71493001818E+02  0.78267632423E+02  0.41800000000E+01 0.  1.
         -5    1    3    3    0  502 -0.56567289591E+02  0.48119024356E+02  0.47366751668E+01  0.74533262697E+02  0.41800000000E+01 0.  1.
        -11    1    4    4    0    0 -0.27192234352E+02 -0.47982565301E+02 -0.87183563874E+02  0.10316354972E+03  0.00000000000E+00 0. -1.
         11    1    4    4    0    0  0.52324284432E+02 -0.31241493197E+01 -0.96615615578E+02  0.10991891659E+03  0.00000000000E+00 0.  1.
</event>
<event>
 8    1  0.7136454E-009  0.1521598E+03  0.7561462E-02  0.1197844E+00
         -2   -1    0    0    0  501 -0.00000000000E+00  0.00000000000E+00  0.42386044006E+02  0.42386044006E+02  0.00000000000E+00 0.  1.
          2   -1    0    0  501    0  0.00000000000E+00 -0.00000000000E+00 -0.71585900660E+03  0.71585900660E+03  0.00000000000E+00 0. -1.
         25    2    1    2    0    0 -0.10713681635E+03  0.20761482716E+02 -0.52751885390E+03  0.55302252969E+03  0.12509372702E+03 0.  0.
         23    2    1    2    0    0  0.10713681635E+03 -0.20761482716E+02 -0.14595410869E+03  0.20522252091E+03  0.94362835190E+02 0.  0.
          5    1    3    3  502    0 -0.57368317101E+02 -0.52122039626E+02 -0.25185067929E+03  0.26354139690E+03  0.41800000000E+01 0. -1.
         -5    1    3    3    0  502 -0.49768499246E+02  0.72883522342E+02 -0.27566817461E+03  0.28948113279E+03  0.41800000000E+01 0. -1.
        -11    1    4    4    0    0  0.89778049528E+02  0.21792100301E+02 -0.67937173784E+02  0.11467542629E+03  0.00000000000E+00 0.  1.
         11    1    4    4    0    0  0.17358766819E+02 -0.42553583017E+02 -0.78016934904E+02  0.90547094624E+02  0.00000000000E+00 0. -1.
</event>
<event>
 7    1  0.7136454E-009  0.1029330E+03  0.7561462E-02  0.1274246E+00
         -1   -1    0    0    0  501 -0.00000000000E+00  0.00000000000E+00  0.14330567255E+03  0.14330567255E+03  0.00000000000E+00 0.  1.
          1   -1    0    0  501    0  0.00000000000E+00 -0.00000000000E+00 -0.10625753486E+03  0.10625753486E+03  0.00000000000E+00 0. -1.
         23    2    1    2    0    0 -0.36956415623E+02  0.38779237634E+02 -0.77732586926E+01  0.10579634032E+03  0.90900143823E+02 0.  0.
          5    1    1    2  502    0 -0.56910708540E+01 -0.70661827177E+02 -0.43785032973E+01  0.71148617686E+02  0.41800000000E+01 0. -1.
         -5    1    1    2    0  502  0.42647486477E+02  0.31882589543E+02  0.49199899680E+02  0.72618249409E+02  0.41800000000E+01 0. -1.
        -11    1    3    3    0    0 -0.34894152263E+02  0.54975100285E+02 -0.35093774180E+02  0.73969159111E+02  0.00000000000E+00 0. -1.
         11    1    3    3    0    0 -0.20622633601E+01 -0.16195862650E+02  0.27320515487E+02  0.31827181208E+02  0.00000000000E+00 0.  1.
</event>
<event>
 8    1  0.7136454E-009  0.2032329E+03  0.7561462E-02  0.1147040E+00
         -1   -1    0    0    0  501 -0.00000000000E+00  0.00000000000E+00  0.48480311724E+02  0.48480311724E+02  0.00000000000E+00 0.  1.
          1   -1    0    0  501    0  0.00000000000E+00 -0.00000000000E+00 -0.89128309435E+03  0.89128309435E+03  0.00000000000E+00 0. -1.
         25    2    1    2    0    0  0.74533283419E+02  0.16026487761E+03 -0.50937850353E+03  0.55349273269E+03  0.12509078281E+03 0.  0.
         23    2    1    2    0    0 -0.74533283419E+02 -0.16026487761E+03 -0.33342427909E+03  0.38627067339E+03  0.82421125315E+02 0.  0.
          5    1    3    3  502    0 -0.28933445960E+02  0.69326172355E+01 -0.51172425571E+02  0.59340500636E+02  0.41800000000E+01 0. -1.
         -5    1    3    3    0  502  0.10346672938E+03  0.15333226037E+03 -0.45820607796E+03  0.49415223205E+03  0.41800000000E+01 0. -1.
        -11    1    4    4    0    0 -0.82155847038E+02 -0.94610345016E+02 -0.18107724767E+03  0.22020370162E+03  0.00000000000E+00 0.  1.
         11    1    4    4    0    0  0.76225636185E+01 -0.65654532593E+02 -0.15234703143E+03  0.16606697176E+03  0.00000000000E+00 0. -1.
</event>
<event>
 8    1  0.7136454E-009  0.3565569E+03  0.7561462E-02  0.1059956E+00
          2   -1    0    0  501    0  0.00000000000E+00  0.00000000000E+00  0.57403880543E+03  0.57403880543E+03  0.00000000000E+00 0. -1.
         -2   -1    0    0    0  501 -0.00000000000E+00 -0.00000000000E+00 -0.28858948464E+03  0.28858948464E+03  0.00000000000E+00 0.  1.
         25    2    1    2    0    0  0.27927708737E+03  0.20586103738E+03 -0.48903833656E+02  0.37203901780E+03  0.12508791939E+03 0.  0.
         23    2    1    2    0    0 -0.27927708737E+03 -0.20586103738E+03  0.33435315445E+03  0.49058927227E+03  0.92256945184E+02 0.  0.
          5    1    3    3  502    0  0.22366704004E+03  0.96984314003E+02 -0.53499745802E+02  0.24962491295E+03  0.41800000000E+01 0. -1.
         -5    1    3    3    0  502  0.55610047325E+02  0.10887672338E+03  0.45959121464E+01  0.12241410485E+03  0.41800000000E+01 0. -1.
        -11    1    4    4    0    0 -0.26428553778E+03 -0.19401457718E+03  0.27397410793E+03  0.42725907065E+03  0.00000000000E+00 0.  1.
         11    1    4    4    0    0 -0.14991549590E+02 -0.11846460205E+02  0.60379046524E+02  0.63330201623E+02  0.00000000000E+00 0. -1.
</event>
<event>
 8    1  0.7136454E-009  0.1685262E+03  0.7561462E-02  0.1179394E+00
          1   -1    0    0  501    0  0.00000000000E+00  0.00000000000E+00  0.79544073688E+02  0.79544073688E+02  0.00000000000E+00 0. -1.
         -1   -1    0    0    0  501 -0.00000000000E+00 -0.00000000000E+00 -0.43485366386E+03  0.43485366386E+03  0.00000000000E+00 0.  1.
         25    2    1    2    0    0  0.12634008127E+03 -0.28296743432E+02 -0.29537046556E+03  0.34590972023E+03  0.12508917140E+03 0.  0.
         23    2    1    2    0    0 -0.12634008127E+03  0.28296743432E+02 -0.59939124618E+02  0.16848801732E+03  0.89626957431E+02 0.  0.
          5    1    3    3  502    0  0.30793555392E+02 -0.68980772121E+02 -0.11263878588E+03  0.13568919802E+03  0.41800000000E+01 0.  1.
         -5    1    3    3    0  502  0.95546525875E+02  0.40684028689E+02 -0.18273167968E+03  0.21022052221E+03  0.41800000000E+01 0.  1.
        -11    1    4    4    0    0  0.44473563620E+01 -0.18139522183E+02 -0.67912726422E+01  0.19873163506E+02  0.00000000000E+00 0. -1.
         11    1    4    4    0    0 -0.13078743763E+03  0.46436265614E+02 -0.53147851975E+02  0.14861485382E+03  0.00000000000E+00 0.  1.
</event>
<event>
 8    1  0.7136454E-009  0.8800867E+02  0.7561462E-02  0.1307747E+00
         -1   -1    0    0    0  501 -0.00000000000E+00  0.00000000000E+00  0.47545167517E+02  0.47545167517E+02  0.00000000000E+00 0.  1.
          1   -1    0    0  501    0  0.00000000000E+00 -0.00000000000E+00 -0.34953522554E+03  0.34953522554E+03  0.00000000000E+00 0. -1.
         25    2    1    2    0    0 -0.14862522288E+02  0.92977996029E+01 -0.67368021122E+02  0.14315603560E+03  0.12509139304E+03 0.  0.
         23    2    1    2    0    0  0.14862522288E+02 -0.92977996029E+01 -0.23462203690E+03  0.25392435745E+03  0.95513012018E+02 0.  0.
          5    1    3    3  502    0 -0.38303339152E+02 -0.22668727085E+02 -0.87680293958E+02  0.98419120736E+02  0.41800000000E+01 0.  1.
         -5    1    3    3    0  502  0.23440816863E+02  0.31966526688E+02  0.20312272836E+02  0.44736914863E+02  0.41800000000E+01 0.  1.
        -11    1    4    4    0    0 -0.66860474321E+01  0.38471640700E+02 -0.59826116357E+02  0.71441826451E+02  0.00000000000E+00 0.  1.
         11    1    4    4    0    0  0.21548569720E+02 -0.47769440302E+02 -0.17479592054E+03  0.18248253100E+03  0.00000000000E+00 0. -1.
</event>
<event>
 8    1  0.7136454E-009  0.1371773E+03  0.7561462E-02  0.1217178E+00
          2   -1    0    0  501    0  0.00000000000E+00  0.00000000000E+00  0.16974998063E+04  0.16974998063E+04  0.00000000000E+00 0.  1.
         -2   -1    0    0    0  501 -0.00000000000E+00 -0.00000000000E+00 -0.11425365538E+02  0.11425365538E+02  0.00000000000E+00 0. -1.
         25    2    1    2    0    0  0.82085504822E+02 -0.13784145449E+02  0.10576319161E+04  0.10682510755E+04  0.12508819948E+03 0.  0.
         23    2    1    2    0    0 -0.82085504822E+02  0.13784145449E+02  0.62844252470E+03  0.64067409634E+03  0.92710614872E+02 0.  0.
          5    1    3    3  502    0  0.11361144298E+03  0.40058962045E+01  0.81286053030E+03  0.82078213998E+03  0.41800000000E+01 0.  1.
         -5    1    3    3    0  502 -0.31525938155E+02 -0.17790041653E+02  0.24477138577E+03  0.24746893552E+03  0.41800000000E+01 0.  1.
        -11    1    4    4    0    0 -0.14511262694E+02 -0.36923215754E+02  0.22659456281E+03  0.23004129303E+03  0.00000000000E+00 0.  1.
         11    1    4    4    0    0 -0.67574242127E+02  0.50707361202E+02  0.40184796189E+03  0.41063280331E+03  0.00000000000E+00 0. -1.
</event>
<event>
 8    1  0.7136454E-009  0.1039876E+03  0.7561462E-02  0.1272127E+00
         -1   -1    0    0    0  501 -0.00000000000E+00  0.00000000000E+00  0.59898989257E+02  0.59898989257E+02  0.00000000000E+00 0.  1.
          1   -1    0    0  501    0  0.00000000000E+00 -0.00000000000E+00 -0.31711309984E+03  0.31711309984E+03  0.00000000000E+00 0. -1.
         25    2    1    2    0    0  0.21062985309E+02 -0.69930956662E+02 -0.85292027520E+02  0.16809603391E+03  0.12509020188E+03 0.  0.
         23    2    1    2    0    0 -0.21062985309E+02  0.69930956662E+02 -0.17192208307E+03  0.20891605520E+03  0.93566700396E+02 0.  0.
          5    1    3    3  502    0 -0.94897999309E+01 -0.86253309507E+02 -0.13022696517E+02  0.87845049537E+02  0.41800000000E+01 0. -1.
         -5    1    3    3    0  502  0.30552785240E+02  0.16322352845E+02 -0.72269331003E+02  0.80250984368E+02  0.41800000000E+01 0. -1.
        -11    1    4    4    0    0 -0.33680956457E+02  0.32878736937E+02 -0.16177111301E+03  0.16847940875E+03  0.00000000000E+00 0. -1.
         11    1    4    4    0    0  0.12617971148E+02  0.37052219725E+02 -0.10150970061E+02  0.40436646444E+02  0.00000000000E+00 0.  1.
</event>
<event>
 8    1  0.7136454E-009  0.9279193E+02  0.7561462E-02  0.1296228E+00
          1   -1    0    0  501    0  0.00000000000E+00  0.00000000000E+00  0.66611493572E+02  0.66611493572E+02  0.00000000000E+00 0. -1.
         -1   -1    0    0    0  501 -0.00000000000E+00 -0.00000000000E+00 -0.23638696126E+03  0.23638696126E+03  0.00000000000E+00 0.  1.
         25    2    1    2    0    0  0.36227830760E+02  0.35085714773E+02 -0.47768693804E+02  0.14308591157E+03  0.12509303289E+03 0.  0.
         23    2    1    2    0    0 -0.36227830760E+02 -0.35085714773E+02 -0.12200677388E+03  0.15991254326E+03  0.90238049165E+02 0.  0.
          5    1    3    3  502    0 -0.21044565038E+02 -0.61563558478E+01 -0.66333966513E+02  0.69988870174E+02  0.41800000000E+01 0. -1.
         -5    1    3    3    0  502  0.57272395798E+02  0.41242070621E+02  0.18565272709E+02  0.73097041393E+02  0.41800000000E+01 0. -1.
        -11    1    4    4    0    0 -0.58461876635E+01  0.24762940079E+02 -0.64029041348E+01  0.26236964247E+02  0.00000000000E+00 0. -1.
         11    1    4    4    0    0 -0.30381643096E+02 -0.59848654852E+02 -0.11560386975E+03  0.13367557902E+03  0.00000000000E+00 0.  1.
</event>
<event>
 8    1  0.7136454E-009  0.1091073E+03  0.7561462E-02  0.1262232E+00
          2   -1    0    0  501    0  0.00000000000E+00  0.00000000000E+00  0.76132309458E+02  0.76132309458E+02  0.00000000000E+00 0. -1.
         -2   -1    0    0    0  501 -0.00000000000E+00 -0.00000000000E+00 -0.26296323250E+03  0.26296323250E+03  0.00000000000E+00 0.  1.
         25    2    1    2    0    0  0.63161621766E+02 -0.36801044509E+02 -0.16763790754E+03  0.22156410090E+03  0.12507787742E+03 0.  0.
         23    2    1    2    0    0 -0.63161621766E+02  0.36801044509E+02 -0.19193015497E+02  0.11753144106E+03  0.90008668760E+02 0.  0.
          5    1    3    3  502    0  0.63767497760E+02 -0.76882821277E+02 -0.14247152794E+03  0.17404847214E+03  0.41800000000E+01 0.  1.
         -5    1    3    3    0  502 -0.60587599395E+00  0.40081776767E+02 -0.25166379598E+02  0.47515628762E+02  0.41800000000E+01 0.  1.
        -11    1    4    4    0    0 -0.51600782281E+02  0.40717559396E+02 -0.51172412765E+02  0.83301717890E+02  0.00000000000E+00 0.  1.
         11    1    4    4    0    0 -0.11560839485E+02 -0.39165148871E+01  0.31979397268E+02  0.34229723167E+02  0.00000000000E+00 0. -1.
</event>
<event>
 8    1  0.7136454E-009  0.4715191E+03  0.7561462E-02  0.1021492E+00
         -1   -1    0    0    0  501 -0.00000000000E+00  0.00000000000E+00  0.46029161709E+03  0.46029161709E+03  0.00000000000E+00 0.  1.
          1   -1    0    0  501    0  0.00000000000E+00 -0.00000000000E+00 -0.61184238270E+03  0.61184238270E+03  0.00000000000E+00 0. -1.
         25    2    1    2    0    0  0.12524403295E+03  0.45389899665E+03 -0.29773285333E+03  0.57096660925E+03  0.12509056711E+03 0.  0.
         23    2    1    2    0    0 -0.12524403295E+03 -0.45389899665E+03  0.14618208772E+03  0.50116739055E+03  0.89939888994E+02 0.  0.
          5    1    3    3  502    0  0.42631779964E+02  0.14406311412E+03 -0.30118292216E+02  0.15328481151E+03  0.41800000000E+01 0.  1.
         -5    1    3    3    0  502  0.82612252982E+02  0.30983588253E+03 -0.26761456111E+03  0.41768179774E+03  0.41800000000E+01 0.  1.
        -11    1    4    4    0    0 -0.11956498873E+03 -0.39033695496E+03  0.15514668870E+03  0.43672556595E+03  0.00000000000E+00 0.  1.
         11    1    4    4    0    0 -0.56790442124E+01 -0.63562041683E+02 -0.89646009866E+01  0.64441824594E+02  0.00000000000E+00 0. -1.
</event>
<event>
 8    1  0.7136454E-009  0.1057548E+03  0.7561462E-02  0.1268640E+00
         -2   -1    0    0    0  501 -0.00000000000E+00  0.00000000000E+00  0.38289426603E+02  0.38289426603E+02  0.00000000000E+00 0.  1.
          2   -1    0    0  501    0  0.00000000000E+00 -0.00000000000E+00 -0.42393002424E+03  0.42393002424E+03  0.00000000000E+00 0. -1.
         25    2    1    2    0    0  0.40068344448E+02 -0.14203106859E+02 -0.30696982430E+03  0.33419318158E+03  0.12508960434E+03 0.  0.
         23    2    1    2    0    0 -0.40068344448E+02  0.14203106859E+02 -0.78670773346E+02  0.12802626927E+03  0.91621146972E+02 0.  0.
          5    1    3    3  502    0 -0.10614721603E+02 -0.54948479611E+02 -0.77734500356E+02  0.95875610412E+02  0.41800000000E+01 0. -1.
         -5    1    3    3    0  502  0.50683066051E+02  0.40745372752E+02 -0.22923532394E+03  0.23831757117E+03  0.41800000000E+01 0. -1.
        -11    1    4    4    0    0 -0.64057587253E+02  0.16433822574E+02 -0.80122720969E+02  0.10388982349E+03  0.00000000000E+00 0. -1.
         11    1    4    4    0    0  0.23989242804E+02 -0.22307157148E+01  0.14519476236E+01  0.24136445779E+02  0.00000000000E+00 0.  1.
</event>
<event>
 8    1  0.7136454E-009  0.1176659E+03  0.7561462E-02  0.1246998E+00
          1   -1    0    0  501    0  0.00000000000E+00  0.00000000000E+00  0.45081403251E+02  0.45081403251E+02  0.00000000000E+00 0. -1.
         -1   -1    0    0    0  501 -0.00000000000E+00 -0.00000000000E+00 -0.40142998904E+03  0.40142998904E+03  0.00000000000E+00 0.  1.
         25    2    1    2    0    0  0.16824363738E+01 -0.55779804166E+02 -0.29247740670E+03  0.32296245328E+03  0.12508995027E+03 0.  0.
         23    2    1    2    0    0 -0.16824363738E+01  0.55779804166E+02 -0.63871179097E+02  0.12354893901E+03  0.89836494069E+02 0.  0.
          5    1    3    3  502    0  0.47931157373E+02  0.16630567771E+02 -0.10472521867E+03  0.11644232674E+03  0.41800000000E+01 0. -1.
         -5    1    3    3    0  502 -0.46248721000E+02 -0.72410371938E+02 -0.18775218803E+03  0.20652012654E+03  0.41800000000E+01 0. -1.
        -11    1    4    4    0    0 -0.40352727530E+02  0.39433108654E+02 -0.58413352360E+02  0.81212267615E+02  0.00000000000E+00 0.  1.
         11    1    4    4    0    0  0.38670291156E+02  0.16346695513E+02 -0.54578267374E+01  0.42336671397E+02  0.00000000000E+00 0. -1.
</event>
<event>
 8    1  0.7136454E-009  0.1203253E+03  0.7561462E-02  0.1242561E+00
          2   -1    0    0  501    0  0.00000000000E+00  0.00000000000E+00  0.48263421325E+03  0.48263421325E+03  0.00000000000E+00 0. -1.
         -2   -1    0    0    0  501 -0.00000000000E+00 -0.00000000000E+00 -0.52747739453E+02  0.52747739453E+02  0.00000000000E+00 0.  1.
         25    2    1    2    0    0 -0.12559459251E+02  0.11205902855E+03  0.22103858776E+03  0.27788533927E+03  0.12508892280E+03 0.  0.
         23    2    1    2    0    0  0.12559459251E+02 -0.11205902855E+03  0.20884788604E+03  0.25749661343E+03  0.99860405209E+02 0.  0.
          5    1    3    3  502    0 -0.22106831489E+02  0.21467876261E+02  0.17112937212E+03  0.17393192954E+03  0.41800000000E+01 0. -1.
         -5    1    3    3    0  502  0.95473722373E+01  0.90591152292E+02  0.49909215635E+02  0.10395340973E+03  0.41800000000E+01 0. -1.
        -11    1    4    4    0    0 -0.12581259453E+02 -0.45784341298E+02  0.13019117723E+02  0.49234047404E+02  0.00000000000E+00 0.  1.
         11    1    4    4    0    0  0.25140718704E+02 -0.66274687254E+02  0.19582876832E+03  0.20826256603E+03  0.00000000000E+00 0. -1.
</event>
<event>
 8    1  0.7136454E-009  0.1261899E+03  0.7561462E-02  0.1233221E+00
         -2   -1    0    0    0  501 -0.00000000000E+00  0.00000000000E+00  0.33121904326E+03  0.33121904326E+03  0.00000000000E+00 0.  1.
          2   -1    0    0  501    0  0.00000000000E+00 -0.00000000000E+00 -0.58701458409E+02  0.58701458409E+02  0.00000000000E+00 0. -1.
         25    2    1    2    0    0  0.30848856721E+02 -0.77623176257E+02  0.11740896581E+03  0.19080726820E+03  0.12508212860E+03 0.  0.
         23    2    1    2    0    0 -0.30848856721E+02  0.77623176257E+02  0.15510861905E+03  0.19911323347E+03  0.92792168778E+02 0.  0.
          5    1    3    3  502    0  0.65281656899E+02 -0.86920108262E+02  0.63285404826E+02  0.12585433966E+03  0.41800000000E+01 0. -1.
         -5    1    3    3    0  502 -0.34432800178E+02  0.92969320045E+01  0.54123560982E+02  0.64952928542E+02  0.41800000000E+01 0. -1.
        -11    1    4    4    0    0 -0.16677126873E+02 -0.96501425670E+01 -0.14402359548E+01  0.19321648271E+02  0.00000000000E+00 0. -1.
         11    1    4    4    0    0 -0.14171729848E+02  0.87273318824E+02  0.15654885500E+03  0.17979158520E+03  0.00000000000E+00 0.  1.
</event>
<event>
 8    1  0.7136454E-009  0.1120475E+03  0.7561462E-02  0.1256825E+00
         -2   -1    0    0    0  501 -0.00000000000E+00  0.00000000000E+00  0.67301801341E+02  0.67301801341E+02  0.00000000000E+00 0.  1.
          2   -1    0    0  501    0  0.00000000000E+00 -0.00000000000E+00 -0.27849654000E+03  0.27849654000E+03  0.00000000000E+00 0. -1.
         25    2    1    2    0    0  0.72723761045E+02  0.25606620490E+02 -0.77244251754E+02  0.16601060290E+03  0.12509357063E+03 0.  0.
         23    2    1    2    0    0 -0.72723761045E+02 -0.25606620490E+02 -0.13395048690E+03  0.17978773843E+03  0.91850168842E+02 0.  0.
          5    1    3    3  502    0  0.88425650554E+02  0.61242943786E+02 -0.59750863695E+02  0.12311552279E+03  0.41800000000E+01 0. -1.
         -5    1    3    3    0  502 -0.15701889509E+02 -0.35636323297E+02 -0.17493388059E+02  0.42895080114E+02  0.41800000000E+01 0. -1.
        -11    1    4    4    0    0 -0.11304732083E+02 -0.60830366697E+01  0.13645394169E+02  0.18734916189E+02  0.00000000000E+00 0.  1.
         11    1    4    4    0    0 -0.61419028962E+02 -0.19523583820E+02 -0.14759588107E+03  0.16105282224E+03  0.00000000000E+00 0. -1.
</event>
<event>
 8    1  0.7136454E-009  0.1059135E+03  0.7561462E-02  0.1268330E+00
          4   -1    0    0  501    0  0.00000000000E+00  0.00000000000E+00  0.13637288186E+03  0.13637288186E+03  0.00000000000E+00 0. -1.
         -4   -1    0    0    0  501 -0.00000000000E+00 -0.00000000000E+00 -0.91793570727E+02  0.91793570727E+02  0.00000000000E+00 0.  1.
         25    2    1    2    0    0  0.44837341965E+00 -0.10291289152E+02  0.13225571457E+01  0.12551745110E+03  0.12508704849E+03 0.  0.
         23    2    1    2    0    0 -0.44837341965E+00  0.10291289152E+02  0.43256753991E+02  0.10264900150E+03  0.92517885142E+02 0.  0.
          5    1    3    3  502    0 -0.34064376111E+02 -0.55740930902E+02  0.13927178919E+02  0.66924373813E+02  0.41800000000E+01 0. -1.
         -5    1    3    3    0  502  0.34512749530E+02  0.45449641750E+02 -0.12604621773E+02  0.58593077282E+02  0.41800000000E+01 0. -1.
        -11    1    4    4    0    0 -0.32988536874E+02 -0.24814232652E+02  0.54202424119E+01  0.41633745147E+02  0.00000000000E+00 0. -1.
         11    1    4    4    0    0  0.32540163454E+02  0.35105521804E+02  0.37836511579E+02  0.61015256348E+02  0.00000000000E+00 0.  1.
</event>
<event>
 8    1  0.7136454E-009  0.1663320E+03  0.7561462E-02  0.1181728E+00
         -2   -1    0    0    0  501 -0.00000000000E+00  0.00000000000E+00  0.37677206346E+02  0.37677206346E+02  0.00000000000E+00 0.  1.
          2   -1    0    0  501    0  0.00000000000E+00 -0.00000000000E+00 -0.78948594256E+03  0.78948594256E+03  0.00000000000E+00 0. -1.
         25    2    1    2    0    0  0.10207738585E+03 -0.91271332806E+02 -0.34906637932E+03  0.39527581403E+03  0.12508150579E+03 0.  0.
         23    2    1    2    0    0 -0.10207738585E+03  0.91271332806E+02 -0.40274235690E+03  0.43188733488E+03  0.74666023714E+02 0.  0.
          5    1    3    3  502    0  0.26092658277E+02 -0.96926847243E+02 -0.13693173735E+03  0.16983348794E+03  0.41800000000E+01 0. -1.
         -5    1    3    3    0  502  0.75984727574E+02  0.56555144368E+01 -0.21213464197E+03  0.22544232608E+03  0.41800000000E+01 0. -1.
        -11    1    4    4    0    0 -0.10122141700E+03  0.46983760854E+02 -0.29428498742E+03  0.31473306604E+03  0.00000000000E+00 0. -1.
         11    1    4    4    0    0 -0.85596885447E+00  0.44287571952E+02 -0.10845736948E+03  0.11715426884E+03  0.00000000000E+00 0.  1.
</event>
<event>
 8    1  0.7136454E-009  0.6801329E+02  0.7561462E-02  0.1366982E+00
         -2   -1    0    0    0  501 -0.00000000000E+00  0.00000000000E+00  0.10057012184E+02  0.10057012184E+02  0.00000000000E+00 0.  1.
          2   -1    0    0  501    0  0.00000000000E+00 -0.00000000000E+00 -0.12549190650E+04  0.12549190650E+04  0.00000000000E+00 0. -1.
         25    2    1    2    0    0 -0.16258975685E+02 -0.27248262263E+02 -0.69559375004E+03  0.70746315861E+03  0.12508650450E+03 0.  0.
         23    2    1    2    0    0  0.16258975685E+02  0.27248262263E+02 -0.54926830277E+03  0.55751291857E+03  0.90100853812E+02 0.  0.
          5    1    3    3  502    0 -0.22208378390E+02 -0.18470495167E+02 -0.30295718429E+02  0.42067495974E+02  0.41800000000E+01 0.  1.
         -5    1    3    3    0  502  0.59494027052E+01 -0.87777670956E+01 -0.66529803161E+03  0.66539566263E+03  0.41800000000E+01 0.  1.
        -11    1    4    4    0    0 -0.10040097284E+02 -0.30434048239E+02 -0.17363442424E+03  0.17656712074E+03  0.00000000000E+00 0.  1.
         11    1    4    4    0    0  0.26299072968E+02  0.57682310501E+02 -0.37563387854E+03  0.38094579784E+03  0.00000000000E+00 0. -1.
</event>
<event>
 8    1  0.7136454E-009  0.7979518E+02  0.7561462E-02  0.1329634E+00
          1   -1    0    0  501    0  0.00000000000E+00  0.00000000000E+00  0.12542846838E+03  0.12542846838E+03  0.00000000000E+00 0. -1.
         -1   -1    0    0    0  501 -0.00000000000E+00 -0.00000000000E+00 -0.10693567227E+03  0.10693567227E+03  0.00000000000E+00 0.  1.
         25    2    1    2    0    0  0.14956348384E+02 -0.28169046370E+02  0.36267206163E+02  0.13408950232E+03  0.12508995507E+03 0.  0.
         23    2    1    2    0    0 -0.14956348384E+02  0.28169046370E+02 -0.17774410056E+02  0.98274638334E+02  0.91240272667E+02 0.  0.
          5    1    3    3  502    0  0.10784785027E+02  0.24997991224E+02  0.66968304832E+02  0.72411583365E+02  0.41800000000E+01 0.  1.
         -5    1    3    3    0  502  0.41715633570E+01 -0.53167037594E+02 -0.30701098669E+02  0.61677918957E+02  0.41800000000E+01 0.  1.
        -11    1    4    4    0    0 -0.40115409102E+02 -0.87692417150E+00 -0.37640022344E+02  0.55016236925E+02  0.00000000000E+00 0.  1.
         11    1    4    4    0    0  0.25159060717E+02  0.29045970541E+02  0.19865612287E+02  0.43258401408E+02  0.00000000000E+00 0. -1.
</event>
<event>
 8    1  0.7136454E-009  0.1018680E+03  0.7561462E-02  0.1276416E+00
         -1   -1    0    0    0  501 -0.00000000000E+00  0.00000000000E+00  0.13639193597E+03  0.13639193597E+03  0.00000000000E+00 0.  1.
          1   -1    0    0  501    0  0.00000000000E+00 -0.00000000000E+00 -0.92469695187E+02  0.92469695187E+02  0.00000000000E+00 0. -1.
         25    2    1    2    0    0  0.19789208679E+02 -0.19085671325E+02 -0.11233519207E+01  0.12807315871E+03  0.12508235859E+03 0.  0.
         23    2    1    2    0    0 -0.19789208679E+02  0.19085671325E+02  0.45045592703E+02  0.10078847245E+03  0.85868126373E+02 0.  0.
          5    1    3    3  502    0  0.67976053961E+02 -0.13240704406E+02 -0.25090804343E+02  0.73777239227E+02  0.41800000000E+01 0. -1.
         -5    1    3    3    0  502 -0.48186845283E+02 -0.58449669184E+01  0.23967452422E+02  0.54295919480E+02  0.41800000000E+01 0. -1.
        -11    1    4    4    0    0 -0.43546592383E+02  0.35977571549E+02  0.13985558065E+02  0.58191813833E+02  0.00000000000E+00 0.  1.
         11    1    4    4    0    0  0.23757383704E+02 -0.16891900224E+02  0.31060034639E+02  0.42596658618E+02  0.00000000000E+00 0. -1.
</event>
<event>
 8    1  0.7136454E-009  0.1261735E+03  0.7561462E-02  0.1233247E+00
          1   -1    0    0  501    0  0.00000000000E+00  0.00000000000E+00  0.30213676219E+02  0.30213676219E+02  0.00000000000E+00 0. -1.
         -1   -1    0    0    0  501 -0.00000000000E+00 -0.00000000000E+00 -0.85407229495E+03  0.85407229495E+03  0.00000000000E+00 0.  1.
         25    2    1    2    0    0  0.87350344539E+02 -0.50788009931E+02 -0.60683154341E+03  0.62777502454E+03  0.12508978661E+03 0.  0.
         23    2    1    2    0    0 -0.87350344539E+02  0.50788009931E+02 -0.21702707532E+03  0.25651094663E+03  0.92128224093E+02 0.  0.
          5    1    3    3  502    0  0.84646928982E+02  0.13144285974E+02 -0.22884916248E+03  0.24439166599E+03  0.41800000000E+01 0.  1.
         -5    1    3    3    0  502  0.27034155569E+01 -0.63932295905E+02 -0.37798238094E+03  0.38338335855E+03  0.41800000000E+01 0.  1.
        -11    1    4    4    0    0 -0.26944632554E+02  0.69658114445E+01 -0.16049156286E+03  0.16288670142E+03  0.00000000000E+00 0.  1.
         11    1    4    4    0    0 -0.60405711985E+02  0.43822198486E+02 -0.56535512462E+02  0.93624245203E+02  0.00000000000E+00 0. -1.
</event>
<event>
 8    1  0.7136454E-009  0.3193913E+03  0.7561462E-02  0.1075930E+00
          1   -1    0    0  501    0  0.00000000000E+00  0.00000000000E+00  0.12582339881E+04  0.12582339881E+04  0.00000000000E+00 0. -1.
         -1   -1    0    0    0  501 -0.00000000000E+00 -0.00000000000E+00 -0.13389594852E+03  0.13389594852E+03  0.00000000000E+00 0.  1.
         25    2    1    2    0    0 -0.28192141298E+03  0.14775677748E+03  0.16991694110E+03  0.38187851983E+03  0.12509072167E+03 0.  0.
         23    2    1    2    0    0  0.28192141298E+03 -0.14775677748E+03  0.95442109844E+03  0.10102514168E+04  0.91523458844E+02 0.  0.
          5    1    3    3  502    0 -0.26832387771E+03  0.13140920486E+03  0.18853256678E+03  0.35331018045E+03  0.41800000000E+01 0.  1.
         -5    1    3    3    0  502 -0.13597535272E+02  0.16347572611E+02 -0.18615625677E+02  0.28568339383E+02  0.41800000000E+01 0.  1.
        -11    1    4    4    0    0  0.81211231258E+02 -0.44071054544E+02  0.16464100900E+03  0.18879667310E+03  0.00000000000E+00 0. -1.
         11    1    4    4    0    0  0.20071018173E+03 -0.10368572293E+03  0.78978008944E+03  0.82145474365E+03  0.00000000000E+00 0.  1.
</event>
<event>
 8    1  0.7136454E-009  0.9968856E+02  0.7561462E-02  0.1280952E+00
          2   -1    0    0  501    0  0.00000000000E+00  0.00000000000E+00  0.69514864850E+03  0.69514864850E+03  0.00000000000E+00 0. -1.
         -2   -1    0    0    0  501 -0.00000000000E+00 -0.00000000000E+00 -0.33071410831E+02  0.33071410831E+02  0.00000000000E+00 0.  1.
         25    2    1    2    0    0  0.59840351827E+02 -0.66955643862E+02  0.48995291627E+03  0.51358052324E+03  0.12508863954E+03 0.  0.
         23    2    1    2    0    0 -0.59840351827E+02  0.66955643862E+02  0.17212432140E+03  0.21463953609E+03  0.91539185505E+02 0.  0.
          5    1    3    3  502    0  0.36002915226E+02 -0.66260376618E+01  0.40469678352E+03  0.40637061074E+03  0.41800000000E+01 0. -1.
         -5    1    3    3    0  502  0.23837436602E+02 -0.60329606200E+02  0.85256132744E+02  0.10720991250E+03  0.41800000000E+01 0. -1.
        -11    1    4    4    0    0 -0.33087192272E+02  0.62063222652E+02  0.17369831674E+03  0.18739720152E+03  0.00000000000E+00 0. -1.
         11    1    4    4    0    0 -0.26753159555E+02  0.48924212096E+01 -0.15739953406E+01  0.27242334570E+02  0.00000000000E+00 0.  1.
</event>
<event>
 8    1  0.7136454E-009  0.1059781E+03  0.7561462E-02  0.1268205E+00
          1   -1    0    0  501    0  0.00000000000E+00  0.00000000000E+00  0.17122790321E+03  0.17122790321E+03  0.00000000000E+00 0. -1.
         -1   -1    0    0    0  501 -0.00000000000E+00 -0.00000000000E+00 -0.84297410279E+02  0.84297410279E+02  0.00000000000E+00 0.  1.
         25    2    1    2    0    0 -0.53225238377E+02  0.12431180919E+02  0.81052859920E+02  0.15875932709E+03  0.12508995794E+03 0.  0.
         23    2    1    2    0    0  0.53225238377E+02 -0.12431180919E+02  0.58776330131E+01  0.96765986404E+02  0.79634473036E+02 0.  0.
          5    1    3    3  502    0  0.34039494466E+02  0.13344813935E+02 -0.37636436281E+01  0.36992008000E+02  0.41800000000E+01 0.  1.
         -5    1    3    3    0  502 -0.87264732843E+02 -0.91363301638E+00  0.84816503548E+02  0.12176731909E+03  0.41800000000E+01 0.  1.
        -11    1    4    4    0    0  0.33491922533E+02  0.27441226464E+02 -0.17270833769E+02  0.46615571261E+02  0.00000000000E+00 0.  1.
         11    1    4    4    0    0  0.19733315843E+02 -0.39872407383E+02  0.23148466782E+02  0.50150415144E+02  0.00000000000E+00 0. -1.
</event>
<event>
 8    1  0.7136454E-009  0.9268913E+02  0.7561462E-02  0.1296467E+00
          1   -1    0    0  501    0  0.00000000000E+00  0.00000000000E+00  0.17884416520E+02  0.17884416520E+02  0.00000000000E+00 0. -1.
         -1   -1    0    0    0  501 -0.00000000000E+00 -0.00000000000E+00 -0.10311078449E+04  0.10311078449E+04  0.00000000000E+00 0.  1.
         25    2    1    2    0    0 -0.11174798171E+02 -0.21372849439E+02 -0.85490994288E+03  0.86435085269E+03  0.12509880617E+03 0.  0.
         23    2    1    2    0    0  0.11174798171E+02  0.21372849439E+02 -0.15831348554E+03  0.18464140877E+03  0.91910909695E+02 0.  0.
          5    1    3    3  502    0 -0.17483938755E+01  0.42052756928E+02 -0.59918892472E+03  0.60067989075E+03  0.41800000000E+01 0.  1.
         -5    1    3    3    0  502 -0.94264042951E+01 -0.63425606367E+02 -0.25572101816E+03  0.26367096194E+03  0.41800000000E+01 0.  1.
        -11    1    4    4    0    0  0.15436049031E+02  0.48740480980E+02 -0.14531298616E+03  0.15404470144E+03  0.00000000000E+00 0.  1.
         11    1    4    4    0    0 -0.42612508599E+01 -0.27367631541E+02 -0.13000499379E+02  0.30596707325E+02  0.00000000000E+00 0. -1.
</event>
<event>
 8    1  0.7136454E-009  0.9043101E+02  0.7561462E-02  0.1301811E+00
         -1   -1    0    0    0  501 -0.00000000000E+00  0.00000000000E+00  0.14577390673E+03  0.14577390673E+03  0.00000000000E+00 0.  1.
          1   -1    0    0  501    0  0.00000000000E+00 -0.00000000000E+00 -0.18026258016E+03  0.18026258016E+03  0.00000000000E+00 0. -1.
         25    2    1    2    0    0  0.42906977475E+00 -0.69569253651E+02 -0.11494505177E+03  0.18356807222E+03  0.12507920314E+03 0.  0.
         23    2    1    2    0    0 -0.42906977475E+00  0.69569253651E+02  0.80456378327E+02  0.14246841467E+03  0.94783728621E+02 0.  0.
          5    1    3    3  502    0  0.13154614760E+02 -0.31420852348E+02 -0.13439061139E+03  0.13870336218E+03  0.41800000000E+01 0. -1.
         -5    1    3    3    0  502 -0.12725544985E+02 -0.38148401303E+02  0.19445559623E+02  0.44864710032E+02  0.41800000000E+01 0. -1.
        -11    1    4    4    0    0 -0.25930642100E+02  0.75585665385E+02  0.84104947845E+02  0.11601393564E+03  0.00000000000E+00 0.  1.
         11    1    4    4    0    0  0.25501572325E+02 -0.60164117345E+01 -0.36485695173E+01  0.26454479030E+02  0.00000000000E+00 0. -1.
</event>
<event>
 8    1  0.7136454E-009  0.9748482E+02  0.7561462E-02  0.1285676E+00
         -4   -1    0    0    0  501 -0.00000000000E+00  0.00000000000E+00  0.21090934183E+02  0.21090934183E+02  0.00000000000E+00 0.  1.
          4   -1    0    0  501    0  0.00000000000E+00 -0.00000000000E+00 -0.85408377407E+03  0.85408377407E+03  0.00000000000E+00 0. -1.
         25    2    1    2    0    0 -0.60088916070E+01 -0.72541865194E+02 -0.56114284681E+03  0.57951093873E+03  0.12511276752E+03 0.  0.
         23    2    1    2    0    0  0.60088916070E+01  0.72541865194E+02 -0.27184999308E+03  0.29566376953E+03  0.90643349948E+02 0.  0.
          5    1    3    3  502    0  0.13328999708E+02 -0.43479378112E+02 -0.52208444138E+02  0.69363625868E+02  0.41800000000E+01 0.  1.
         -5    1    3    3    0  502 -0.19337891315E+02 -0.29062487082E+02 -0.50893440267E+03  0.51014731286E+03  0.41800000000E+01 0.  1.
        -11    1    4    4    0    0 -0.40650809371E+02  0.26084806253E+02 -0.88076608181E+02  0.10045095484E+03  0.00000000000E+00 0.  1.
         11    1    4    4    0    0  0.46659700978E+02  0.46457058941E+02 -0.18377338490E+03  0.19521281469E+03  0.00000000000E+00 0. -1.
</event>
<event>
 8    1  0.7136454E-009  0.2856654E+03  0.7561462E-02  0.1092634E+00
         -2   -1    0    0    0  501 -0.00000000000E+00  0.00000000000E+00  0.51906576292E+02  0.51906576292E+02  0.00000000000E+00 0.  1.
          2   -1    0    0  501    0  0.00000000000E+00 -0.00000000000E+00 -0.17029614618E+04  0.17029614618E+04  0.00000000000E+00 0. -1.
         25    2    1    2    0    0  0.22505057283E+03 -0.14343155991E+03 -0.10566759878E+04  0.10970102582E+04  0.12508793128E+03 0.  0.
         23    2    1    2    0    0 -0.22505057283E+03  0.14343155991E+03 -0.59437889772E+03  0.65785777997E+03  0.90940705438E+02 0.  0.
          5    1    3    3  502    0  0.73262970447E+02 -0.11889015174E+03 -0.45369353144E+03  0.47471846803E+03  0.41800000000E+01 0.  1.
         -5    1    3    3    0  502  0.15178760238E+03 -0.24541408167E+02 -0.60298245639E+03  0.62229179013E+03  0.41800000000E+01 0.  1.
        -11    1    4    4    0    0 -0.69600486691E+02  0.89249287727E+02 -0.29897176667E+03  0.31967761945E+03  0.00000000000E+00 0.  1.
         11    1    4    4    0    0 -0.15545008614E+03  0.54182272179E+02 -0.29540713104E+03  0.33818016052E+03  0.00000000000E+00 0. -1.
</event>
<event>
 8    1  0.7136454E-009  0.9212189E+02  0.7561462E-02  0.1297793E+00
         -1   -1    0    0    0  501 -0.00000000000E+00  0.00000000000E+00  0.82051201060E+02  0.82051201060E+02  0.00000000000E+00 0.  1.
          1   -1    0    0  501    0  0.00000000000E+00 -0.00000000000E+00 -0.15386433126E+03  0.15386433126E+03  0.00000000000E+00 0. -1.
         25    2    1    2    0    0 -0.19624693436E+02 -0.18359411178E+02 -0.26043040639E+02  0.13056772219E+03  0.12508994181E+03 0.  0.
         23    2    1    2    0    0  0.19624693436E+02  0.18359411178E+02 -0.45770089559E+02  0.10534781013E+03  0.91000348513E+02 0.  0.
          5    1    3    3  502    0  0.35698589569E+02 -0.22027226063E+02 -0.53859979986E+02  0.68395598026E+02  0.41800000000E+01 0. -1.
         -5    1    3    3    0  502 -0.55323283005E+02  0.36678148856E+01  0.27816939346E+02  0.62172124164E+02  0.41800000000E+01 0. -1.
        -11    1    4    4    0    0  0.51452385840E+02  0.41150231350E+01 -0.52399560606E+01  0.51881967614E+02  0.00000000000E+00 0.  1.
         11    1    4    4    0    0 -0.31827692403E+02  0.14244388043E+02 -0.40530133498E+02  0.53465842515E+02  0.00000000000E+00 0. -1.
</event>
<event>
 8    1  0.7136454E-009  0.1076908E+03  0.7561462E-02  0.1264907E+00
         -2   -1    0    0    0  501 -0.00000000000E+00  0.00000000000E+00  0.41101487828E+02  0.41101487828E+02  0.00000000000E+00 0.  1.
          2   -1    0    0  501    0  0.00000000000E+00 -0.00000000000E+00 -0.50894434195E+03  0.50894434195E+03  0.00000000000E+00 0. -1.
         25    2    1    2    0    0  0.51376046320E+02 -0.24466439802E+02 -0.38244064749E+03  0.40639022330E+03  0.12511618571E+03 0.  0.
         23    2    1    2    0    0 -0.51376046320E+02  0.24466439802E+02 -0.85402206629E+02  0.14365560648E+03  0.10052507927E+03 0.  0.
          5    1    3    3  502    0  0.83164963550E+02 -0.26798571393E+02 -0.16660373879E+03  0.18817240172E+03  0.41800000000E+01 0.  1.
         -5    1    3    3    0  502 -0.31788917230E+02  0.23321315904E+01 -0.21583690870E+03  0.21821782158E+03  0.41800000000E+01 0.  1.
        -11    1    4    4    0    0 -0.62306654145E+02 -0.67617832265E+01 -0.90599419386E+02  0.11016394899E+03  0.00000000000E+00 0. -1.
         11    1    4    4    0    0  0.10930607826E+02  0.31228223029E+02  0.51972127567E+01  0.33491657490E+02  0.00000000000E+00 0.  1.
</event>
<event>
 8    1  0.7136454E-009  0.1076045E+03  0.7561462E-02  0.1265071E+00
         -2   -1    0    0    0  501 -0.00000000000E+00  0.00000000000E+00  0.18796293883E+02  0.18796293883E+02  0.00000000000E+00 0.  1.
          2   -1    0    0  501    0  0.00000000000E+00 -0.00000000000E+00 -0.11923996054E+04  0.11923996054E+04  0.00000000000E+00 0. -1.
         25    2    1    2    0    0 -0.23646665805E+01 -0.39325899687E+02 -0.10337946795E+04  0.10420801381E+04  0.12508979434E+03 0.  0.
         23    2    1    2    0    0  0.23646665805E+01  0.39325899687E+02 -0.13980863195E+03  0.16911576120E+03  0.86611599021E+02 0.  0.
          5    1    3    3  502    0 -0.51711152682E+02 -0.49194191758E+02 -0.78267327791E+03  0.78593195900E+03  0.41800000000E+01 0. -1.
         -5    1    3    3    0  502  0.49346486102E+02  0.98682920717E+01 -0.25112140163E+03  0.25614817906E+03  0.41800000000E+01 0. -1.
        -11    1    4    4    0    0  0.39601621419E+02  0.39564780589E+02 -0.10002287711E+03  0.11462214545E+03  0.00000000000E+00 0.  1.
         11    1    4    4    0    0 -0.37236954838E+02 -0.23888090233E+00 -0.39785754846E+02  0.54493615758E+02  0.00000000000E+00 0. -1.
</event>
<event>
 8    1  0.7136454E-009  0.1169169E+03  0.7561462E-02  0.1248272E+00
          1   -1    0    0  501    0  0.00000000000E+00  0.00000000000E+00  0.14486596831E+04  0.14486596831E+04  0.00000000000E+00 0. -1.
         -1   -1    0    0    0  501 -0.00000000000E+00 -0.00000000000E+00 -0.10180940314E+02  0.10180940314E+02  0.00000000000E+00 0.  1.
         25    2    1    2    0    0 -0.37478732088E+02  0.23858498716E+02  0.95920200685E+03  0.96834398330E+03  0.12509075395E+03 0.  0.
         23    2    1    2    0    0  0.37478732088E+02 -0.23858498716E+02  0.47927673591E+03  0.49049664009E+03  0.94376273687E+02 0.  0.
          5    1    3    3  502    0 -0.74146647834E+02 -0.15743462729E+02  0.46087700253E+03  0.46708742851E+03  0.41800000000E+01 0. -1.
         -5    1    3    3    0  502  0.36667915746E+02  0.39601961445E+02  0.49832500432E+03  0.50125655479E+03  0.41800000000E+01 0. -1.
        -11    1    4    4    0    0  0.55506936427E+02  0.17884407315E+02  0.24463382312E+03  0.25148872625E+03  0.00000000000E+00 0.  1.
         11    1    4    4    0    0 -0.18028204339E+02 -0.41742906031E+02  0.23464291279E+03  0.23900791384E+03  0.00000000000E+00 0. -1.
</event>
<event>
 8    1  0.7136454E-009  0.1121079E+03  0.7561462E-02  0.1256715E+00
          3   -1    0    0  501    0  0.00000000000E+00  0.00000000000E+00  0.64957298412E+02  0.64957298412E+02  0.00000000000E+00 0. -1.
         -3   -1    0    0    0  501 -0.00000000000E+00 -0.00000000000E+00 -0.26668212329E+03  0.26668212329E+03  0.00000000000E+00 0.  1.
         25    2    1    2    0    0 -0.12833017583E+01  0.48764323171E+02 -0.35985296184E+02  0.13900223782E+03  0.12508826684E+03 0.  0.
         23    2    1    2    0    0  0.12833017583E+01 -0.48764323171E+02 -0.16573952870E+03  0.19263718388E+03  0.85204971479E+02 0.  0.
          5    1    3    3  502    0 -0.31722377280E+02  0.82545417159E+02 -0.21607915248E+02  0.91128642674E+02  0.41800000000E+01 0.  1.
         -5    1    3    3    0  502  0.30439075521E+02 -0.33781093989E+02 -0.14377380936E+02  0.47873595146E+02  0.41800000000E+01 0.  1.
        -11    1    4    4    0    0  0.37720571675E+02 -0.33741436084E+02 -0.53343927914E+02  0.73531630485E+02  0.00000000000E+00 0. -1.
         11    1    4    4    0    0 -0.36437269917E+02 -0.15022887087E+02 -0.11239560078E+03  0.11910555340E+03  0.00000000000E+00 0.  1.
</event>
<event>
 8    1  0.7136454E-009  0.1163185E+03  0.7561462E-02  0.1249297E+00
          2   -1    0    0  501    0  0.00000000000E+00  0.00000000000E+00  0.53764204414E+03  0.53764204414E+03  0.00000000000E+00 0. -1.
         -2   -1    0    0    0  501 -0.00000000000E+00 -0.00000000000E+00 -0.37976075786E+02  0.37976075786E+02  0.00000000000E+00 0.  1.
         25    2    1    2    0    0  0.37417573070E+02  0.54407779946E+02  0.42461602836E+03  0.44755564930E+03  0.12508799458E+03 0.  0.
         23    2    1    2    0    0 -0.37417573070E+02 -0.54407779946E+02  0.75049940003E+02  0.12806247063E+03  0.80045122259E+02 0.  0.
          5    1    3    3  502    0  0.46323311444E+02  0.86395887700E+02  0.22957620292E+03  0.24966538395E+03  0.41800000000E+01 0. -1.
         -5    1    3    3    0  502 -0.89057383741E+01 -0.31988107754E+02  0.19503982543E+03  0.19789026534E+03  0.41800000000E+01 0. -1.
        -11    1    4    4    0    0 -0.59060446406E+02 -0.24054848059E+02  0.32781720980E+02  0.71703648967E+02  0.00000000000E+00 0. -1.
         11    1    4    4    0    0  0.21642873336E+02 -0.30352931887E+02  0.42268219023E+02  0.56358821667E+02  0.00000000000E+00 0.  1.
</event>
<event>
 8    1  0.7136454E-009  0.1455350E+03  0.7561462E-02  0.1206069E+00
         -3   -1    0    0    0  501 -0.00000000000E+00  0.00000000000E+00  0.45073726360E+03  0.45073726360E+03  0.00000000000E+00 0.  1.
          3   -1    0    0  501    0  0.00000000000E+00 -0.00000000000E+00 -0.54561217779E+02  0.54561217779E+02  0.00000000000E+00 0. -1.
         25    2    1    2    0    0 -0.10133504012E+03  0.86906038315E+01  0.29402336731E+03  0.33532235294E+03  0.12508806060E+03 0.  0.
         23    2    1    2    0    0  0.10133504012E+03 -0.86906038315E+01  0.10215267851E+03  0.16997612844E+03  0.90068848998E+02 0.  0.
          5    1    3    3  502    0  0.27584207715E+02 -0.12311254965E+02  0.58522645320E+02  0.65991120079E+02  0.41800000000E+01 0.  1.
         -5    1    3    3    0  502 -0.12891924784E+03  0.21001858797E+02  0.23550072199E+03  0.26933123286E+03  0.41800000000E+01 0.  1.
        -11    1    4    4    0    0  0.73139888505E+02 -0.43496746653E+02  0.89350538596E+02  0.12338933912E+03  0.00000000000E+00 0.  1.
         11    1    4    4    0    0  0.28195151619E+02  0.34806142821E+02  0.12802139914E+02  0.46586789322E+02  0.00000000000E+00 0. -1.
</event>
<event>
 8    1  0.7136454E-009  0.1440208E+03  0.7561462E-02  0.1208019E+00
          1   -1    0    0  501    0  0.00000000000E+00  0.00000000000E+00  0.72922511767E+03  0.72922511767E+03  0.00000000000E+00 0. -1.
         -1   -1    0    0    0  501 -0.00000000000E+00 -0.00000000000E+00 -0.48940764616E+02  0.48940764616E+02  0.00000000000E+00 0.  1.
         25    2    1    2    0    0 -0.65985227806E+02 -0.10109033885E+03  0.55640604574E+03  0.58293004337E+03  0.12508573392E+03 0.  0.
         23    2    1    2    0    0  0.65985227806E+02  0.10109033885E+03  0.12387830731E+03  0.19523583891E+03  0.90542204941E+02 0.  0.
          5    1    3    3  502    0  0.20096510429E+02 -0.60355339016E+02  0.34754976410E+03  0.35334819599E+03  0.41800000000E+01 0.  1.
         -5    1    3    3    0  502 -0.86081738235E+02 -0.40734999835E+02  0.20885628164E+03  0.22958184739E+03  0.41800000000E+01 0.  1.
        -11    1    4    4    0    0  0.67691721799E+02  0.68405089381E+02  0.13019539150E+03  0.16190202414E+03  0.00000000000E+00 0. -1.
         11    1    4    4    0    0 -0.17064939933E+01  0.32685249470E+02 -0.63170841858E+01  0.33333814772E+02  0.00000000000E+00 0.  1.
</event>
<event>
 8    1  0.7136454E-009  0.2755604E+03  0.7561462E-02  0.1098139E+00
          2   -1    0    0  501    0  0.00000000000E+00  0.00000000000E+00  0.20265537713E+04  0.20265537713E+04  0.00000000000E+00 0. -1.
         -2   -1    0    0    0  501 -0.00000000000E+00 -0.00000000000E+00 -0.40902584575E+02  0.40902584575E+02  0.00000000000E+00 0.  1.
         25    2    1    2    0    0  0.25605879379E+03  0.29966211241E+02  0.77561678852E+03  0.82685814456E+03  0.12509559902E+03 0.  0.
         23    2    1    2    0    0 -0.25605879379E+03 -0.29966211241E+02  0.12100343982E+04  0.12405982113E+04  0.91850952002E+02 0.  0.
          5    1    3    3  502    0  0.13370217900E+01 -0.17768733960E+02  0.16248457311E+02  0.24474482605E+02  0.41800000000E+01 0. -1.
         -5    1    3    3    0  502  0.25472177200E+03  0.47734945201E+02  0.75936833121E+03  0.80238366195E+03  0.41800000000E+01 0. -1.
        -11    1    4    4    0    0 -0.14192466454E+03 -0.62309382724E+02  0.69731501730E+03  0.71433416755E+03  0.00000000000E+00 0.  1.
         11    1    4    4    0    0 -0.11413412926E+03  0.32343171483E+02  0.51271938088E+03  0.52626404374E+03  0.00000000000E+00 0. -1.
</event>
<event>
 8    1  0.7136454E-009  0.1484159E+03  0.7561462E-02  0.1202433E+00
         -2   -1    0    0    0  501 -0.00000000000E+00  0.00000000000E+00  0.12961961703E+02  0.12961961703E+02  0.00000000000E+00 0.  1.
          2   -1    0    0  501    0  0.00000000000E+00 -0.00000000000E+00 -0.22668389877E+04  0.22668389877E+04  0.00000000000E+00 0. -1.
         25    2    1    2    0    0 -0.10756234336E+03  0.60410179326E+02 -0.15319277992E+04  0.15419691065E+04  0.12508755406E+03 0.  0.
         23    2    1    2    0    0  0.10756234336E+03 -0.60410179326E+02 -0.72194922683E+03  0.73783184287E+03  0.89252981762E+02 0.  0.
          5    1    3    3  502    0  0.47858632669E+01  0.32070128880E+02 -0.96932075614E+02  0.10229710326E+03  0.41800000000E+01 0. -1.
         -5    1    3    3    0  502 -0.11234820662E+03  0.28340050447E+02 -0.14349957236E+04  0.14396720033E+04  0.41800000000E+01 0. -1.
        -11    1    4    4    0    0  0.41082953808E+02 -0.69863113084E+02 -0.47742926484E+03  0.48425960661E+03  0.00000000000E+00 0. -1.
         11    1    4    4    0    0  0.66479389548E+02  0.94529337580E+01 -0.24451996199E+03  0.25357223626E+03  0.00000000000E+00 0.  1.
</event>
<event>
 8    1  0.7136454E-009  0.1243988E+03  0.7561462E-02  0.1236012E+00
          1   -1    0    0  501    0  0.00000000000E+00  0.00000000000E+00  0.19382523051E+03  0.19382523051E+03  0.00000000000E+00 0. -1.
         -1   -1    0    0    0  501 -0.00000000000E+00 -0.00000000000E+00 -0.99556601865E+02  0.99556601865E+02  0.00000000000E+00 0.  1.
         25    2    1    2    0    0  0.26021996087E+02 -0.74000470722E+02  0.73192579974E+02  0.16479155892E+03  0.12508353281E+03 0.  0.
         23    2    1    2    0    0 -0.26021996087E+02  0.74000470722E+02  0.21076048672E+02  0.12859027346E+03  0.99689741965E+02 0.  0.
          5    1    3    3  502    0  0.12989874273E+02  0.22403050793E+02 -0.17656560771E+02  0.31620563827E+02  0.41800000000E+01 0.  1.
         -5    1    3    3    0  502  0.13032121814E+02 -0.96403521515E+02  0.90849140745E+02  0.13317099509E+03  0.41800000000E+01 0.  1.
        -11    1    4    4    0    0 -0.24034778809E+02 -0.19942965820E+02 -0.36045271717E+01  0.31438592434E+02  0.00000000000E+00 0.  1.
         11    1    4    4    0    0 -0.19872172778E+01  0.93943436542E+02  0.24680575843E+02  0.97151681024E+02  0.00000000000E+00 0. -1.
</event>
<event>
 8    1  0.7136454E-009  0.8077136E+02  0.7561462E-02  0.1326877E+00
          1   -1    0    0  501    0  0.00000000000E+00  0.00000000000E+00  0.39219548921E+03  0.39219548921E+03  0.00000000000E+00 0. -1.
         -1   -1    0    0    0  501 -0.00000000000E+00 -0.00000000000E+00 -0.48301914974E+02  0.48301914974E+02  0.00000000000E+00 0.  1.
         25    2    1    2    0    0 -0.16300508122E+01  0.25499799807E+02  0.58555495205E+02  0.14045976380E+03  0.12508917768E+03 0.  0.
         23    2    1    2    0    0  0.16300508122E+01 -0.25499799807E+02  0.28533807903E+03  0.30003764039E+03  0.89173255223E+02 0.  0.
          5    1    3    3  502    0 -0.35162911149E+02  0.26720458175E+02 -0.24576474216E+02  0.50713791916E+02  0.41800000000E+01 0.  1.
         -5    1    3    3    0  502  0.33532860337E+02 -0.12206583680E+01  0.83131969421E+02  0.89745971882E+02  0.41800000000E+01 0.  1.
        -11    1    4    4    0    0  0.14639319605E+02 -0.51905829155E+02  0.23997621524E+03  0.24596159997E+03  0.00000000000E+00 0. -1.
         11    1    4    4    0    0 -0.13009268793E+02  0.26406029347E+02  0.45361863789E+02  0.54076040414E+02  0.00000000000E+00 0.  1.
</event>
<event>
 8    1  0.7136454E-009  0.1064274E+03  0.7561462E-02  0.1267333E+00
         -2   -1    0    0    0  501 -0.00000000000E+00  0.00000000000E+00  0.48407407819E+02  0.48407407819E+02  0.00000000000E+00 0.  1.
          2   -1    0    0  501    0  0.00000000000E+00 -0.00000000000E+00 -0.44883521876E+03  0.44883521876E+03  0.00000000000E+00 0. -1.
         25    2    1    2    0    0  0.19072501980E+02 -0.91739285255E+02 -0.27228315096E+03  0.31395282885E+03  0.12509359557E+03 0.  0.
         23    2    1    2    0    0 -0.19072501980E+02  0.91739285255E+02 -0.12814465998E+03  0.18328979773E+03  0.91620081208E+02 0.  0.
          5    1    3    3  502    0  0.10046529032E+02 -0.63579190225E+02 -0.27638049335E+03  0.28380784993E+03  0.41800000000E+01 0.  1.
         -5    1    3    3    0  502  0.90259729484E+01 -0.28160095030E+02  0.40973423850E+01  0.30144978924E+02  0.41800000000E+01 0.  1.
        -11    1    4    4    0    0 -0.41150266203E+02  0.24905988580E+02 -0.15635318940E+02  0.50577819982E+02  0.00000000000E+00 0.  1.
         11    1    4    4    0    0  0.22077764223E+02  0.66833296674E+02 -0.11250934104E+03  0.13271197775E+03  0.00000000000E+00 0. -1.
</event>
<event>
 8    1  0.7136454E-009  0.1195530E+03  0.7561462E-02  0.1243836E+00
         -1   -1    0    0    0  501 -0.00000000000E+00  0.00000000000E+00  0.77559037823E+02  0.77559037823E+02  0.00000000000E+00 0.  1.
          1   -1    0    0  501    0  0.00000000000E+00 -0.00000000000E+00 -0.21956170127E+03  0.21956170127E+03  0.00000000000E+00 0. -1.
         25    2    1    2    0    0  0.52918415519E+02  0.16285659629E+02 -0.12360761628E+03  0.18437612881E+03  0.12510049025E+03 0.  0.
         23    2    1    2    0    0 -0.52918415519E+02 -0.16285659629E+02 -0.18395047171E+02  0.11274461029E+03  0.96474804890E+02 0.  0.
          5    1    3    3  502    0  0.50848915727E+02 -0.47565900858E+02 -0.45058625688E+02  0.83041431250E+02  0.41800000000E+01 0. -1.
         -5    1    3    3    0  502  0.20694997917E+01  0.63851560488E+02 -0.78548990592E+02  0.10133469756E+03  0.41800000000E+01 0. -1.
        -11    1    4    4    0    0 -0.14081067008E+00 -0.45167032688E+02 -0.25978591633E+02  0.52105353782E+02  0.00000000000E+00 0. -1.
         11    1    4    4    0    0 -0.52777604849E+02  0.28881373059E+02  0.75835444618E+01  0.60639256509E+02  0.00000000000E+00 0.  1.
</event>
<event>
 8    1  0.7136454E-009  0.1197280E+03  0.7561462E-02  0.1243546E+00
          4   -1    0    0  501    0  0.00000000000E+00  0.00000000000E+00  0.45835873848E+03  0.45835873848E+03  0.00000000000E+00 0. -1.
         -4   -1    0    0    0  501 -0.00000000000E+00 -0.00000000000E+00 -0.33299476065E+02  0.33299476065E+02  0.00000000000E+00 0.  1.
         25    2    1    2    0    0  0.97283457733E+01  0.50800493602E+02  0.18352504882E+03  0.22804551628E+03  0.12509189858E+03 0.  0.
         23    2    1    2    0    0 -0.97283457733E+01 -0.50800493602E+02  0.24153421360E+03  0.26361269826E+03  0.92073598204E+02 0.  0.
          5    1    3    3  502    0 -0.22168036283E+02  0.84943123167E+02  0.10949905261E+03  0.14040751735E+03  0.41800000000E+01 0. -1.
         -5    1    3    3    0  502  0.31896382056E+02 -0.34142629566E+02  0.74025996202E+02  0.87637998926E+02  0.41800000000E+01 0. -1.
        -11    1    4    4    0    0  0.33739593438E+02 -0.51047018351E+02  0.15823026372E+03  0.16964956412E+03  0.00000000000E+00 0. -1.
         11    1    4    4    0    0 -0.43467939211E+02  0.24652474948E+00  0.83303949876E+02  0.93963134146E+02  0.00000000000E+00 0.  1.
</event>
<event>
 8    1  0.7136454E-009  0.1118109E+03  0.7561462E-02  0.1257253E+00
          1   -1    0    0  501    0  0.00000000000E+00  0.00000000000E+00  0.19518701361E+03  0.19518701361E+03  0.00000000000E+00 0. -1.
         -1   -1    0    0    0  501 -0.00000000000E+00 -0.00000000000E+00 -0.91005679432E+02  0.91005679432E+02  0.00000000000E+00 0.  1.
         25    2    1    2    0    0 -0.43698549859E+02  0.63359613379E+02  0.66559784338E+02  0.16125086143E+03  0.12509049345E+03 0.  0.
         23    2    1    2    0    0  0.43698549859E+02 -0.63359613379E+02  0.37621549836E+02  0.12494183161E+03  0.90945458419E+02 0.  0.
          5    1    3    3  502    0  0.93866426073E+01  0.87421375440E+02  0.34024951405E+02  0.94370417300E+02  0.41800000000E+01 0. -1.
         -5    1    3    3    0  502 -0.53085192466E+02 -0.24061762061E+02  0.32534832933E+02  0.66880444127E+02  0.41800000000E+01 0. -1.
        -11    1    4    4    0    0  0.29641675078E+02 -0.47321071287E+02 -0.23217673352E+02  0.60472911664E+02  0.00000000000E+00 0.  1.
         11    1    4    4    0    0  0.14056874781E+02 -0.16038542091E+02  0.60839223188E+02  0.64468919947E+02  0.00000000000E+00 0. -1.
</event>
<event>
 8    1  0.7136454E-009  0.9263670E+02  0.7561462E-02  0.1296589E+00
          1   -1    0    0  501    0  0.00000000000E+00  0.00000000000E+00  0.91216216036E+02  0.91216216036E+02  0.00000000000E+00 0. -1.
         -1   -1    0    0    0  501 -0.00000000000E+00 -0.00000000000E+00 -0.14345757001E+03  0.14345757001E+03  0.00000000000E+00 0.  1.
         25    2    1    2    0    0 -0.84253204543E+01  0.99407096455E+00  0.76243956358E+01  0.12560931637E+03  0.12509034635E+03 0.  0.
         23    2    1    2    0    0  0.84253204543E+01 -0.99407096455E+00 -0.59865749614E+02  0.10906446968E+03  0.90769908931E+02 0.  0.
          5    1    3    3  502    0  0.39478076648E+02 -0.28928114351E+02 -0.30054388634E+02  0.57585527799E+02  0.41800000000E+01 0. -1.
         -5    1    3    3    0  502 -0.47903397102E+02  0.29922185315E+02  0.37678784269E+02  0.68023788574E+02  0.41800000000E+01 0. -1.
        -11    1    4    4    0    0 -0.24634937919E+02  0.26744997336E+02 -0.13901956480E+01  0.36388290599E+02  0.00000000000E+00 0. -1.
         11    1    4    4    0    0  0.33060258373E+02 -0.27739068300E+02 -0.58475553966E+02  0.72676179079E+02  0.00000000000E+00 0.  1.
</event>
<event>
 8    1  0.7136454E-009  0.1299079E+03  0.7561462E-02  0.1227592E+00
          1   -1    0    0  501    0  0.00000000000E+00  0.00000000000E+00  0.75224259290E+02  0.75224259290E+02  0.00000000000E+00 0. -1.
         -1   -1    0    0    0  501 -0.00000000000E+00 -0.00000000000E+00 -0.29175085915E+03  0.29175085915E+03  0.00000000000E+00 0.  1.
         25    2    1    2    0    0 -0.89073838395E+02 -0.39227989268E+02 -0.12302925423E+03  0.20064144227E+03  0.12509119526E+03 0.  0.
         23    2    1    2    0    0  0.89073838395E+02  0.39227989268E+02 -0.93497345630E+02  0.16633367617E+03  0.97222190679E+02 0.  0.
          5    1    3    3  502    0 -0.99099788413E+02 -0.72878211963E+02 -0.97694385728E+02  0.15714218799E+03  0.41800000000E+01 0.  1.
         -5    1    3    3    0  502  0.10025950017E+02  0.33650222695E+02 -0.25334868505E+02  0.43499254285E+02  0.41800000000E+01 0.  1.
        -11    1    4    4    0    0  0.62569756385E+02  0.41005182369E+02 -0.11148103378E+03  0.13425505684E+03  0.00000000000E+00 0.  1.
         11    1    4    4    0    0  0.26504082010E+02 -0.17771931011E+01  0.17983688151E+02  0.32078619328E+02  0.00000000000E+00 0. -1.
</event>
<event>
 8    1  0.7136454E-009  0.2136950E+03  0.7561462E-02  0.1138673E+00
          1   -1    0    0  501    0  0.00000000000E+00  0.00000000000E+00  0.35133773884E+03  0.35133773884E+03  0.00000000000E+00 0. -1.
         -1   -1    0    0    0  501 -0.00000000000E+00 -0.00000000000E+00 -0.14030889065E+03  0.14030889065E+03  0.00000000000E+00 0.  1.
         25    2    1    2    0    0  0.10820830251E+03  0.16012981063E+03  0.93127339471E+02  0.24833138442E+03  0.12508070253E+03 0.  0.
         23    2    1    2    0    0 -0.10820830251E+03 -0.16012981063E+03  0.11790150872E+03  0.24331524507E+03  0.89168098210E+02 0.  0.
          5    1    3    3  502    0  0.23643317518E+02 -0.94958017149E+01  0.46360819197E+02  0.53065757981E+02  0.41800000000E+01 0.  1.
         -5    1    3    3    0  502  0.84564984993E+02  0.16962561234E+03  0.46766520274E+02  0.19526562644E+03  0.41800000000E+01 0.  1.
        -11    1    4    4    0    0 -0.12337334223E+03 -0.14715294131E+03  0.11282428260E+03  0.22272020217E+03  0.00000000000E+00 0.  1.
         11    1    4    4    0    0  0.15165039717E+02 -0.12976869317E+02  0.50772261194E+01  0.20595042898E+02  0.00000000000E+00 0. -1.
</event>
<event>
 8    1  0.7136454E-009  0.1600572E+03  0.7561462E-02  0.1188632E+00
         -3   -1    0    0    0  501 -0.00000000000E+00  0.00000000000E+00  0.15932461535E+03  0.15932461535E+03  0.00000000000E+00 0. -1.
          3   -1    0    0  501    0  0.00000000000E+00 -0.00000000000E+00 -0.18236204969E+03  0.18236204969E+03  0.00000000000E+00 0.  1.
         25    2    1    2    0    0 -0.51565065886E+02 -0.12039532947E+03 -0.35240604786E+01  0.18113496827E+03  0.12507384359E+03 0.  0.
         23    2    1    2    0    0  0.51565065886E+02  0.12039532947E+03 -0.19513373864E+02  0.16055169678E+03  0.90785925121E+02 0.  0.
          5    1    3    3  502    0 -0.77826409690E+02 -0.54314568434E+02  0.33658170922E+02  0.10078376486E+03  0.41800000000E+01 0. -1.
         -5    1    3    3    0  502  0.26261343804E+02 -0.66080761035E+02 -0.37182231400E+02  0.80351203409E+02  0.41800000000E+01 0. -1.
        -11    1    4    4    0    0 -0.19680710320E+02  0.49980066035E+02 -0.26965130268E+02  0.60103707123E+02  0.00000000000E+00 0.  1.
         11    1    4    4    0    0  0.71245776206E+02  0.70415263434E+02  0.74517564043E+01  0.10044798965E+03  0.00000000000E+00 0. -1.
</event>
<event>
 8    1  0.7136454E-009  0.1298504E+03  0.7561462E-02  0.1227678E+00
          2   -1    0    0  501    0  0.00000000000E+00  0.00000000000E+00  0.28330946148E+03  0.28330946148E+03  0.00000000000E+00 0.  1.
         -2   -1    0    0    0  501 -0.00000000000E+00 -0.00000000000E+00 -0.10333929338E+03  0.10333929338E+03  0.00000000000E+00 0. -1.
         25    2    1    2    0    0  0.88074284512E+02 -0.88306692812E+01  0.20252914590E+03  0.25397206799E+03  0.12509474837E+03 0.  0.
         23    2    1    2    0    0 -0.88074284512E+02  0.88306692812E+01 -0.22558977791E+02  0.13267668688E+03  0.96224401525E+02 0.  0.
          5    1    3    3  502    0  0.15746089615E+02 -0.49106183394E+02  0.23785757662E+02  0.56943755174E+02  0.41800000000E+01 0.  1.
         -5    1    3    3    0  502  0.72328194897E+02  0.40275514113E+02  0.17874338823E+03  0.19702831282E+03  0.41800000000E+01 0.  1.
        -11    1    4    4    0    0 -0.10611403377E+03  0.31583931465E+01 -0.40842874857E+01  0.10623956427E+03  0.00000000000E+00 0. -1.
         11    1    4    4    0    0  0.18039749262E+02  0.56722761347E+01 -0.18474690306E+02  0.26437122609E+02  0.00000000000E+00 0.  1.
</event>
<event>
 8    1  0.7136454E-009  0.9999418E+02  0.7561462E-02  0.1280308E+00
         -1   -1    0    0    0  501 -0.00000000000E+00  0.00000000000E+00  0.30455740244E+02  0.30455740244E+02  0.00000000000E+00 0.  1.
          1   -1    0    0  501    0  0.00000000000E+00 -0.00000000000E+00 -0.54108183497E+03  0.54108183497E+03  0.00000000000E+00 0. -1.
         25    2    1    2    0    0  0.51534617520E+02 -0.38858971689E+02 -0.23160556397E+03  0.27102500457E+03  0.12509028482E+03 0.  0.
         23    2    1    2    0    0 -0.51534617520E+02  0.38858971689E+02 -0.27902053075E+03  0.30051257064E+03  0.91046757490E+02 0.  0.
          5    1    3    3  502    0  0.47002211031E+02  0.32639278430E+02 -0.51310122237E+02  0.76972276712E+02  0.41800000000E+01 0.  1.
         -5    1    3    3    0  502  0.45324064889E+01 -0.71498250118E+02 -0.18029544174E+03  0.19405272786E+03  0.41800000000E+01 0.  1.
        -11    1    4    4    0    0 -0.21434306638E+02 -0.32666876736E+00 -0.49203144368E+01  0.21994219870E+02  0.00000000000E+00 0.  1.
         11    1    4    4    0    0 -0.30100310882E+02  0.39185640456E+02 -0.27410021631E+03  0.27851835077E+03  0.00000000000E+00 0. -1.
</event>
<event>
 8    1  0.7136454E-009  0.9395805E+02  0.7561462E-02  0.1293540E+00
         -1   -1    0    0    0  501 -0.00000000000E+00  0.00000000000E+00  0.42780749631E+02  0.42780749631E+02  0.00000000000E+00 0.  1.
          1   -1    0    0  501    0  0.00000000000E+00 -0.00000000000E+00 -0.52599357425E+03  0.52599357425E+03  0.00000000000E+00 0. -1.
         25    2    1    2    0    0  0.52676212760E+02  0.46998446581E+02 -0.11788436933E+03  0.18582074157E+03  0.12509590759E+03 0.  0.
         23    2    1    2    0    0 -0.52676212760E+02 -0.46998446581E+02 -0.36532845529E+03  0.38295358231E+03  0.90581060851E+02 0.  0.
          5    1    3    3  502    0 -0.43294328304E+01  0.40102968222E+02 -0.12154498416E+03  0.12813136862E+03  0.41800000000E+01 0. -1.
         -5    1    3    3    0  502  0.57005645590E+02  0.68954783588E+01  0.36606148350E+01  0.57689372955E+02  0.41800000000E+01 0. -1.
        -11    1    4    4    0    0 -0.23900197475E+02  0.10025505633E+02 -0.22795391332E+02  0.34516084200E+02  0.00000000000E+00 0.  1.
         11    1    4    4    0    0 -0.28776015284E+02 -0.57023952214E+02 -0.34253306396E+03  0.34843749811E+03  0.00000000000E+00 0. -1.
</event>
<event>
 8    1  0.7136454E-009  0.1131756E+03  0.7561462E-02  0.1254800E+00
          1   -1    0    0  501    0  0.00000000000E+00  0.00000000000E+00  0.27420991555E+03  0.27420991555E+03  0.00000000000E+00 0. -1.
         -1   -1    0    0    0  501 -0.00000000000E+00 -0.00000000000E+00 -0.11923405457E+03  0.11923405457E+03  0.00000000000E+00 0.  1.
         25    2    1    2    0    0  0.77844159135E+02  0.35449691129E+02  0.20844881948E+03  0.25770662542E+03  0.12508157631E+03 0.  0.
         23    2    1    2    0    0 -0.77844159135E+02 -0.35449691129E+02 -0.53472958499E+02  0.13573734471E+03  0.90823321588E+02 0.  0.
          5    1    3    3  502    0  0.70705385215E+02  0.32065421529E+01  0.21264684085E+03  0.22415549232E+03  0.41800000000E+01 0. -1.
         -5    1    3    3    0  502  0.71387739205E+01  0.32243148976E+02 -0.41980213767E+01  0.33551133103E+02  0.41800000000E+01 0. -1.
        -11    1    4    4    0    0 -0.81160500441E+02 -0.57754543109E+02 -0.53743677073E+02  0.11318567448E+03  0.00000000000E+00 0.  1.
         11    1    4    4    0    0  0.33163413056E+01  0.22304851980E+02  0.27071857373E+00  0.22551670228E+02  0.00000000000E+00 0. -1.
</event>
<event>
 8    1  0.7136454E-009  0.1405916E+03  0.7561462E-02  0.1212535E+00
         -2   -1    0    0    0  501 -0.00000000000E+00  0.00000000000E+00  0.53331209271E+02  0.53331209271E+02  0.00000000000E+00 0.  1.
          2   -1    0    0  501    0  0.00000000000E+00 -0.00000000000E+00 -0.43981341861E+03  0.43981341861E+03  0.00000000000E+00 0. -1.
         25    2    1    2    0    0 -0.47562956650E+02  0.90567082611E+02 -0.16820275399E+03  0.23324834213E+03  0.12509193163E+03 0.  0.
         23    2    1    2    0    0  0.47562956650E+02 -0.90567082611E+02 -0.21827945534E+03  0.25989628574E+03  0.97136643035E+02 0.  0.
          5    1    3    3  502    0 -0.59214496365E+02  0.64810406419E+00 -0.11123451375E+03  0.12608475747E+03  0.41800000000E+01 0. -1.
         -5    1    3    3    0  502  0.11651539716E+02  0.89918978546E+02 -0.56968240245E+02  0.10716358466E+03  0.41800000000E+01 0. -1.
        -11    1    4    4    0    0  0.69761996061E+02 -0.53782335627E+02 -0.18713808187E+03  0.20683311487E+03  0.00000000000E+00 0. -1.
         11    1    4    4    0    0 -0.22199039411E+02 -0.36784746984E+02 -0.31141373471E+02  0.53063170873E+02  0.00000000000E+00 0.  1.
</event>
<event>
 8    1  0.7136454E-009  0.1372876E+03  0.7561462E-02  0.1217026E+00
          1   -1    0    0  501    0  0.00000000000E+00  0.00000000000E+00  0.94324336006E+03  0.94324336006E+03  0.00000000000E+00 0. -1.
         -1   -1    0    0    0  501 -0.00000000000E+00 -0.00000000000E+00 -0.27407638447E+02  0.27407638447E+02  0.00000000000E+00 0.  1.
         25    2    1    2    0    0  0.10862013255E+02  0.95399229447E+02  0.69822950625E+03  0.71581480409E+03  0.12508954413E+03 0.  0.
         23    2    1    2    0    0 -0.10862013255E+02 -0.95399229447E+02  0.21760621537E+03  0.25483619442E+03  0.91487839127E+02 0.  0.
          5    1    3    3  502    0  0.54662826175E+02  0.23575087515E+02  0.44406481516E+03  0.44805673946E+03  0.41800000000E+01 0.  1.
         -5    1    3    3    0  502 -0.43800812920E+02  0.71824141933E+02  0.25416469109E+03  0.26775806463E+03  0.41800000000E+01 0.  1.
        -11    1    4    4    0    0 -0.44092255895E+02 -0.20289718941E+02  0.10273367130E+03  0.11362221149E+03  0.00000000000E+00 0. -1.
         11    1    4    4    0    0  0.33230242641E+02 -0.75109510506E+02  0.11487254406E+03  0.14121398293E+03  0.00000000000E+00 0.  1.
</event>
<event>
 8    1  0.7136454E-009  0.1642828E+03  0.7561462E-02  0.1183945E+00
         -1   -1    0    0    0  501 -0.00000000000E+00  0.00000000000E+00  0.32029643082E+03  0.32029643082E+03  0.00000000000E+00 0.  1.
          1   -1    0    0  501    0  0.00000000000E+00 -0.00000000000E+00 -0.11035743870E+03  0.11035743870E+03  0.00000000000E+00 0. -1.
         25    2    1    2    0    0 -0.74420651379E+02  0.12726883895E+03  0.59464858929E+02  0.20228496936E+03  0.12508936270E+03 0.  0.
         23    2    1    2    0    0  0.74420651379E+02 -0.12726883895E+03  0.15047413319E+03  0.22836890017E+03  0.88170851680E+02 0.  0.
          5    1    3    3  502    0 -0.10336809145E+02  0.11054287078E+03 -0.30061573573E+01  0.11114443434E+03  0.41800000000E+01 0.  1.
         -5    1    3    3    0  502 -0.64083842234E+02  0.16725968168E+02  0.62471016286E+02  0.91140535013E+02  0.41800000000E+01 0.  1.
        -11    1    4    4    0    0  0.36490106090E+02 -0.31912673304E+02  0.28250305590E+01  0.48558494185E+02  0.00000000000E+00 0. -1.
         11    1    4    4    0    0  0.37930545289E+02 -0.95356165643E+02  0.14764910263E+03  0.17981040598E+03  0.00000000000E+00 0.  1.
</event>
<event>
 8    1  0.7136454E-009  0.1238728E+03  0.7561462E-02  0.1236842E+00
         -1   -1    0    0    0  501 -0.00000000000E+00  0.00000000000E+00  0.72183397100E+02  0.72183397100E+02  0.00000000000E+00 0.  1.
          1   -1    0    0  501    0  0.00000000000E+00 -0.00000000000E+00 -0.29823917205E+03  0.29823917205E+03  0.00000000000E+00 0. -1.
         25    2    1    2    0    0  0.81982617835E+02  0.44104857270E+02 -0.16287439169E+03  0.22548305414E+03  0.12509257442E+03 0.  0.
         23    2    1    2    0    0 -0.81982617835E+02 -0.44104857270E+02 -0.63181383255E+02  0.14493951500E+03  0.91373889913E+02 0.  0.
          5    1    3    3  502    0  0.82135159534E+02 -0.23362558967E+02 -0.69341333285E+02  0.11008036380E+03  0.41800000000E+01 0. -1.
         -5    1    3    3    0  502 -0.15254169839E+00  0.67467416237E+02 -0.93533058409E+02  0.11540269034E+03  0.41800000000E+01 0. -1.
        -11    1    4    4    0    0 -0.48905527677E+02 -0.16636440763E+02 -0.82868642272E+02  0.97651081257E+02  0.00000000000E+00 0. -1.
         11    1    4    4    0    0 -0.33077090158E+02 -0.27468416507E+02  0.19687259017E+02  0.47288433748E+02  0.00000000000E+00 0.  1.
</event>
<event>
 8    1  0.7136454E-009  0.1190285E+03  0.7561462E-02  0.1244708E+00
          2   -1    0    0  501    0  0.00000000000E+00  0.00000000000E+00  0.21898506143E+04  0.21898506143E+04  0.00000000000E+00 0. -1.
         -2   -1    0    0    0  501 -0.00000000000E+00 -0.00000000000E+00 -0.12490964092E+02  0.12490964092E+02  0.00000000000E+00 0.  1.
         25    2    1    2    0    0  0.84936692052E+02  0.29642985629E+02  0.17103130966E+04  0.17172395922E+04  0.12509188894E+03 0.  0.
         23    2    1    2    0    0 -0.84936692052E+02 -0.29642985629E+02  0.46704655362E+03  0.48510198611E+03  0.95386086138E+02 0.  0.
          5    1    3    3  502    0  0.98496924414E+02  0.15722196251E+02  0.73780812238E+03  0.74453148317E+03  0.41800000000E+01 0.  1.
         -5    1    3    3    0  502 -0.13560232362E+02  0.13920789378E+02  0.97250497417E+03  0.97270810907E+03  0.41800000000E+01 0.  1.
        -11    1    4    4    0    0 -0.99272949025E+02 -0.30862143628E+02  0.45376338220E+03  0.46551992153E+03  0.00000000000E+00 0. -1.
         11    1    4    4    0    0  0.14336256974E+02  0.12191579991E+01  0.13283171417E+02  0.19582064578E+02  0.00000000000E+00 0.  1.
</event>
<event>
 8    1  0.7136454E-009  0.5733315E+02  0.7561462E-02  0.1409377E+00
         -2   -1    0    0    0  501 -0.00000000000E+00  0.00000000000E+00  0.30831185595E+02  0.30831185595E+02  0.00000000000E+00 0.  1.
          2   -1    0    0  501    0  0.00000000000E+00 -0.00000000000E+00 -0.38013685696E+03  0.38013685696E+03  0.00000000000E+00 0. -1.
         25    2    1    2    0    0 -0.45810842235E+01  0.75562095263E+01 -0.20220858693E+03  0.23793788838E+03  0.12509213988E+03 0.  0.
         23    2    1    2    0    0  0.45810842235E+01 -0.75562095263E+01 -0.14709708443E+03  0.17303015418E+03  0.90685166216E+02 0.  0.
          5    1    3    3  502    0 -0.12919745874E+02  0.51079769886E+01 -0.21851348001E+03  0.21899457666E+03  0.41800000000E+01 0. -1.
         -5    1    3    3    0  502  0.83386616503E+01  0.24482325377E+01  0.16304893072E+02  0.18943311716E+02  0.41800000000E+01 0. -1.
        -11    1    4    4    0    0  0.37969450449E+02  0.23716587247E+02 -0.62851352614E+02  0.77165071136E+02  0.00000000000E+00 0.  1.
         11    1    4    4    0    0 -0.33388366225E+02 -0.31272796773E+02 -0.84245731815E+02  0.95865083040E+02  0.00000000000E+00 0. -1.
</event>
<event>
 8    1  0.7136454E-009  0.1500763E+03  0.7561462E-02  0.1200379E+00
          1   -1    0    0  501    0  0.00000000000E+00  0.00000000000E+00  0.20178242558E+03  0.20178242558E+03  0.00000000000E+00 0. -1.
         -1   -1    0    0    0  501 -0.00000000000E+00 -0.00000000000E+00 -0.12593849229E+03  0.12593849229E+03  0.00000000000E+00 0.  1.
         25    2    1    2    0    0 -0.10495217692E+03 -0.47089132884E+01  0.90051490246E+02  0.18653164361E+03  0.12509056666E+03 0.  0.
         23    2    1    2    0    0  0.10495217692E+03  0.47089132884E+01 -0.14207556954E+02  0.14118927425E+03  0.93249252995E+02 0.  0.
          5    1    3    3  502    0 -0.56025778348E+02  0.57556962043E+02  0.64869024908E+02  0.10333031749E+03  0.41800000000E+01 0. -1.
         -5    1    3    3    0  502 -0.48926398575E+02 -0.62265875331E+02  0.25182465337E+02  0.83201326124E+02  0.41800000000E+01 0. -1.
        -11    1    4    4    0    0 -0.79296430239E+01 -0.22882684162E+02 -0.38759954787E+01  0.24525900879E+02  0.00000000000E+00 0. -1.
         11    1    4    4    0    0  0.11288181995E+03  0.27591597451E+02 -0.10331561475E+02  0.11666337337E+03  0.00000000000E+00 0.  1.
</event>
<event>
 8    1  0.7136454E-009  0.9904755E+02  0.7561462E-02  0.1282312E+00
          3   -1    0    0  501    0  0.00000000000E+00  0.00000000000E+00  0.30801627539E+03  0.30801627539E+03  0.00000000000E+00 0. -1.
         -3   -1    0    0    0  501 -0.00000000000E+00 -0.00000000000E+00 -0.88465410515E+02  0.88465410515E+02  0.00000000000E+00 0.  1.
         25    2    1    2    0    0 -0.20560334438E+02  0.23583943381E+02 -0.23384801232E+02  0.13104859751E+03  0.12509179127E+03 0.  0.
         23    2    1    2    0    0  0.20560334438E+02 -0.23583943381E+02  0.24293566610E+03  0.26543308839E+03  0.10226464105E+03 0.  0.
          5    1    3    3  502    0  0.27450037163E+02 -0.34000306706E+02 -0.33582287740E+02  0.55269954281E+02  0.41800000000E+01 0.  1.
         -5    1    3    3    0  502 -0.48010371601E+02  0.57584250086E+02  0.10197486507E+02  0.75778643234E+02  0.41800000000E+01 0.  1.
        -11    1    4    4    0    0  0.37821807391E+02 -0.40167207905E+02  0.23312404120E+03  0.23956358715E+03  0.00000000000E+00 0. -1.
         11    1    4    4    0    0 -0.17261472953E+02  0.16583264525E+02  0.98116249046E+01  0.25869501234E+02  0.00000000000E+00 0.  1.
</event>
<event>
 8    1  0.7136454E-009  0.2567176E+03  0.7561462E-02  0.1109132E+00
          1   -1    0    0  501    0  0.00000000000E+00  0.00000000000E+00  0.43065184158E+03  0.43065184158E+03  0.00000000000E+00 0. -1.
         -1   -1    0    0    0  501 -0.00000000000E+00 -0.00000000000E+00 -0.19240756127E+03  0.19240756127E+03  0.00000000000E+00 0.  1.
         25    2    1    2    0    0 -0.20489232769E+03  0.12416168459E+03 -0.40409888203E+01  0.27029751638E+03  0.12508967945E+03 0.  0.
         23    2    1    2    0    0  0.20489232769E+03 -0.12416168459E+03  0.24228526913E+03  0.35276188647E+03  0.91333493531E+02 0.  0.
          5    1    3    3  502    0 -0.54005692366E+02  0.97634785250E+02 -0.28167755454E+02  0.11515233800E+03  0.41800000000E+01 0. -1.
         -5    1    3    3    0  502 -0.15088663532E+03  0.26526899336E+02  0.24126766634E+02  0.15514517838E+03  0.41800000000E+01 0. -1.
        -11    1    4    4    0    0  0.14704675080E+03 -0.51847111333E+02  0.10811144937E+03  0.18973390672E+03  0.00000000000E+00 0.  1.
         11    1    4    4    0    0  0.57845576886E+02 -0.72314573254E+02  0.13417381976E+03  0.16302797974E+03  0.00000000000E+00 0. -1.
</event>
<event>
 8    1  0.7136454E-009  0.2266442E+03  0.7561462E-02  0.1129024E+00
         -2   -1    0    0    0  501 -0.00000000000E+00  0.00000000000E+00  0.54619445019E+02  0.54619445019E+02  0.00000000000E+00 0.  1.
          2   -1    0    0  501    0  0.00000000000E+00 -0.00000000000E+00 -0.12826859162E+04  0.12826859162E+04  0.00000000000E+00 0. -1.
         25    2    1    2    0    0  0.38597619446E+02 -0.21018800799E+03 -0.91136060062E+03  0.94440146809E+03  0.12508882298E+03 0.  0.
         23    2    1    2    0    0 -0.38597619446E+02  0.21018800799E+03 -0.31670587060E+03  0.39290389316E+03  0.91662892511E+02 0.  0.
          5    1    3    3  502    0  0.24724072157E+02 -0.21013795241E+03 -0.67049551411E+03  0.70310094981E+03  0.41800000000E+01 0.  1.
         -5    1    3    3    0  502  0.13873547290E+02 -0.50055578227E-01 -0.24086508651E+03  0.24130051828E+03  0.41800000000E+01 0.  1.
        -11    1    4    4    0    0 -0.47146445332E+02  0.58012484996E+02 -0.14621968368E+03  0.16422067963E+03  0.00000000000E+00 0. -1.
         11    1    4    4    0    0  0.85488258860E+01  0.15217552300E+03 -0.17048618692E+03  0.22868321353E+03  0.00000000000E+00 0.  1.
</event>
<event>
 8    1  0.7136454E-009  0.1072943E+03  0.7561462E-02  0.1265664E+00
         -2   -1    0    0    0  501 -0.00000000000E+00  0.00000000000E+00  0.40119497077E+03  0.40119497077E+03  0.00000000000E+00 0.  1.
          2   -1    0    0  501    0  0.00000000000E+00 -0.00000000000E+00 -0.80105672074E+02  0.80105672074E+02  0.00000000000E+00 0. -1.
         25    2    1    2    0    0 -0.50058548662E+02  0.42980593033E+01 -0.12506751260E+02  0.13538556714E+03  0.12509397010E+03 0.  0.
         23    2    1    2    0    0  0.50058548662E+02 -0.42980593033E+01  0.33359604996E+03  0.34591507570E+03  0.76462954716E+02 0.  0.
          5    1    3    3  502    0 -0.71973690808E+02 -0.35836805572E+02 -0.30462300864E+02  0.86080851390E+02  0.41800000000E+01 0. -1.
         -5    1    3    3    0  502  0.21915142146E+02  0.40134864875E+02  0.17955549605E+02  0.49304715752E+02  0.41800000000E+01 0. -1.
        -11    1    4    4    0    0 -0.14386389765E+02  0.15101854171E+02  0.12507048264E+03  0.12679771227E+03  0.00000000000E+00 0.  1.
         11    1    4    4    0    0  0.64444938427E+02 -0.19399913474E+02  0.20852556732E+03  0.21911736343E+03  0.00000000000E+00 0. -1.
</event>
<event>
 8    1  0.7136454E-009  0.1169728E+03  0.7561462E-02  0.1248176E+00
         -3   -1    0    0    0  501 -0.00000000000E+00  0.00000000000E+00  0.54882705866E+03  0.54882705866E+03  0.00000000000E+00 0.  1.
          3   -1    0    0  501    0  0.00000000000E+00 -0.00000000000E+00 -0.30640800295E+02  0.30640800295E+02  0.00000000000E+00 0. -1.
         25    2    1    2    0    0 -0.58586697926E+02 -0.37556618198E+02  0.27649830179E+03  0.31135502220E+03  0.12509091979E+03 0.  0.
         23    2    1    2    0    0  0.58586697926E+02  0.37556618198E+02  0.24168795657E+03  0.26811283675E+03  0.92889849463E+02 0.  0.
          5    1    3    3  502    0 -0.94315147245E+02 -0.35475077872E+02  0.15751528535E+03  0.18703573367E+03  0.41800000000E+01 0. -1.
         -5    1    3    3    0  502  0.35728449318E+02 -0.20815403262E+01  0.11898301644E+03  0.12431928854E+03  0.41800000000E+01 0. -1.
        -11    1    4    4    0    0  0.38859849748E+02  0.57245553271E+02  0.88123799590E+02  0.11203992746E+03  0.00000000000E+00 0. -1.
         11    1    4    4    0    0  0.19726848179E+02 -0.19688935073E+02  0.15356415698E+03  0.15607290929E+03  0.00000000000E+00 0.  1.
</event>
<event>
 8    1  0.7136454E-009  0.1255294E+03  0.7561462E-02  0.1234244E+00
         -2   -1    0    0    0  501 -0.00000000000E+00  0.00000000000E+00  0.48115284662E+03  0.48115284662E+03  0.00000000000E+00 0.  1.
          2   -1    0    0  501    0  0.00000000000E+00 -0.00000000000E+00 -0.48687851582E+02  0.48687851582E+02  0.00000000000E+00 0. -1.
         25    2    1    2    0    0 -0.72702355402E+01  0.86730332262E+02  0.33952783321E+03  0.37215701099E+03  0.12508670772E+03 0.  0.
         23    2    1    2    0    0  0.72702355402E+01 -0.86730332262E+02  0.92937161826E+02  0.15768368721E+03  0.93015172438E+02 0.  0.
          5    1    3    3  502    0  0.43743902633E+02  0.44419909077E+02  0.66830713600E+02  0.91490294677E+02  0.41800000000E+01 0.  1.
         -5    1    3    3    0  502 -0.51014138173E+02  0.42310423185E+02  0.27269711961E+03  0.28066671631E+03  0.41800000000E+01 0.  1.
        -11    1    4    4    0    0  0.18644210042E+02 -0.10168426730E+03  0.59365225487E+02  0.11921210837E+03  0.00000000000E+00 0. -1.
         11    1    4    4    0    0 -0.11373974502E+02  0.14953935035E+02  0.33571936339E+02  0.38471578841E+02  0.00000000000E+00 0.  1.
</event>
<event>
 8    1  0.7136454E-009  0.1148592E+03  0.7561462E-02  0.1251827E+00
          2   -1    0    0  501    0  0.00000000000E+00  0.00000000000E+00  0.73552773158E+02  0.73552773158E+02  0.00000000000E+00 0.  1.
         -2   -1    0    0    0  501 -0.00000000000E+00 -0.00000000000E+00 -0.25895858123E+03  0.25895858123E+03  0.00000000000E+00 0. -1.
         25    2    1    2    0    0  0.20698805475E+02 -0.70938808845E+02 -0.52751552043E+02  0.15453587412E+03  0.12505140942E+03 0.  0.
         23    2    1    2    0    0 -0.20698805475E+02  0.70938808845E+02 -0.13265425603E+03  0.17797548027E+03  0.92829762399E+02 0.  0.
          5    1    3    3  502    0 -0.32984995141E+01 -0.95339408584E+02 -0.49745103436E+01  0.95617472678E+02  0.41800000000E+01 0.  1.
         -5    1    3    3    0  502  0.23997304989E+02  0.24400599739E+02 -0.47777041700E+02  0.58918401437E+02  0.41800000000E+01 0.  1.
        -11    1    4    4    0    0  0.94372539634E+01 -0.97803833302E+01 -0.70342192520E+02  0.71643155354E+02  0.00000000000E+00 0. -1.
         11    1    4    4    0    0 -0.30136059438E+02  0.80719192175E+02 -0.62312063508E+02  0.10633232492E+03  0.00000000000E+00 0.  1.
</event>
<event>
 8    1  0.7136454E-009  0.1338655E+03  0.7561462E-02  0.1221830E+00
         -1   -1    0    0    0  501 -0.00000000000E+00  0.00000000000E+00  0.10111075471E+03  0.10111075471E+03  0.00000000000E+00 0.  1.
          1   -1    0    0  501    0  0.00000000000E+00 -0.00000000000E+00 -0.27628363793E+03  0.27628363793E+03  0.00000000000E+00 0. -1.
         25    2    1    2    0    0 -0.44591890397E+01  0.82409095395E+02 -0.20237948409E+03  0.25182616335E+03  0.12509123709E+03 0.  0.
         23    2    1    2    0    0  0.44591890397E+01 -0.82409095395E+02  0.27206600868E+02  0.12556822928E+03  0.90642361527E+02 0.  0.
          5    1    3    3  502    0 -0.25411528695E+02  0.10857225237E+03 -0.17832112824E+03  0.21035583413E+03  0.41800000000E+01 0. -1.
         -5    1    3    3    0  502  0.20952339656E+02 -0.26163156971E+02 -0.24058355846E+02  0.41470329221E+02  0.41800000000E+01 0. -1.
        -11    1    4    4    0    0  0.38754220848E+02 -0.68025657246E+01  0.12259389041E+02  0.41212342249E+02  0.00000000000E+00 0. -1.
         11    1    4    4    0    0 -0.34295031808E+02 -0.75606529670E+02  0.14947211827E+02  0.84355887032E+02  0.00000000000E+00 0.  1.
</event>
<event>
 8    1  0.7136454E-009  0.1397622E+03  0.7561462E-02  0.1213649E+00
         -2   -1    0    0    0  501 -0.00000000000E+00  0.00000000000E+00  0.11432957695E+03  0.11432957695E+03  0.00000000000E+00 0.  1.
          2   -1    0    0  501    0  0.00000000000E+00 -0.00000000000E+00 -0.19637740595E+03  0.19637740595E+03  0.00000000000E+00 0. -1.
         25    2    1    2    0    0  0.95623736148E+02 -0.36504607207E+02 -0.42943479745E+02  0.16723653432E+03  0.12508969061E+03 0.  0.
         23    2    1    2    0    0 -0.95623736148E+02  0.36504607207E+02 -0.39104349253E+02  0.14347044857E+03  0.92618217537E+02 0.  0.
          5    1    3    3  502    0  0.38939115752E+02 -0.79606108204E+02 -0.35348341147E+02  0.95500601154E+02  0.41800000000E+01 0.  1.
         -5    1    3    3    0  502  0.56684620396E+02  0.43101500996E+02 -0.75951385982E+01  0.71735933171E+02  0.41800000000E+01 0.  1.
        -11    1    4    4    0    0  0.14981569800E+01 -0.11178107468E+02  0.17915145684E+02  0.21169482888E+02  0.00000000000E+00 0.  1.
         11    1    4    4    0    0 -0.97121893128E+02  0.47682714675E+02 -0.57019494936E+02  0.12230096568E+03  0.00000000000E+00 0. -1.
</event>
<event>
 8    1  0.7136454E-009  0.7236599E+02  0.7561462E-02  0.1352227E+00
         -1   -1    0    0    0  501 -0.00000000000E+00  0.00000000000E+00  0.41113818331E+02  0.41113818331E+02  0.00000000000E+00 0. -1.
          1   -1    0    0  501    0  0.00000000000E+00 -0.00000000000E+00 -0.33216887363E+03  0.33216887363E+03  0.00000000000E+00 0.  1.
         25    2    1    2    0    0 -0.13105795761E+02 -0.65400409746E+01 -0.22871731640E+03  0.26109954760E+03  0.12508728519E+03 0.  0.
         23    2    1    2    0    0  0.13105795761E+02  0.65400409746E+01 -0.62337738906E+02  0.11218314437E+03  0.92111509434E+02 0.  0.
          5    1    3    3  502    0 -0.15898368038E+02  0.33750967284E+02 -0.10284034473E+02  0.38924538069E+02  0.41800000000E+01 0. -1.
         -5    1    3    3    0  502  0.27925722766E+01 -0.40291008258E+02 -0.21843328192E+03  0.22217500953E+03  0.41800000000E+01 0. -1.
        -11    1    4    4    0    0 -0.22596211362E+02  0.18216066343E+02  0.99797345641E+01  0.30692164193E+02  0.00000000000E+00 0. -1.
         11    1    4    4    0    0  0.35702007123E+02 -0.11676025368E+02 -0.72317473470E+02  0.81490980176E+02  0.00000000000E+00 0.  1.
</event>
<event>
 8    1  0.7136454E-009  0.9580474E+02  0.7561462E-02  0.1289374E+00
         -2   -1    0    0    0  501 -0.00000000000E+00  0.00000000000E+00  0.18549909822E+02  0.18549909822E+02  0.00000000000E+00 0.  1.
          2   -1    0    0  501    0  0.00000000000E+00 -0.00000000000E+00 -0.76566326810E+03  0.76566326810E+03  0.00000000000E+00 0. -1.
         25    2    1    2    0    0  0.37750750717E+02 -0.45143820095E+00 -0.37012748444E+03  0.39251024855E+03  0.12507844542E+03 0.  0.
         23    2    1    2    0    0 -0.37750750717E+02  0.45143820095E+00 -0.37698587385E+03  0.39170292937E+03  0.99435973494E+02 0.  0.
          5    1    3    3  502    0 -0.61825592132E+01 -0.40388653584E+02 -0.40962850439E+02  0.58007714080E+02  0.41800000000E+01 0.  1.
         -5    1    3    3    0  502  0.43933309930E+02  0.39937215383E+02 -0.32916463400E+03  0.33450253447E+03  0.41800000000E+01 0.  1.
        -11    1    4    4    0    0  0.17794779820E+02  0.24672949024E+02 -0.45557277233E+02  0.54780234677E+02  0.00000000000E+00 0.  1.
         11    1    4    4    0    0 -0.55545530537E+02 -0.24221510823E+02 -0.33142859661E+03  0.33692269470E+03  0.00000000000E+00 0. -1.
</event>
<event>
 8    1  0.7136454E-009  0.1434809E+03  0.7561462E-02  0.1208720E+00
         -2   -1    0    0    0  501 -0.00000000000E+00  0.00000000000E+00  0.15412956102E+02  0.15412956102E+02  0.00000000000E+00 0.  1.
          2   -1    0    0  501    0  0.00000000000E+00 -0.00000000000E+00 -0.17870597408E+04  0.17870597408E+04  0.00000000000E+00 0. -1.
         25    2    1    2    0    0  0.51005014552E+02  0.88050733579E+02 -0.13444541011E+04  0.13540891305E+04  0.12508437282E+03 0.  0.
         23    2    1    2    0    0 -0.51005014552E+02 -0.88050733579E+02 -0.42719268356E+03  0.44838356631E+03  0.90552694369E+02 0.  0.
          5    1    3    3  502    0  0.84661164614E+02  0.29522933563E+02 -0.61665365899E+03  0.62315192686E+03  0.41800000000E+01 0.  1.
         -5    1    3    3    0  502 -0.33656150061E+02  0.58527800016E+02 -0.72780044210E+03  0.73093720369E+03  0.41800000000E+01 0.  1.
        -11    1    4    4    0    0 -0.39717600018E+02  0.10647015616E+01 -0.20324595347E+03  0.20709306831E+03  0.00000000000E+00 0. -1.
         11    1    4    4    0    0 -0.11287414534E+02 -0.89115435141E+02 -0.22394673009E+03  0.24129049800E+03  0.00000000000E+00 0.  1.
</event>
<event>
 8    1  0.7136454E-009  0.1083340E+03  0.7561462E-02  0.1263687E+00
          2   -1    0    0  501    0  0.00000000000E+00  0.00000000000E+00  0.96893273681E+02  0.96893273681E+02  0.00000000000E+00 0. -1.
         -2   -1    0    0    0  501 -0.00000000000E+00 -0.00000000000E+00 -0.14963368805E+03  0.14963368805E+03  0.00000000000E+00 0.  1.
         25    2    1    2    0    0  0.40138776698E+02  0.20892221737E+02  0.11542766764E+02  0.13351697852E+03  0.12508373901E+03 0.  0.
         23    2    1    2    0    0 -0.40138776698E+02 -0.20892221737E+02 -0.64283181130E+02  0.11300998321E+03  0.81186960808E+02 0.  0.
          5    1    3    3  502    0  0.73189170243E+02  0.48618539876E+02 -0.23678848221E+01  0.87997138243E+02  0.41800000000E+01 0.  1.
         -5    1    3    3    0  502 -0.33050393545E+02 -0.27726318139E+02  0.13910651586E+02  0.45519840274E+02  0.41800000000E+01 0.  1.
        -11    1    4    4    0    0 -0.27272174504E+02 -0.48083129398E+02 -0.61664615789E+02  0.82814755179E+02  0.00000000000E+00 0.  1.
         11    1    4    4    0    0 -0.12866602194E+02  0.27190907661E+02 -0.26185653407E+01  0.30195228032E+02  0.00000000000E+00 0. -1.
</event>
<event>
 8    1  0.7136454E-009  0.1643972E+03  0.7561462E-02  0.1183820E+00
         -1   -1    0    0    0  501 -0.00000000000E+00  0.00000000000E+00  0.47285649238E+03  0.47285649238E+03  0.00000000000E+00 0.  1.
          1   -1    0    0  501    0  0.00000000000E+00 -0.00000000000E+00 -0.68808616242E+02  0.68808616242E+02  0.00000000000E+00 0. -1.
         25    2    1    2    0    0  0.11445336993E+03 -0.86257979506E+02  0.23127317086E+03  0.29945776347E+03  0.12509060567E+03 0.  0.
         23    2    1    2    0    0 -0.11445336993E+03  0.86257979506E+02  0.17277470527E+03  0.24220734514E+03  0.90957607391E+02 0.  0.
          5    1    3    3  502    0 -0.24115241190E+02 -0.20308161088E+02  0.69527949609E+02  0.76456356447E+02  0.41800000000E+01 0. -1.
         -5    1    3    3    0  502  0.13856861112E+03 -0.65949818417E+02  0.16174522125E+03  0.22300140703E+03  0.41800000000E+01 0. -1.
        -11    1    4    4    0    0 -0.48646821589E+02  0.40799582723E+02  0.14370756376E+03  0.15710818911E+03  0.00000000000E+00 0.  1.
         11    1    4    4    0    0 -0.65806548344E+02  0.45458396782E+02  0.29067141509E+02  0.85099156038E+02  0.00000000000E+00 0. -1.
</event>
<event>
 8    1  0.7136454E-009  0.1048660E+03  0.7561462E-02  0.1270384E+00
         -2   -1    0    0    0  501 -0.00000000000E+00  0.00000000000E+00  0.12650601655E+03  0.12650601655E+03  0.00000000000E+00 0. -1.
          2   -1    0    0  501    0  0.00000000000E+00 -0.00000000000E+00 -0.14015398731E+03  0.14015398731E+03  0.00000000000E+00 0.  1.
         25    2    1    2    0    0  0.34262702199E+02  0.30451087390E+02 -0.69105448078E+02  0.15008255989E+03  0.12509200751E+03 0.  0.
         23    2    1    2    0    0 -0.34262702199E+02 -0.30451087390E+02  0.55457477315E+02  0.11657744397E+03  0.91725499000E+02 0.  0.
          5    1    3    3  502    0  0.11203335890E+02  0.74070909788E+02 -0.14588896442E+02  0.76435088220E+02  0.41800000000E+01 0. -1.
         -5    1    3    3    0  502  0.23059366310E+02 -0.43619822398E+02 -0.54516551636E+02  0.73647471667E+02  0.41800000000E+01 0. -1.
        -11    1    4    4    0    0 -0.38805096105E+02  0.13435018942E+02  0.59474778769E+02  0.72274369781E+02  0.00000000000E+00 0. -1.
         11    1    4    4    0    0  0.45423939061E+01 -0.43886106332E+02 -0.40173014540E+01  0.44303074186E+02  0.00000000000E+00 0.  1.
</event>
<event>
 8    1  0.7136454E-009  0.6957963E+02  0.7561462E-02  0.1361528E+00
          1   -1    0    0  501    0  0.00000000000E+00  0.00000000000E+00  0.15593099799E+04  0.15593099799E+04  0.00000000000E+00 0. -1.
         -1   -1    0    0    0  501 -0.00000000000E+00 -0.00000000000E+00 -0.21270130390E+02  0.21270130390E+02  0.00000000000E+00 0.  1.
         25    2    1    2    0    0  0.29879483272E+02  0.42051948136E+02  0.14055112599E+04  0.14120097623E+04  0.12509403455E+03 0.  0.
         23    2    1    2    0    0 -0.29879483272E+02 -0.42051948136E+02  0.13252858962E+03  0.16857034793E+03  0.90504062173E+02 0.  0.
          5    1    3    3  502    0  0.26667591165E+02  0.38797120373E+02  0.16904415913E+03  0.17552714064E+03  0.41800000000E+01 0.  1.
         -5    1    3    3    0  502  0.32118921070E+01  0.32548277623E+01  0.12364671007E+04  0.12364826217E+04  0.41800000000E+01 0.  1.
        -11    1    4    4    0    0  0.10461428956E+02 -0.44083933683E+02  0.11670148996E+03  0.12518814825E+03  0.00000000000E+00 0. -1.
         11    1    4    4    0    0 -0.40340912228E+02  0.20319855479E+01  0.15827099667E+02  0.43382199674E+02  0.00000000000E+00 0.  1.
</event>
<event>
 8    1  0.7136454E-009  0.1050318E+03  0.7561462E-02  0.1270057E+00
          1   -1    0    0  501    0  0.00000000000E+00  0.00000000000E+00  0.23144074171E+02  0.23144074171E+02  0.00000000000E+00 0. -1.
         -1   -1    0    0    0  501 -0.00000000000E+00 -0.00000000000E+00 -0.67704445626E+03  0.67704445626E+03  0.00000000000E+00 0.  1.
         25    2    1    2    0    0  0.13419063660E+01 -0.53140067154E+02 -0.45659327434E+03  0.47639398442E+03  0.12509253681E+03 0.  0.
         23    2    1    2    0    0 -0.13419063660E+01  0.53140067154E+02 -0.19730710775E+03  0.22379454602E+03  0.91259172733E+02 0.  0.
          5    1    3    3  502    0  0.34386676109E+02 -0.68387976204E+02 -0.41009783945E+03  0.41720147304E+03  0.41800000000E+01 0.  1.
         -5    1    3    3    0  502 -0.33044769743E+02  0.15247909050E+02 -0.46495434895E+02  0.59192511383E+02  0.41800000000E+01 0.  1.
        -11    1    4    4    0    0 -0.28371642847E+02 -0.83727015622E+01 -0.24584256951E+02  0.38463462391E+02  0.00000000000E+00 0. -1.
         11    1    4    4    0    0  0.27029736481E+02  0.61512768716E+02 -0.17272285080E+03  0.18533108362E+03  0.00000000000E+00 0.  1.
</event>
<event>
 8    1  0.7136454E-009  0.2097805E+03  0.7561462E-02  0.1141740E+00
          2   -1    0    0  501    0  0.00000000000E+00  0.00000000000E+00  0.47740817395E+03  0.47740817395E+03  0.00000000000E+00 0. -1.
         -2   -1    0    0    0  501 -0.00000000000E+00 -0.00000000000E+00 -0.10189643949E+03  0.10189643949E+03  0.00000000000E+00 0.  1.
         25    2    1    2    0    0 -0.14483612460E+03 -0.10862109064E+03  0.28013171230E+03  0.35622808191E+03  0.12509446745E+03 0.  0.
         23    2    1    2    0    0  0.14483612460E+03  0.10862109064E+03  0.95380022172E+02  0.22307653153E+03  0.88824242024E+02 0.  0.
          5    1    3    3  502    0 -0.12447553688E+03 -0.16687184945E+02  0.16639934989E+03  0.20851579668E+03  0.41800000000E+01 0.  1.
         -5    1    3    3    0  502 -0.20360587719E+02 -0.91933905691E+02  0.11373236241E+03  0.14771228523E+03  0.41800000000E+01 0.  1.
        -11    1    4    4    0    0  0.14619267259E+03  0.71926713580E+02  0.89490197874E+02  0.18588772192E+03  0.00000000000E+00 0. -1.
         11    1    4    4    0    0 -0.13565479921E+01  0.36694377056E+02  0.58898242986E+01  0.37188809611E+02  0.00000000000E+00 0.  1.
</event>
<event>
 8    1  0.7136454E-009  0.3662713E+03  0.7561462E-02  0.1056128E+00
         -1   -1    0    0    0  501 -0.00000000000E+00  0.00000000000E+00  0.26157371063E+03  0.26157371063E+03  0.00000000000E+00 0.  1.
          1   -1    0    0  501    0  0.00000000000E+00 -0.00000000000E+00 -0.58153337906E+03  0.58153337906E+03  0.00000000000E+00 0. -1.
         25    2    1    2    0    0  0.31385705504E+03 -0.16329447638E+03 -0.29397665046E+03  0.47669713971E+03  0.12508619021E+03 0.  0.
         23    2    1    2    0    0 -0.31385705504E+03  0.16329447638E+03 -0.25983017966E+02  0.36640994997E+03  0.91704946435E+02 0.  0.
          5    1    3    3  502    0  0.28170317813E+03 -0.17604662205E+03 -0.29114994896E+03  0.44174071454E+03  0.41800000000E+01 0.  1.
         -5    1    3    3    0  502  0.32153876907E+02  0.12752145672E+02 -0.28267015036E+01  0.34956425172E+02  0.41800000000E+01 0.  1.
        -11    1    4    4    0    0 -0.99820474395E+02  0.62508260301E+01 -0.66508000836E+01  0.10023688481E+03  0.00000000000E+00 0.  1.
         11    1    4    4    0    0 -0.21403658064E+03  0.15704365035E+03 -0.19332217882E+02  0.26617306516E+03  0.00000000000E+00 0. -1.
</event>
<event>
 8    1  0.7136454E-009  0.1031951E+03  0.7561462E-02  0.1273717E+00
          1   -1    0    0  501    0  0.00000000000E+00  0.00000000000E+00  0.21871074397E+03  0.21871074397E+03  0.00000000000E+00 0. -1.
         -1   -1    0    0    0  501 -0.00000000000E+00 -0.00000000000E+00 -0.72045685227E+02  0.72045685227E+02  0.00000000000E+00 0.  1.
         25    2    1    2    0    0  0.22047181521E+02 -0.21431295296E+02  0.17985268345E+02  0.13006633972E+03  0.12509358185E+03 0.  0.
         23    2    1    2    0    0 -0.22047181521E+02  0.21431295296E+02  0.12867979040E+03  0.16069008948E+03  0.91199987769E+02 0.  0.
          5    1    3    3  502    0 -0.31693777082E+02 -0.52172776521E+02  0.27860532012E+02  0.67232252377E+02  0.41800000000E+01 0.  1.
         -5    1    3    3    0  502  0.53740958603E+02  0.30741481225E+02 -0.98752636666E+01  0.62834087341E+02  0.41800000000E+01 0.  1.
        -11    1    4    4    0    0 -0.14744719961E+02 -0.28818451882E+02  0.13995336219E+02  0.35267256364E+02  0.00000000000E+00 0.  1.
         11    1    4    4    0    0 -0.73024615604E+01  0.50249747178E+02  0.11468445418E+03  0.12542283312E+03  0.00000000000E+00 0. -1.
</event>
<event>
 8    1  0.7136454E-009  0.9559859E+02  0.7561462E-02  0.1289834E+00
         -2   -1    0    0    0  501 -0.00000000000E+00  0.00000000000E+00  0.27778012727E+02  0.27778012727E+02  0.00000000000E+00 0.  1.
          2   -1    0    0  501    0  0.00000000000E+00 -0.00000000000E+00 -0.55962920588E+03  0.55962920588E+03  0.00000000000E+00 0. -1.
         25    2    1    2    0    0  0.34370391070E+02  0.28128151338E+02 -0.39629303411E+03  0.41793266684E+03  0.12508808278E+03 0.  0.
         23    2    1    2    0    0 -0.34370391070E+02 -0.28128151338E+02 -0.13555815905E+03  0.16947455176E+03  0.91504603880E+02 0.  0.
          5    1    3    3  502    0 -0.98367780657E+01  0.70074672842E+02 -0.19028492218E+03  0.20305921793E+03  0.41800000000E+01 0. -1.
         -5    1    3    3    0  502  0.44207169135E+02 -0.41946521503E+02 -0.20600811193E+03  0.21487344892E+03  0.41800000000E+01 0. -1.
        -11    1    4    4    0    0 -0.78322847599E+01 -0.31515967418E+02 -0.12191646768E+01  0.32497496047E+02  0.00000000000E+00 0.  1.
         11    1    4    4    0    0 -0.26538106310E+02  0.33878160795E+01 -0.13433899437E+03  0.13697705572E+03  0.00000000000E+00 0. -1.
</event>
<event>
 8    1  0.7136454E-009  0.1777171E+03  0.7561462E-02  0.1170031E+00
          1   -1    0    0  501    0  0.00000000000E+00  0.00000000000E+00  0.50115130766E+03  0.50115130766E+03  0.00000000000E+00 0. -1.
         -1   -1    0    0    0  501 -0.00000000000E+00 -0.00000000000E+00 -0.73801581293E+02  0.73801581293E+02  0.00000000000E+00 0.  1.
         25    2    1    2    0    0  0.61341352218E+02  0.14047811567E+03  0.16507680938E+03  0.25766984758E+03  0.12508610988E+03 0.  0.
         23    2    1    2    0    0 -0.61341352218E+02 -0.14047811567E+03  0.26227291699E+03  0.31728304137E+03  0.91567367990E+02 0.  0.
          5    1    3    3  502    0  0.83806268493E+02  0.11868386006E+03  0.77813596504E+02  0.16486897064E+03  0.41800000000E+01 0. -1.
         -5    1    3    3    0  502 -0.22464916275E+02  0.21794255610E+02  0.87263212873E+02  0.92800876945E+02  0.41800000000E+01 0. -1.
        -11    1    4    4    0    0 -0.76884423577E+02 -0.62755223007E+02  0.14216706720E+03  0.17338081670E+03  0.00000000000E+00 0.  1.
         11    1    4    4    0    0  0.15543071358E+02 -0.77722892665E+02  0.12010584979E+03  0.14390222467E+03  0.00000000000E+00 0. -1.
</event>
<event>
 8    1  0.7136454E-009  0.8826542E+02  0.7561462E-02  0.1307107E+00
          1   -1    0    0  501    0  0.00000000000E+00  0.00000000000E+00  0.27531254426E+02  0.27531254426E+02  0.00000000000E+00 0. -1.
         -1   -1    0    0    0  501 -0.00000000000E+00 -0.00000000000E+00 -0.43305619522E+03  0.43305619522E+03  0.00000000000E+00 0.  1.
         25    2    1    2    0    0 -0.12973974114E+02 -0.31446606956E+01 -0.21723887276E+03  0.25103465795E+03  0.12508980276E+03 0.  0.
         23    2    1    2    0    0  0.12973974114E+02  0.31446606956E+01 -0.18828606803E+03  0.20955279170E+03  0.91008330390E+02 0.  0.
          5    1    3    3  502    0  0.35377204724E+02  0.40077724617E+02 -0.14102214433E+03  0.15087242364E+03  0.41800000000E+01 0. -1.
         -5    1    3    3    0  502 -0.48351178838E+02 -0.43222385313E+02 -0.76216728437E+02  0.10016223430E+03  0.41800000000E+01 0. -1.
        -11    1    4    4    0    0 -0.15541870982E+02 -0.16980166852E+02 -0.57722005133E+01  0.23731711246E+02  0.00000000000E+00 0. -1.
         11    1    4    4    0    0  0.28515845096E+02  0.20124827547E+02 -0.18251386752E+03  0.18582108046E+03  0.00000000000E+00 0.  1.
</event>
<event>
 8    1  0.7136454E-009  0.2029380E+03  0.7561462E-02  0.1147284E+00
          4   -1    0    0  501    0  0.00000000000E+00  0.00000000000E+00  0.10670452325E+03  0.10670452325E+03  0.00000000000E+00 0. -1.
         -4   -1    0    0    0  501 -0.00000000000E+00 -0.00000000000E+00 -0.49726523758E+03  0.49726523758E+03  0.00000000000E+00 0.  1.
         25    2    1    2    0    0  0.16973874070E+03  0.66254293064E+02 -0.31975748577E+03  0.38871166600E+03  0.12510410917E+03 0.  0.
         23    2    1    2    0    0 -0.16973874070E+03 -0.66254293064E+02 -0.70803228550E+02  0.21525809484E+03  0.90122576390E+02 0.  0.
          5    1    3    3  502    0  0.29567455272E+02  0.71308200113E+02 -0.14750570869E+03  0.16653678365E+03  0.41800000000E+01 0. -1.
         -5    1    3    3    0  502  0.14017128543E+03 -0.50539070485E+01 -0.17225177709E+03  0.22217488234E+03  0.41800000000E+01 0. -1.
        -11    1    4    4    0    0 -0.90244796411E+02 -0.98700191550E+01  0.62788630167E+01  0.90999805923E+02  0.00000000000E+00 0. -1.
         11    1    4    4    0    0 -0.79493944289E+02 -0.56384273909E+02 -0.77082091567E+02  0.12425828891E+03  0.00000000000E+00 0.  1.
</event>
<event>
 8    1  0.7136454E-009  0.1064136E+03  0.7561462E-02  0.1267359E+00
         -2   -1    0    0    0  501 -0.00000000000E+00  0.00000000000E+00  0.20732796850E+03  0.20732796850E+03  0.00000000000E+00 0.  1.
          2   -1    0    0  501    0  0.00000000000E+00 -0.00000000000E+00 -0.78908339205E+02  0.78908339205E+02  0.00000000000E+00 0. -1.
         25    2    1    2    0    0  0.41798332836E+02 -0.24753497639E+02  0.12239233506E+03  0.18163007885E+03  0.12509902313E+03 0.  0.
         23    2    1    2    0    0 -0.41798332836E+02  0.24753497639E+02  0.60272942352E+01  0.10460622886E+03  0.92446192822E+02 0.  0.
          5    1    3    3  502    0 -0.18303115322E+01  0.47281832836E+02  0.61068929021E+02  0.77368005328E+02  0.41800000000E+01 0. -1.
         -5    1    3    3    0  502  0.43628644368E+02 -0.72035330476E+02  0.61323406040E+02  0.10426207352E+03  0.41800000000E+01 0. -1.
        -11    1    4    4    0    0  0.15832763790E+02  0.16357928257E+02  0.33267536754E+02  0.40311130322E+02  0.00000000000E+00 0.  1.
         11    1    4    4    0    0 -0.57631096626E+02  0.83955693820E+01 -0.27240242519E+02  0.64295098538E+02  0.00000000000E+00 0. -1.
</event>
<event>
 8    1  0.7136454E-009  0.1070337E+03  0.7561462E-02  0.1266164E+00
          2   -1    0    0  501    0  0.00000000000E+00  0.00000000000E+00  0.27322402093E+03  0.27322402093E+03  0.00000000000E+00 0. -1.
         -2   -1    0    0    0  501 -0.00000000000E+00 -0.00000000000E+00 -0.43640970171E+02  0.43640970171E+02  0.00000000000E+00 0.  1.
         25    2    1    2    0    0  0.18723841460E+02 -0.36058996948E+01  0.12849042637E+03  0.18033381986E+03  0.12508761795E+03 0.  0.
         23    2    1    2    0    0 -0.18723841460E+02  0.36058996948E+01  0.10109262439E+03  0.13653117124E+03  0.89763340305E+02 0.  0.
          5    1    3    3  502    0  0.43582831941E+01  0.58429747932E+02  0.39338961826E+02  0.70696933408E+02  0.41800000000E+01 0.  1.
         -5    1    3    3    0  502  0.14365558266E+02 -0.62035647627E+02  0.89151464541E+02  0.10963688645E+03  0.41800000000E+01 0.  1.
        -11    1    4    4    0    0 -0.41032644766E+02  0.34359765253E+02  0.54070463186E+02  0.76078159769E+02  0.00000000000E+00 0.  1.
         11    1    4    4    0    0  0.22308803306E+02 -0.30753865558E+02  0.47022161207E+02  0.60453011474E+02  0.00000000000E+00 0. -1.
</event>
<event>
 8    1  0.7136454E-009  0.9712285E+02  0.7561462E-02  0.1286465E+00
          1   -1    0    0  501    0  0.00000000000E+00  0.00000000000E+00  0.57434991081E+02  0.57434991081E+02  0.00000000000E+00 0. -1.
         -1   -1    0    0    0  501 -0.00000000000E+00 -0.00000000000E+00 -0.20812440386E+03  0.20812440386E+03  0.00000000000E+00 0.  1.
         25    2    1    2    0    0 -0.49815225899E+00 -0.25906698791E+02 -0.78989774984E+02  0.15019615291E+03  0.12509234428E+03 0.  0.
         23    2    1    2    0    0  0.49815225899E+00  0.25906698791E+02 -0.71699637800E+02  0.11536324204E+03  0.86581951671E+02 0.  0.
          5    1    3    3  502    0 -0.13150390489E+01  0.40274941469E+02  0.75061704108E+01  0.41202126551E+02  0.41800000000E+01 0. -1.
         -5    1    3    3    0  502  0.81688678990E+00 -0.66181640260E+02 -0.86495945395E+02  0.10899402636E+03  0.41800000000E+01 0. -1.
        -11    1    4    4    0    0 -0.40454887572E+02  0.31839788895E+01 -0.18839870466E+02  0.44740098002E+02  0.00000000000E+00 0. -1.
         11    1    4    4    0    0  0.40953039831E+02  0.22722719902E+02 -0.52859767334E+02  0.70623144037E+02  0.00000000000E+00 0.  1.
</event>
<event>
 8    1  0.7136454E-009  0.1152077E+03  0.7561462E-02  0.1251219E+00
          1   -1    0    0  501    0  0.00000000000E+00  0.00000000000E+00  0.28305161031E+03  0.28305161031E+03  0.00000000000E+00 0. -1.
         -1   -1    0    0    0  501 -0.00000000000E+00 -0.00000000000E+00 -0.52604737058E+02  0.52604737058E+02  0.00000000000E+00 0.  1.
         25    2    1    2    0    0  0.48119719700E+02  0.28892620263E+02  0.12763095789E+03  0.18731651811E+03  0.12509007000E+03 0.  0.
         23    2    1    2    0    0 -0.48119719700E+02 -0.28892620263E+02  0.10281591536E+03  0.14833982927E+03  0.91012645083E+02 0.  0.
          5    1    3    3  502    0  0.48406957779E+02  0.68869140734E+02  0.11962005708E+03  0.14633052505E+03  0.41800000000E+01 0. -1.
         -5    1    3    3    0  502 -0.28723807955E+00 -0.39976520471E+02  0.80109008134E+01  0.40985993052E+02  0.41800000000E+01 0. -1.
        -11    1    4    4    0    0 -0.35222107107E+02 -0.61499483192E+02  0.58968548999E+02  0.92195840650E+02  0.00000000000E+00 0.  1.
         11    1    4    4    0    0 -0.12897612592E+02  0.32606862929E+02  0.43847366364E+02  0.56143988616E+02  0.00000000000E+00 0. -1.
</event>
<event>
 8    1  0.7136454E-009  0.1597926E+03  0.7561462E-02  0.1188931E+00
         -2   -1    0    0    0  501 -0.00000000000E+00  0.00000000000E+00  0.85450619335E+02  0.85450619335E+02  0.00000000000E+00 0.  1.
          2   -1    0    0  501    0  0.00000000000E+00 -0.00000000000E+00 -0.38721020963E+03  0.38721020963E+03  0.00000000000E+00 0. -1.
         25    2    1    2    0    0  0.13323983231E+03 -0.20053780125E+02 -0.22943002782E+03  0.29400857506E+03  0.12509155661E+03 0.  0.
         23    2    1    2    0    0 -0.13323983231E+03  0.20053780125E+02 -0.72329562479E+02  0.17865225390E+03  0.92358297977E+02 0.  0.
          5    1    3    3  502    0  0.89735288549E+00 -0.48098714323E+02 -0.66813789446E+02  0.82436923898E+02  0.41800000000E+01 0. -1.
         -5    1    3    3    0  502  0.13234247942E+03  0.28044934197E+02 -0.16261623837E+03  0.21157165116E+03  0.41800000000E+01 0. -1.
        -11    1    4    4    0    0 -0.54355004921E+02 -0.78282643888E+00  0.17683230006E+02  0.57164464492E+02  0.00000000000E+00 0.  1.
         11    1    4    4    0    0 -0.78884827388E+02  0.20836606564E+02 -0.90012792485E+02  0.12148778941E+03  0.00000000000E+00 0. -1.
</event>
<event>
 8    1  0.7136454E-009  0.9058929E+02  0.7561462E-02  0.1301431E+00
         -1   -1    0    0    0  501 -0.00000000000E+00  0.00000000000E+00  0.30662433750E+03  0.30662433750E+03  0.00000000000E+00 0.  1.
          1   -1    0    0  501    0  0.00000000000E+00 -0.00000000000E+00 -0.83887572234E+02  0.83887572234E+02  0.00000000000E+00 0. -1.
         25    2    1    2    0    0  0.79090361590E+02  0.30672408199E+02  0.19567408267E+02  0.15240329630E+03  0.12509116410E+03 0.  0.
         23    2    1    2    0    0 -0.79090361590E+02 -0.30672408199E+02  0.20316935700E+03  0.23810861343E+03  0.90674374797E+02 0.  0.
          5    1    3    3  502    0  0.67082514855E+02  0.14957737636E+02 -0.46648522740E+02  0.83170636575E+02  0.41800000000E+01 0. -1.
         -5    1    3    3    0  502  0.12007846735E+02  0.15714670563E+02  0.66215931006E+02  0.69232659729E+02  0.41800000000E+01 0. -1.
        -11    1    4    4    0    0 -0.59003192256E+02 -0.45827358482E+01  0.19555387586E+03  0.20431274196E+03  0.00000000000E+00 0.  1.
         11    1    4    4    0    0 -0.20087169334E+02 -0.26089672351E+02  0.76154811388E+01  0.33795871467E+02  0.00000000000E+00 0. -1.
</event>
<event>
 8    1  0.7136454E-009  0.9660121E+02  0.7561462E-02  0.1287610E+00
         -2   -1    0    0    0  501 -0.00000000000E+00  0.00000000000E+00  0.33627372802E+02  0.33627372802E+02  0.00000000000E+00 0.  1.
          2   -1    0    0  501    0  0.00000000000E+00 -0.00000000000E+00 -0.45910125617E+03  0.45910125617E+03  0.00000000000E+00 0. -1.
         25    2    1    2    0    0 -0.59342444938E+02  0.12793991488E+02 -0.30088553605E+03  0.33145842799E+03  0.12508945477E+03 0.  0.
         23    2    1    2    0    0  0.59342444938E+02 -0.12793991488E+02 -0.12458834731E+03  0.16127020097E+03  0.82465807743E+02 0.  0.
          5    1    3    3  502    0  0.17819832088E+02 -0.36015189137E+02 -0.14724822372E+03  0.15268972478E+03  0.41800000000E+01 0.  1.
         -5    1    3    3    0  502 -0.77162277026E+02  0.48809180626E+02 -0.15363731233E+03  0.17876870322E+03  0.41800000000E+01 0.  1.
        -11    1    4    4    0    0  0.19468043747E+02 -0.86873936831E+01 -0.11888488500E+03  0.12078117162E+03  0.00000000000E+00 0. -1.
         11    1    4    4    0    0  0.39874401191E+02 -0.41065978053E+01 -0.57034623151E+01  0.40489029357E+02  0.00000000000E+00 0.  1.
</event>
<event>
 8    1  0.7136454E-009  0.1057394E+03  0.7561462E-02  0.1268670E+00
         -2   -1    0    0    0  501 -0.00000000000E+00  0.00000000000E+00  0.36774222312E+02  0.36774222312E+02  0.00000000000E+00 0.  1.
          2   -1    0    0  501    0  0.00000000000E+00 -0.00000000000E+00 -0.43640582888E+03  0.43640582888E+03  0.00000000000E+00 0. -1.
         25    2    1    2    0    0  0.19681300200E+02 -0.43435098684E+02 -0.11514296008E+03  0.17657836834E+03  0.12509219614E+03 0.  0.
         23    2    1    2    0    0 -0.19681300200E+02  0.43435098684E+02 -0.28448864649E+03  0.29660168285E+03  0.69027580816E+02 0.  0.
          5    1    3    3  502    0  0.52857158303E+02  0.22396712656E+02 -0.67482004724E+02  0.88694899985E+02  0.41800000000E+01 0. -1.
         -5    1    3    3    0  502 -0.33175858103E+02 -0.65831811339E+02 -0.47660955355E+02  0.87883468357E+02  0.41800000000E+01 0. -1.
        -11    1    4    4    0    0  0.28061317466E+01 -0.16152084412E+02 -0.29189764867E+02  0.33478449474E+02  0.00000000000E+00 0.  1.
         11    1    4    4    0    0 -0.22487431947E+02  0.59587183095E+02 -0.25529888162E+03  0.26312323338E+03  0.00000000000E+00 0. -1.
</event>
<event>
 8    1  0.7136454E-009  0.1185514E+03  0.7561462E-02  0.1245506E+00
         -3   -1    0    0    0  501 -0.00000000000E+00  0.00000000000E+00  0.38130861260E+03  0.38130861260E+03  0.00000000000E+00 0.  1.
          3   -1    0    0  501    0  0.00000000000E+00 -0.00000000000E+00 -0.49300123563E+02  0.49300123563E+02  0.00000000000E+00 0. -1.
         25    2    1    2    0    0  0.67984508318E+02  0.42721754733E+02  0.22581126320E+03  0.27034117358E+03  0.12508629759E+03 0.  0.
         23    2    1    2    0    0 -0.67984508318E+02 -0.42721754733E+02  0.10619722584E+03  0.16026756259E+03  0.89223310540E+02 0.  0.
          5    1    3    3  502    0  0.95099566262E+02 -0.10799662964E+01  0.12575189157E+03  0.15772160430E+03  0.41800000000E+01 0. -1.
         -5    1    3    3    0  502 -0.27115057944E+02  0.43801721029E+02  0.10005937163E+03  0.11261956928E+03  0.41800000000E+01 0. -1.
        -11    1    4    4    0    0 -0.20614230763E+02  0.67846684306E+01 -0.11136410550E+02  0.24392578289E+02  0.00000000000E+00 0. -1.
         11    1    4    4    0    0 -0.47370277555E+02 -0.49506423163E+02  0.11733363639E+03  0.13587498430E+03  0.00000000000E+00 0.  1.
</event>
<event>
 8    1  0.7136454E-009  0.1256175E+03  0.7561462E-02  0.1234107E+00
         -2   -1    0    0    0  501 -0.00000000000E+00  0.00000000000E+00  0.33580810406E+02  0.33580810406E+02  0.00000000000E+00 0.  1.
          2   -1    0    0  501    0  0.00000000000E+00 -0.00000000000E+00 -0.63750887002E+03  0.63750887002E+03  0.00000000000E+00 0. -1.
         25    2    1    2    0    0  0.94522801703E+02 -0.38733731563E+01 -0.37896873817E+03  0.41013877945E+03  0.12508777253E+03 0.  0.
         23    2    1    2    0    0 -0.94522801703E+02  0.38733731563E+01 -0.22495932145E+03  0.26095090098E+03  0.92407323061E+02 0.  0.
          5    1    3    3  502    0  0.10458937586E+03 -0.44903463063E+02 -0.28983430582E+03  0.31141075089E+03  0.41800000000E+01 0. -1.
         -5    1    3    3    0  502 -0.10066574162E+02  0.41030089906E+02 -0.89134432352E+02  0.98728028562E+02  0.41800000000E+01 0. -1.
        -11    1    4    4    0    0 -0.63453063451E+02 -0.84043020509E+00 -0.43849201844E+02  0.77134623138E+02  0.00000000000E+00 0.  1.
         11    1    4    4    0    0 -0.31069738251E+02  0.47138033614E+01 -0.18111011960E+03  0.18381627784E+03  0.00000000000E+00 0. -1.
</event>
<event>
 8    1  0.7136454E-009  0.9689431E+02  0.7561462E-02  0.1286966E+00
         -2   -1    0    0    0  501 -0.00000000000E+00  0.00000000000E+00  0.15326223040E+03  0.15326223040E+03  0.00000000000E+00 0.  1.
          2   -1    0    0  501    0  0.00000000000E+00 -0.00000000000E+00 -0.16263057524E+03  0.16263057524E+03  0.00000000000E+00 0. -1.
         25    2    1    2    0    0 -0.12527953320E+02 -0.72362844672E+02 -0.93540665342E+02  0.17259880020E+03  0.12508860401E+03 0.  0.
         23    2    1    2    0    0  0.12527953320E+02  0.72362844672E+02  0.84172320503E+02  0.14329400545E+03  0.89748880524E+02 0.  0.
          5    1    3    3  502    0  0.17402493047E+02 -0.30145221308E+02 -0.11210602810E+03  0.11745984449E+03  0.41800000000E+01 0.  1.
         -5    1    3    3    0  502 -0.29930446367E+02 -0.42217623364E+02  0.18565362756E+02  0.55138955707E+02  0.41800000000E+01 0.  1.
        -11    1    4    4    0    0 -0.21982818597E+02 -0.46055418581E+01  0.44993890850E+02  0.50288224696E+02  0.00000000000E+00 0.  1.
         11    1    4    4    0    0  0.34510771917E+02  0.76968386530E+02  0.39178429653E+02  0.93005780752E+02  0.00000000000E+00 0. -1.
</event>
<event>
 8    1  0.7136454E-009  0.1026189E+03  0.7561462E-02  0.1274883E+00
          2   -1    0    0  501    0  0.00000000000E+00  0.00000000000E+00  0.83681498903E+03  0.83681498903E+03  0.00000000000E+00 0. -1.
         -2   -1    0    0    0  501 -0.00000000000E+00 -0.00000000000E+00 -0.18556954068E+02  0.18556954068E+02  0.00000000000E+00 0.  1.
         25    2    1    2    0    0  0.24924388391E+02  0.27860675712E+02  0.63559514799E+03  0.64886525664E+03  0.12508991460E+03 0.  0.
         23    2    1    2    0    0 -0.24924388391E+02 -0.27860675712E+02  0.18266288697E+03  0.20650668646E+03  0.88779721153E+02 0.  0.
          5    1    3    3  502    0 -0.47977573551E+02  0.27987090275E+02  0.22252562564E+03  0.22939104441E+03  0.41800000000E+01 0.  1.
         -5    1    3    3    0  502  0.72901961942E+02 -0.12641456274E+00  0.41306952234E+03  0.41947421223E+03  0.41800000000E+01 0.  1.
        -11    1    4    4    0    0 -0.14151514419E+02 -0.49962208796E+02  0.17206986398E+03  0.17973459812E+03  0.00000000000E+00 0. -1.
         11    1    4    4    0    0 -0.10772873972E+02  0.22101533084E+02  0.10593022986E+02  0.26772088343E+02  0.00000000000E+00 0.  1.
</event>
<event>
 8    1  0.7136454E-009  0.2765913E+03  0.7561462E-02  0.1097565E+00
         -2   -1    0    0    0  501 -0.00000000000E+00  0.00000000000E+00  0.17842199586E+03  0.17842199586E+03  0.00000000000E+00 0. -1.
          2   -1    0    0  501    0  0.00000000000E+00 -0.00000000000E+00 -0.45568919979E+03  0.45568919979E+03  0.00000000000E+00 0.  1.
         25    2    1    2    0    0  0.95059837390E+02 -0.24399121100E+03 -0.10760698767E+03  0.30950665966E+03  0.12508806838E+03 0.  0.
         23    2    1    2    0    0 -0.95059837390E+02  0.24399121100E+03 -0.16966021627E+03  0.32460453599E+03  0.89528945424E+02 0.  0.
          5    1    3    3  502    0  0.12068287445E+03 -0.22609111303E+03 -0.82722671274E+02  0.26933633308E+03  0.41800000000E+01 0. -1.
         -5    1    3    3    0  502 -0.25623037056E+02 -0.17900097971E+02 -0.24884316393E+02  0.40170326582E+02  0.41800000000E+01 0. -1.
        -11    1    4    4    0    0 -0.59218466228E+02  0.20001911954E+03 -0.16801860238E+03  0.26785205930E+03  0.00000000000E+00 0.  1.
         11    1    4    4    0    0 -0.35841371162E+02  0.43972091458E+02 -0.16416138877E+01  0.56752476687E+02  0.00000000000E+00 0. -1.
</event>
<event>
 8    1  0.7136454E-009  0.1936064E+03  0.7561462E-02  0.1155248E+00
          1   -1    0    0  501    0  0.00000000000E+00  0.00000000000E+00  0.98024040034E+03  0.98024040034E+03  0.00000000000E+00 0. -1.
         -1   -1    0    0    0  501 -0.00000000000E+00 -0.00000000000E+00 -0.50629582615E+02  0.50629582615E+02  0.00000000000E+00 0.  1.
         25    2    1    2    0    0  0.40521899470E+02  0.16542656799E+03  0.69671143593E+03  0.72805602942E+03  0.12510309061E+03 0.  0.
         23    2    1    2    0    0 -0.40521899470E+02 -0.16542656799E+03  0.23289938180E+03  0.30281395354E+03  0.91903181041E+02 0.  0.
          5    1    3    3  502    0  0.48289479204E+02  0.65839663188E+01  0.11472366318E+03  0.12471653342E+03  0.41800000000E+01 0.  1.
         -5    1    3    3    0  502 -0.77675797344E+01  0.15884260167E+03  0.58198777275E+03  0.60333949600E+03  0.41800000000E+01 0.  1.
        -11    1    4    4    0    0 -0.29390860909E+02 -0.16548951181E+03  0.23734147726E+03  0.29082912173E+03  0.00000000000E+00 0. -1.
         11    1    4    4    0    0 -0.11131038561E+02  0.62943819812E-01 -0.44420954586E+01  0.11984831807E+02  0.00000000000E+00 0.  1.
</event>
<event>
 8    1  0.7136454E-009  0.8395696E+02  0.7561462E-02  0.1318183E+00
          2   -1    0    0  501    0  0.00000000000E+00  0.00000000000E+00  0.28283533191E+03  0.28283533191E+03  0.00000000000E+00 0.  1.
         -2   -1    0    0    0  501 -0.00000000000E+00 -0.00000000000E+00 -0.55037415655E+02  0.55037415655E+02  0.00000000000E+00 0. -1.
         25    2    1    2    0    0 -0.26854778129E+02 -0.27573290814E+02  0.19212898431E+03  0.23246987723E+03  0.12508889532E+03 0.  0.
         23    2    1    2    0    0  0.26854778129E+02  0.27573290814E+02  0.35668931941E+02  0.10540287033E+03  0.91411306156E+02 0.  0.
          5    1    3    3  502    0 -0.39706027609E+02 -0.81972612000E+00  0.19794912125E+03  0.20193703867E+03  0.41800000000E+01 0.  1.
         -5    1    3    3    0  502  0.12851249480E+02 -0.26753564694E+02 -0.58201369417E+01  0.30532838568E+02  0.41800000000E+01 0.  1.
        -11    1    4    4    0    0  0.28571289340E+02 -0.29406898935E+02  0.22979785941E+02  0.47001647220E+02  0.00000000000E+00 0.  1.
         11    1    4    4    0    0 -0.17165112103E+01  0.56980189748E+02  0.12689146000E+02  0.58401223110E+02  0.00000000000E+00 0. -1.
</event>
<event>
 8    1  0.7136454E-009  0.1084369E+03  0.7561462E-02  0.1263492E+00
         -4   -1    0    0    0  501 -0.00000000000E+00  0.00000000000E+00  0.24613863496E+03  0.24613863496E+03  0.00000000000E+00 0.  1.
          4   -1    0    0  501    0  0.00000000000E+00 -0.00000000000E+00 -0.70758539179E+02  0.70758539179E+02  0.00000000000E+00 0. -1.
         25    2    1    2    0    0 -0.12049328905E+01  0.82765999019E+01  0.93750975998E+01  0.12572145055E+03  0.12509211288E+03 0.  0.
         23    2    1    2    0    0  0.12049328905E+01 -0.82765999019E+01  0.16600499818E+03  0.19117572358E+03  0.94448631003E+02 0.  0.
          5    1    3    3  502    0  0.47770733155E+01  0.66041063311E+02  0.12074815033E+02  0.67435272898E+02  0.41800000000E+01 0. -1.
         -5    1    3    3    0  502 -0.59820062060E+01 -0.57764463409E+02 -0.26997174334E+01  0.58286177653E+02  0.41800000000E+01 0. -1.
        -11    1    4    4    0    0  0.25083926126E+02  0.34891457585E+02  0.99396632532E+02  0.10828807746E+03  0.00000000000E+00 0.  1.
         11    1    4    4    0    0 -0.23878993236E+02 -0.43168057486E+02  0.66608365647E+02  0.82887646119E+02  0.00000000000E+00 0. -1.
</event>
<event>
 8    1  0.7136454E-009  0.1435221E+03  0.7561462E-02  0.1208667E+00
         -1   -1    0    0    0  501 -0.00000000000E+00  0.00000000000E+00  0.15944167876E+03  0.15944167876E+03  0.00000000000E+00 0.  1.
          1   -1    0    0  501    0  0.00000000000E+00 -0.00000000000E+00 -0.18685193355E+03  0.18685193355E+03  0.00000000000E+00 0. -1.
         25    2    1    2    0    0 -0.10299897182E+03  0.54114069698E+02 -0.81321860112E+02  0.18920181196E+03  0.12508780908E+03 0.  0.
         23    2    1    2    0    0  0.10299897182E+03 -0.54114069698E+02  0.53911605332E+02  0.15709180035E+03  0.90742778295E+02 0.  0.
          5    1    3    3  502    0 -0.10046490380E+03  0.78822397639E+02 -0.96215353296E+02  0.15994071988E+03  0.41800000000E+01 0. -1.
         -5    1    3    3    0  502 -0.25340680217E+01 -0.24708327941E+02  0.14893493184E+02  0.29261092079E+02  0.41800000000E+01 0. -1.
        -11    1    4    4    0    0  0.22391106788E+02 -0.48345397558E+02  0.54582380893E+02  0.76274998736E+02  0.00000000000E+00 0.  1.
         11    1    4    4    0    0  0.80607865034E+02 -0.57686721403E+01 -0.67077556153E+00  0.80816801616E+02  0.00000000000E+00 0. -1.
</event>
<event>
 8    1  0.7136454E-009  0.1134224E+03  0.7561462E-02  0.1254360E+00
          2   -1    0    0  501    0  0.00000000000E+00  0.00000000000E+00  0.35798116813E+02  0.35798116813E+02  0.00000000000E+00 0.  1.
         -2   -1    0    0    0  501 -0.00000000000E+00 -0.00000000000E+00 -0.48648497296E+03  0.48648497296E+03  0.00000000000E+00 0. -1.
         25    2    1    2    0    0 -0.66448353581E+02 -0.37652732525E+02 -0.22286372992E+03  0.26673747095E+03  0.12509006488E+03 0.  0.
         23    2    1    2    0    0  0.66448353581E+02  0.37652732525E+02 -0.22782312622E+03  0.25554561883E+03  0.86988933203E+02 0.  0.
          5    1    3    3  502    0 -0.91530600145E+02 -0.29499102441E+02 -0.21968199403E+03  0.23984515570E+03  0.41800000000E+01 0. -1.
         -5    1    3    3    0  502  0.25082246564E+02 -0.81536300836E+01 -0.31817358897E+01  0.26892315250E+02  0.41800000000E+01 0. -1.
        -11    1    4    4    0    0 -0.12129323196E+02  0.19932483411E+02 -0.11238708365E+03  0.11478362665E+03  0.00000000000E+00 0. -1.
         11    1    4    4    0    0  0.78577676777E+02  0.17720249114E+02 -0.11543604258E+03  0.14076199218E+03  0.00000000000E+00 0.  1.
</event>
<event>
 8    1  0.7136454E-009  0.1238748E+03  0.7561462E-02  0.1236838E+00
         -1   -1    0    0    0  501 -0.00000000000E+00  0.00000000000E+00  0.87978911039E+02  0.87978911039E+02  0.00000000000E+00 0.  1.
          1   -1    0    0  501    0  0.00000000000E+00 -0.00000000000E+00 -0.31289218283E+03  0.31289218283E+03  0.00000000000E+00 0. -1.
         25    2    1    2    0    0 -0.96915222474E+02  0.52332772655E+02 -0.20594132460E+03  0.26493414786E+03  0.12508794539E+03 0.  0.
         23    2    1    2    0    0  0.96915222474E+02 -0.52332772655E+02 -0.18971947188E+02  0.13593694601E+03  0.77379836319E+02 0.  0.
          5    1    3    3  502    0 -0.54232800074E+02  0.51627120760E+02 -0.20888670346E+03  0.22194072065E+03  0.41800000000E+01 0. -1.
         -5    1    3    3    0  502 -0.42682422400E+02  0.70565189526E+00  0.29453788563E+01  0.42993427209E+02  0.41800000000E+01 0. -1.
        -11    1    4    4    0    0  0.12431589468E+02 -0.43123327040E+02 -0.23830713926E+02  0.50814059845E+02  0.00000000000E+00 0.  1.
         11    1    4    4    0    0  0.84483633006E+02 -0.92094456151E+01  0.48587667373E+01  0.85122886163E+02  0.00000000000E+00 0. -1.
</event>
<event>
 8    1  0.7136454E-009  0.1134016E+03  0.7561462E-02  0.1254397E+00
          2   -1    0    0  501    0  0.00000000000E+00  0.00000000000E+00  0.80789400192E+03  0.80789400192E+03  0.00000000000E+00 0. -1.
         -2   -1    0    0    0  501 -0.00000000000E+00 -0.00000000000E+00 -0.26964435323E+02  0.26964435323E+02  0.00000000000E+00 0.  1.
         25    2    1    2    0    0 -0.66933003315E+02 -0.73792454705E+02  0.40045868303E+03  0.43120776296E+03  0.12509046616E+03 0.  0.
         23    2    1    2    0    0  0.66933003315E+02  0.73792454705E+02  0.38047088357E+03  0.40365067428E+03  0.90831824254E+02 0.  0.
          5    1    3    3  502    0 -0.65682287239E+02 -0.52615693805E+02  0.40082204227E+03  0.40958314914E+03  0.41800000000E+01 0. -1.
         -5    1    3    3    0  502 -0.12507160759E+01 -0.21176760901E+02 -0.36335924456E+00  0.21624613820E+02  0.41800000000E+01 0. -1.
        -11    1    4    4    0    0  0.80096215775E+02  0.71876315403E+02  0.37337390809E+03  0.38857391027E+03  0.00000000000E+00 0. -1.
         11    1    4    4    0    0 -0.13163212460E+02  0.19161393024E+01  0.70969754773E+01  0.15076764010E+02  0.00000000000E+00 0.  1.
</event>
<event>
 8    1  0.7136454E-009  0.1165945E+03  0.7561462E-02  0.1248823E+00
          2   -1    0    0  501    0  0.00000000000E+00  0.00000000000E+00  0.54434890601E+02  0.54434890601E+02  0.00000000000E+00 0. -1.
         -2   -1    0    0    0  501 -0.00000000000E+00 -0.00000000000E+00 -0.41705938513E+03  0.41705938513E+03  0.00000000000E+00 0.  1.
         25    2    1    2    0    0  0.50251879936E+02  0.65331080128E+02 -0.33048963331E+03  0.36285694934E+03  0.12509343105E+03 0.  0.
         23    2    1    2    0    0 -0.50251879936E+02 -0.65331080128E+02 -0.32134861216E+02  0.10863732639E+03  0.63055673110E+02 0.  0.
          5    1    3    3  502    0  0.27903482622E+01 -0.36754073591E+02 -0.77746654766E+02  0.86143268432E+02  0.41800000000E+01 0. -1.
         -5    1    3    3    0  502  0.47461531674E+02  0.10208515372E+03 -0.25274297855E+03  0.27671368091E+03  0.41800000000E+01 0. -1.
        -11    1    4    4    0    0 -0.29957707164E+02 -0.48799701299E+02  0.10878521778E+02  0.58285652621E+02  0.00000000000E+00 0. -1.
         11    1    4    4    0    0 -0.20294172772E+02 -0.16531378829E+02 -0.43013382994E+02  0.50351673766E+02  0.00000000000E+00 0.  1.
</event>
<event>
 8    1  0.7136454E-009  0.1794315E+03  0.7561462E-02  0.1168354E+00
         -4   -1    0    0    0  501 -0.00000000000E+00  0.00000000000E+00  0.89537011381E+02  0.89537011381E+02  0.00000000000E+00 0. -1.
          4   -1    0    0  501    0  0.00000000000E+00 -0.00000000000E+00 -0.44400501735E+03  0.44400501735E+03  0.00000000000E+00 0.  1.
         25    2    1    2    0    0  0.12514849236E+03  0.69056998627E+02 -0.30081422635E+03  0.35576308919E+03  0.12508861920E+03 0.  0.
         23    2    1    2    0    0 -0.12514849236E+03 -0.69056998627E+02 -0.53653779614E+02  0.17777893954E+03  0.91080234285E+02 0.  0.
          5    1    3    3  502    0  0.70846307946E+01 -0.32813682212E+02 -0.48902479247E+02  0.59463052481E+02  0.41800000000E+01 0. -1.
         -5    1    3    3    0  502  0.11806386157E+03  0.10187068084E+03 -0.25191174710E+03  0.29630003671E+03  0.41800000000E+01 0. -1.
        -11    1    4    4    0    0 -0.27766217905E+02  0.22224060329E+02 -0.60904723072E+01  0.36082759971E+02  0.00000000000E+00 0. -1.
         11    1    4    4    0    0 -0.97382274457E+02 -0.91281058956E+02 -0.47563307306E+02  0.14169617957E+03  0.00000000000E+00 0.  1.
</event>
<event>
 8    1  0.7136454E-009  0.1856378E+03  0.7561462E-02  0.1162456E+00
          1   -1    0    0  501    0  0.00000000000E+00  0.00000000000E+00  0.88296857901E+03  0.88296857901E+03  0.00000000000E+00 0. -1.
         -1   -1    0    0    0  501 -0.00000000000E+00 -0.00000000000E+00 -0.45299090830E+02  0.45299090830E+02  0.00000000000E+00 0.  1.
         25    2    1    2    0    0 -0.15030853989E+03 -0.56514821587E+02  0.33136179404E+03  0.38888924774E+03  0.12509047220E+03 0.  0.
         23    2    1    2    0    0  0.15030853989E+03  0.56514821587E+02  0.50630769413E+03  0.53937842210E+03  0.93781761866E+02 0.  0.
          5    1    3    3  502    0 -0.10784270825E+03 -0.86594987307E+02  0.29323396088E+03  0.32424122156E+03  0.41800000000E+01 0.  1.
         -5    1    3    3    0  502 -0.42465831645E+02  0.30080165720E+02  0.38127833167E+02  0.64648026181E+02  0.41800000000E+01 0.  1.
        -11    1    4    4    0    0  0.50728022476E+02 -0.20598555163E+02  0.21782954956E+03  0.22460486504E+03  0.00000000000E+00 0. -1.
         11    1    4    4    0    0  0.99580517418E+02  0.77113376750E+02  0.28847814457E+03  0.31477355705E+03  0.00000000000E+00 0.  1.
</event>
<event>
 8    1  0.7136454E-009  0.1295349E+03  0.7561462E-02  0.1228148E+00
          2   -1    0    0  501    0  0.00000000000E+00  0.00000000000E+00  0.29777503500E+03  0.29777503500E+03  0.00000000000E+00 0. -1.
         -2   -1    0    0    0  501 -0.00000000000E+00 -0.00000000000E+00 -0.81533010676E+02  0.81533010676E+02  0.00000000000E+00 0.  1.
         25    2    1    2    0    0  0.10684884051E+03 -0.27387090413E+02  0.13464062113E+03  0.21434075693E+03  0.12508851180E+03 0.  0.
         23    2    1    2    0    0 -0.10684884051E+03  0.27387090413E+02  0.81601403196E+02  0.16496728875E+03  0.91589791527E+02 0.  0.
          5    1    3    3  502    0  0.32517241565E+02 -0.51515590886E+02  0.12011136344E+03  0.13474212085E+03  0.41800000000E+01 0.  1.
         -5    1    3    3    0  502  0.74331598950E+02  0.24128500473E+02  0.14529257690E+02  0.79598636084E+02  0.41800000000E+01 0.  1.
        -11    1    4    4    0    0 -0.69302411337E+02 -0.59198019059E+01  0.90348091974E+02  0.11402037535E+03  0.00000000000E+00 0. -1.
         11    1    4    4    0    0 -0.37546429177E+02  0.33306892319E+02 -0.87466887780E+01  0.50946913395E+02  0.00000000000E+00 0.  1.
</event>
<event>
 8    1  0.7136454E-009  0.1575966E+03  0.7561462E-02  0.1191437E+00
          2   -1    0    0  501    0  0.00000000000E+00  0.00000000000E+00  0.37105849068E+02  0.37105849068E+02  0.00000000000E+00 0.  1.
         -2   -1    0    0    0  501 -0.00000000000E+00 -0.00000000000E+00 -0.71275461497E+03  0.71275461497E+03  0.00000000000E+00 0. -1.
         25    2    1    2    0    0  0.82296769710E+02 -0.81352328030E+02 -0.28235586168E+03  0.32979456161E+03  0.12509460685E+03 0.  0.
         23    2    1    2    0    0 -0.82296769710E+02  0.81352328030E+02 -0.39329290422E+03  0.42006590242E+03  0.91570160476E+02 0.  0.
          5    1    3    3  502    0  0.23669239354E+01  0.31047849478E+02 -0.67381469382E+02  0.74345854640E+02  0.41800000000E+01 0.  1.
         -5    1    3    3    0  502  0.79929845775E+02 -0.11240017751E+03 -0.21497439230E+03  0.25544870697E+03  0.41800000000E+01 0.  1.
        -11    1    4    4    0    0 -0.81851197218E+02  0.19768288684E+02 -0.19431308568E+03  0.21177341427E+03  0.00000000000E+00 0.  1.
         11    1    4    4    0    0 -0.44557249145E+00  0.61584039346E+02 -0.19897981854E+03  0.20829248816E+03  0.00000000000E+00 0. -1.
</event>
<event>
 8    1  0.7136454E-009  0.1064982E+03  0.7561462E-02  0.1267196E+00
         -2   -1    0    0    0  501 -0.00000000000E+00  0.00000000000E+00  0.38129894251E+02  0.38129894251E+02  0.00000000000E+00 0. -1.
          2   -1    0    0  501    0  0.00000000000E+00 -0.00000000000E+00 -0.42345370135E+03  0.42345370135E+03  0.00000000000E+00 0.  1.
         25    2    1    2    0    0  0.28567516444E+02  0.13654983337E+02 -0.32037788909E+03  0.34538802009E+03  0.12509328934E+03 0.  0.
         23    2    1    2    0    0 -0.28567516444E+02 -0.13654983337E+02 -0.64945918014E+02  0.11619557552E+03  0.90999329325E+02 0.  0.
          5    1    3    3  502    0  0.11619210486E+02 -0.49852004181E+02 -0.72093793465E+02  0.88516754512E+02  0.41800000000E+01 0.  1.
         -5    1    3    3    0  502  0.16948305958E+02  0.63506987519E+02 -0.24828409562E+03  0.25687126558E+03  0.41800000000E+01 0.  1.
        -11    1    4    4    0    0  0.56332219008E+01 -0.47397615423E+02 -0.38706289433E+02  0.61452778444E+02  0.00000000000E+00 0.  1.
         11    1    4    4    0    0 -0.34200738344E+02  0.33742632086E+02 -0.26239628580E+02  0.54742797074E+02  0.00000000000E+00 0. -1.
</event>
<event>
 8    1  0.7136454E-009  0.3086769E+03  0.7561462E-02  0.1080982E+00
         -2   -1    0    0    0  501 -0.00000000000E+00  0.00000000000E+00  0.95520184780E+02  0.95520184780E+02  0.00000000000E+00 0.  1.
          2   -1    0    0  501    0  0.00000000000E+00 -0.00000000000E+00 -0.12770341697E+04  0.12770341697E+04  0.00000000000E+00 0. -1.
         25    2    1    2    0    0  0.29176803471E+03 -0.57574212452E+02 -0.88813627661E+03  0.94492246225E+03  0.12509611430E+03 0.  0.
         23    2    1    2    0    0 -0.29176803471E+03  0.57574212452E+02 -0.29337770833E+03  0.42763189225E+03  0.91406671003E+02 0.  0.
          5    1    3    3  502    0 -0.40572674382E+01  0.14132742910E+02 -0.77889960589E+02  0.79375778433E+02  0.41800000000E+01 0.  1.
         -5    1    3    3    0  502  0.29582530215E+03 -0.71706955362E+02 -0.81024631602E+03  0.86554668382E+03  0.41800000000E+01 0.  1.
        -11    1    4    4    0    0 -0.18628604472E+03  0.30741574539E+02 -0.24291626890E+03  0.30766190626E+03  0.00000000000E+00 0. -1.
         11    1    4    4    0    0 -0.10548198999E+03  0.26832637912E+02 -0.50461439424E+02  0.11996998599E+03  0.00000000000E+00 0.  1.
</event>
<event>
 8    1  0.7136454E-009  0.6687089E+02  0.7561462E-02  0.1371069E+00
         -3   -1    0    0    0  501 -0.00000000000E+00  0.00000000000E+00  0.42318718302E+02  0.42318718302E+02  0.00000000000E+00 0.  1.
          3   -1    0    0  501    0  0.00000000000E+00 -0.00000000000E+00 -0.33526161611E+03  0.33526161611E+03  0.00000000000E+00 0. -1.
         25    2    1    2    0    0 -0.43838264177E+02  0.14536877608E+02 -0.18623028769E+03  0.22904614369E+03  0.12508917487E+03 0.  0.
         23    2    1    2    0    0  0.43838264177E+02 -0.14536877608E+02 -0.10671261011E+03  0.14853419072E+03  0.92421374358E+02 0.  0.
          5    1    3    3  502    0 -0.36130521152E+02  0.38858320118E+02 -0.19469731554E+03  0.20184127595E+03  0.41800000000E+01 0. -1.
         -5    1    3    3    0  502 -0.77077430244E+01 -0.24321442510E+02  0.84670278420E+01  0.27204867741E+02  0.41800000000E+01 0. -1.
        -11    1    4    4    0    0  0.78296507675E+01 -0.16850421105E+02 -0.11068463672E+03  0.11223336816E+03  0.00000000000E+00 0. -1.
         11    1    4    4    0    0  0.36008613409E+02  0.23135434966E+01  0.39720266057E+01  0.36300822560E+02  0.00000000000E+00 0.  1.
</event>
<event>
 8    1  0.7136454E-009  0.2239295E+03  0.7561462E-02  0.1130987E+00
          2   -1    0    0  501    0  0.00000000000E+00  0.00000000000E+00  0.37753823462E+02  0.37753823462E+02  0.00000000000E+00 0. -1.
         -2   -1    0    0    0  501 -0.00000000000E+00 -0.00000000000E+00 -0.15597449188E+04  0.15597449188E+04  0.00000000000E+00 0.  1.
         25    2    1    2    0    0 -0.25101101304E+02  0.19639389415E+03 -0.49310760976E+03  0.54589677511E+03  0.12509015682E+03 0.  0.
         23    2    1    2    0    0  0.25101101304E+02 -0.19639389415E+03 -0.10288834856E+04  0.10516019672E+04  0.89804473559E+02 0.  0.
          5    1    3    3  502    0  0.12036122682E+01 -0.16128499921E+02 -0.17018696488E+02  0.23847130275E+02  0.41800000000E+01 0.  1.
         -5    1    3    3    0  502 -0.26304713572E+02  0.21252239407E+03 -0.47608891327E+03  0.52204964484E+03  0.41800000000E+01 0.  1.
        -11    1    4    4    0    0 -0.26999306983E+02 -0.12894481190E+03 -0.59173363567E+03  0.60622143040E+03  0.00000000000E+00 0.  1.
         11    1    4    4    0    0  0.52100408287E+02 -0.67449082248E+02 -0.43714984995E+03  0.44538053679E+03  0.00000000000E+00 0. -1.
</event>
<event>
 8    1  0.7136454E-009  0.1534330E+03  0.7561462E-02  0.1196317E+00
          1   -1    0    0  501    0  0.00000000000E+00  0.00000000000E+00  0.59475224799E+03  0.59475224799E+03  0.00000000000E+00 0. -1.
         -1   -1    0    0    0  501 -0.00000000000E+00 -0.00000000000E+00 -0.76079662779E+02  0.76079662779E+02  0.00000000000E+00 0.  1.
         25    2    1    2    0    0 -0.13793119076E+03 -0.37795057752E+02  0.44876340118E+03  0.48734233534E+03  0.12514184673E+03 0.  0.
         23    2    1    2    0    0  0.13793119076E+03  0.37795057752E+02  0.69909184037E+02  0.18348957543E+03  0.91255961469E+02 0.  0.
          5    1    3    3  502    0  0.85849773834E-01  0.46584550438E+01 -0.69070422156E+01  0.93213843256E+01  0.41800000000E+01 0.  1.
         -5    1    3    3    0  502 -0.13801704054E+03 -0.42453512795E+02  0.45567044339E+03  0.47802095101E+03  0.41800000000E+01 0.  1.
        -11    1    4    4    0    0  0.14478081804E+02  0.28961202639E+02  0.47842426465E+02  0.57769056432E+02  0.00000000000E+00 0. -1.
         11    1    4    4    0    0  0.12345310896E+03  0.88338551124E+01  0.22066757573E+02  0.12572051900E+03  0.00000000000E+00 0.  1.
</event>
<event>
 8    1  0.7136454E-009  0.9569843E+02  0.7561462E-02  0.1289611E+00
          1   -1    0    0  501    0  0.00000000000E+00  0.00000000000E+00  0.10004262725E+03  0.10004262725E+03  0.00000000000E+00 0. -1.
         -1   -1    0    0    0  501 -0.00000000000E+00 -0.00000000000E+00 -0.12672931810E+03  0.12672931810E+03  0.00000000000E+00 0.  1.
         25    2    1    2    0    0  0.25389806951E+02 -0.13642011464E+01  0.18306086333E+01  0.12765976396E+03  0.12508861205E+03 0.  0.
         23    2    1    2    0    0 -0.25389806951E+02  0.13642011464E+01 -0.28517299482E+02  0.99112181396E+02  0.91452090132E+02 0.  0.
          5    1    3    3  502    0  0.48978585267E+02  0.50510078893E+02 -0.27816970360E+00  0.70482052062E+02  0.41800000000E+01 0.  1.
         -5    1    3    3    0  502 -0.23588778316E+02 -0.51874280039E+02  0.21087783369E+01  0.57177711900E+02  0.41800000000E+01 0.  1.
        -11    1    4    4    0    0  0.15309594472E+02 -0.13535935349E+02  0.23672217353E+02  0.31272657435E+02  0.00000000000E+00 0. -1.
         11    1    4    4    0    0 -0.40699401423E+02  0.14900136496E+02 -0.52189516835E+02  0.67839523961E+02  0.00000000000E+00 0.  1.
</event>
<event>
 8    1  0.7136454E-009  0.7913982E+02  0.7561462E-02  0.1331510E+00
          2   -1    0    0  501    0  0.00000000000E+00  0.00000000000E+00  0.14575333236E+03  0.14575333236E+03  0.00000000000E+00 0. -1.
         -2   -1    0    0    0  501 -0.00000000000E+00 -0.00000000000E+00 -0.12281266859E+03  0.12281266859E+03  0.00000000000E+00 0.  1.
         25    2    1    2    0    0 -0.26165395749E+02 -0.40881660285E+02 -0.54014098596E+02  0.14464111648E+03  0.12509033395E+03 0.  0.
         23    2    1    2    0    0  0.26165395749E+02  0.40881660285E+02  0.76954762370E+02  0.12392488446E+03  0.84139190961E+02 0.  0.
          5    1    3    3  502    0  0.71805515368E+00  0.26562091045E+02 -0.65691330250E+02  0.70985093885E+02  0.41800000000E+01 0. -1.
         -5    1    3    3    0  502 -0.26883450903E+02 -0.67443751330E+02  0.11677231654E+02  0.73656022598E+02  0.41800000000E+01 0. -1.
        -11    1    4    4    0    0  0.20069866736E+02  0.30061987360E+01 -0.14372294022E+02  0.24867641969E+02  0.00000000000E+00 0.  1.
         11    1    4    4    0    0  0.60955290136E+01  0.37875461549E+02  0.91327056392E+02  0.99057242495E+02  0.00000000000E+00 0. -1.
</event>
<event>
 8    1  0.7136454E-009  0.1063791E+03  0.7561462E-02  0.1267426E+00
         -1   -1    0    0    0  501 -0.00000000000E+00  0.00000000000E+00  0.13267293718E+02  0.13267293718E+02  0.00000000000E+00 0.  1.
          1   -1    0    0  501    0  0.00000000000E+00 -0.00000000000E+00 -0.99038927491E+03  0.99038927491E+03  0.00000000000E+00 0. -1.
         25    2    1    2    0    0  0.55927951043E+01 -0.34885133178E+02 -0.53350380704E+03  0.54910858275E+03  0.12508265928E+03 0.  0.
         23    2    1    2    0    0 -0.55927951043E+01  0.34885133178E+02 -0.44361817416E+03  0.45454798588E+03  0.92566382401E+02 0.  0.
          5    1    3    3  502    0 -0.47542264686E+02  0.59374378400E+01 -0.35775497550E+03  0.36097314996E+03  0.41800000000E+01 0.  1.
         -5    1    3    3    0  502  0.53135059790E+02 -0.40822571018E+02 -0.17574883154E+03  0.18813543279E+03  0.41800000000E+01 0.  1.
        -11    1    4    4    0    0 -0.31877661873E+02 -0.19327747985E+02 -0.13222129263E+03  0.13737618932E+03  0.00000000000E+00 0.  1.
         11    1    4    4    0    0  0.26284866768E+02  0.54212881163E+02 -0.31139688153E+03  0.31717179656E+03  0.00000000000E+00 0. -1.
</event>
<event>
 8    1  0.7136454E-009  0.8756270E+02  0.7561462E-02  0.1308864E+00
          2   -1    0    0  501    0  0.00000000000E+00  0.00000000000E+00  0.58521518392E+03  0.58521518392E+03  0.00000000000E+00 0. -1.
         -2   -1    0    0    0  501 -0.00000000000E+00 -0.00000000000E+00 -0.22350619220E+02  0.22350619220E+02  0.00000000000E+00 0.  1.
         25    2    1    2    0    0  0.80900023674E+01 -0.32504009642E+02  0.37022192378E+03  0.39221972503E+03  0.12510028407E+03 0.  0.
         23    2    1    2    0    0 -0.80900023674E+01  0.32504009642E+02  0.19264264092E+03  0.21534607811E+03  0.90226312543E+02 0.  0.
          5    1    3    3  502    0  0.19496781323E+02  0.37024486127E+02  0.24405769524E+03  0.24765412990E+03  0.41800000000E+01 0.  1.
         -5    1    3    3    0  502 -0.11406778956E+02 -0.69528495769E+02  0.12616422855E+03  0.14456559513E+03  0.41800000000E+01 0.  1.
        -11    1    4    4    0    0 -0.30605192169E+02  0.21702149593E+02  0.18566411286E+03  0.18941706335E+03  0.00000000000E+00 0. -1.
         11    1    4    4    0    0  0.22515189801E+02  0.10801860049E+02  0.69785280578E+01  0.25929014755E+02  0.00000000000E+00 0.  1.
</event>
<event>
 8    1  0.7136454E-009  0.1308652E+03  0.7561462E-02  0.1226178E+00
         -1   -1    0    0    0  501 -0.00000000000E+00  0.00000000000E+00  0.11398555510E+03  0.11398555510E+03  0.00000000000E+00 0.  1.
          1   -1    0    0  501    0  0.00000000000E+00 -0.00000000000E+00 -0.18874135722E+03  0.18874135722E+03  0.00000000000E+00 0. -1.
         25    2    1    2    0    0  0.82734921460E+02  0.44126578426E+02 -0.87578631816E+01  0.15657507052E+03  0.12508729107E+03 0.  0.
         23    2    1    2    0    0 -0.82734921460E+02 -0.44126578426E+02 -0.65997938935E+02  0.14615184181E+03  0.90622352471E+02 0.  0.
          5    1    3    3  502    0  0.48748535158E+02 -0.26727082602E+02  0.35689175767E+02  0.66196270977E+02  0.41800000000E+01 0.  1.
         -5    1    3    3    0  502  0.33986386302E+02  0.70853661028E+02 -0.44447038949E+02  0.90378799540E+02  0.41800000000E+01 0.  1.
        -11    1    4    4    0    0 -0.50705273055E+02 -0.69773832573E+02 -0.59065261666E+02  0.10453763707E+03  0.00000000000E+00 0. -1.
         11    1    4    4    0    0 -0.32029648405E+02  0.25647254147E+02 -0.69326772697E+01  0.41614204742E+02  0.00000000000E+00 0.  1.
</event>
<event>
 8    1  0.7136454E-009  0.1095937E+03  0.7561462E-02  0.1261324E+00
          1   -1    0    0  501    0  0.00000000000E+00  0.00000000000E+00  0.42458243749E+03  0.42458243749E+03  0.00000000000E+00 0. -1.
         -1   -1    0    0    0  501 -0.00000000000E+00 -0.00000000000E+00 -0.37017544614E+02  0.37017544614E+02  0.00000000000E+00 0.  1.
         25    2    1    2    0    0 -0.52477383012E+02 -0.44508342433E+01  0.15764018378E+03  0.20802104653E+03  0.12509453468E+03 0.  0.
         23    2    1    2    0    0  0.52477383012E+02  0.44508342433E+01  0.22992470909E+03  0.25357893557E+03  0.93076415152E+02 0.  0.
          5    1    3    3  502    0 -0.63083129661E+02 -0.47618102427E+02  0.13833917825E+03  0.15938056834E+03  0.41800000000E+01 0. -1.
         -5    1    3    3    0  502  0.10605746650E+02  0.43167268183E+02  0.19301005531E+02  0.48640478194E+02  0.41800000000E+01 0. -1.
        -11    1    4    4    0    0  0.62989305232E+02 -0.22165172463E+02  0.20509573091E+03  0.21569238809E+03  0.00000000000E+00 0. -1.
         11    1    4    4    0    0 -0.10511922220E+02  0.26616006707E+02  0.24828978187E+02  0.37886547475E+02  0.00000000000E+00 0.  1.
</event>
<event>
 8    1  0.7136454E-009  0.2676197E+03  0.7561462E-02  0.1102650E+00
          1   -1    0    0  501    0  0.00000000000E+00  0.00000000000E+00  0.19073856681E+03  0.19073856681E+03  0.00000000000E+00 0. -1.
         -1   -1    0    0    0  501 -0.00000000000E+00 -0.00000000000E+00 -0.61278880053E+03  0.61278880053E+03  0.00000000000E+00 0.  1.
         25    2    1    2    0    0  0.74009114836E+02 -0.24688944726E+03  0.16062541925E+02  0.28694235045E+03  0.12508460730E+03 0.  0.
         23    2    1    2    0    0 -0.74009114836E+02  0.24688944726E+03 -0.43811277565E+03  0.51658501689E+03  0.92116921594E+02 0.  0.
          5    1    3    3  502    0  0.79403929838E+02 -0.24487411611E+03  0.41272419390E+02  0.26074739082E+03  0.41800000000E+01 0.  1.
         -5    1    3    3    0  502 -0.53948150020E+01 -0.20153311481E+01 -0.25209877465E+02  0.26194959637E+02  0.41800000000E+01 0.  1.
        -11    1    4    4    0    0 -0.42131746946E+01  0.15604710513E+03 -0.21394730243E+03  0.26484315751E+03  0.00000000000E+00 0. -1.
         11    1    4    4    0    0 -0.69795940141E+02  0.90842342127E+02 -0.22416547322E+03  0.25174185938E+03  0.00000000000E+00 0.  1.
</event>
<event>
 8    1  0.7136454E-009  0.1707551E+03  0.7561462E-02  0.1177063E+00
          2   -1    0    0  501    0  0.00000000000E+00  0.00000000000E+00  0.12067226875E+03  0.12067226875E+03  0.00000000000E+00 0. -1.
         -2   -1    0    0    0  501 -0.00000000000E+00 -0.00000000000E+00 -0.33278750004E+03  0.33278750004E+03  0.00000000000E+00 0.  1.
         25    2    1    2    0    0  0.13960233902E+03  0.80806914567E+02 -0.56654633148E+02  0.21184157510E+03  0.12509410451E+03 0.  0.
         23    2    1    2    0    0 -0.13960233902E+03 -0.80806914567E+02 -0.15546059814E+03  0.24161819369E+03  0.90513995847E+02 0.  0.
          5    1    3    3  502    0  0.92132834692E+02  0.72105773063E+01  0.20838350343E+02  0.94827005112E+02  0.41800000000E+01 0.  1.
         -5    1    3    3    0  502  0.47469504325E+02  0.73596337260E+02 -0.77492983491E+02  0.11701456999E+03  0.41800000000E+01 0.  1.
        -11    1    4    4    0    0 -0.12165516610E+03 -0.71423680383E+02 -0.77270495080E+02  0.16084791254E+03  0.00000000000E+00 0. -1.
         11    1    4    4    0    0 -0.17947172916E+02 -0.93832341837E+01 -0.78190103062E+02  0.80770281145E+02  0.00000000000E+00 0.  1.
</event>
<event>
 8    1  0.7136454E-009  0.1029667E+03  0.7561462E-02  0.1274178E+00
          2   -1    0    0  501    0  0.00000000000E+00  0.00000000000E+00  0.61740722593E+02  0.61740722593E+02  0.00000000000E+00 0.  1.
         -2   -1    0    0    0  501 -0.00000000000E+00 -0.00000000000E+00 -0.29766303775E+03  0.29766303775E+03  0.00000000000E+00 0. -1.
         25    2    1    2    0    0  0.61830775776E+02  0.55195975503E+02 -0.12168369624E+03  0.19319141746E+03  0.12508541604E+03 0.  0.
         23    2    1    2    0    0 -0.61830775776E+02 -0.55195975503E+02 -0.11423861892E+03  0.16621234288E+03  0.87786333387E+02 0.  0.
          5    1    3    3  502    0  0.21382257819E+02  0.55085321324E+02 -0.13737675262E+03  0.14960427178E+03  0.41800000000E+01 0.  1.
         -5    1    3    3    0  502  0.40448517957E+02  0.11065417976E+00  0.15693056386E+02  0.43587145674E+02  0.41800000000E+01 0.  1.
        -11    1    4    4    0    0  0.72057554312E+01 -0.32607105600E+02 -0.78396880613E+02  0.85212775666E+02  0.00000000000E+00 0. -1.
         11    1    4    4    0    0 -0.69036531207E+02 -0.22588869903E+02 -0.35841738307E+02  0.80999567218E+02  0.00000000000E+00 0.  1.
</event>
<event>
 8    1  0.7136454E-009  0.1039633E+03  0.7561462E-02  0.1272176E+00
         -2   -1    0    0    0  501 -0.00000000000E+00  0.00000000000E+00  0.30616744794E+02  0.30616744794E+02  0.00000000000E+00 0. -1.
          2   -1    0    0  501    0  0.00000000000E+00 -0.00000000000E+00 -0.84328262168E+03  0.84328262168E+03  0.00000000000E+00 0.  1.
         25    2    1    2    0    0  0.65976117794E+02 -0.17282406783E+01 -0.70403169432E+03  0.71809805420E+03  0.12509338070E+03 0.  0.
         23    2    1    2    0    0 -0.65976117794E+02  0.17282406783E+01 -0.10863418257E+03  0.15580131228E+03  0.90093442333E+02 0.  0.
          5    1    3    3  502    0 -0.23845626767E+02 -0.86727603535E+01 -0.37366782680E+02  0.45360550436E+02  0.41800000000E+01 0. -1.
         -5    1    3    3    0  502  0.89821744561E+02  0.69445196752E+01 -0.66666491164E+03  0.67273750376E+03  0.41800000000E+01 0. -1.
        -11    1    4    4    0    0 -0.68423252638E+02  0.21793486848E+02 -0.35848560177E+02  0.80260929707E+02  0.00000000000E+00 0. -1.
         11    1    4    4    0    0  0.24471348445E+01 -0.20065246170E+02 -0.72785622388E+02  0.75540382573E+02  0.00000000000E+00 0.  1.
</event>
<event>
 8    1  0.7136454E-009  0.1540865E+03  0.7561462E-02  0.1195540E+00
         -2   -1    0    0    0  501 -0.00000000000E+00  0.00000000000E+00  0.72368908214E+02  0.72368908214E+02  0.00000000000E+00 0.  1.
          2   -1    0    0  501    0  0.00000000000E+00 -0.00000000000E+00 -0.40611908650E+03  0.40611908650E+03  0.00000000000E+00 0. -1.
         25    2    1    2    0    0  0.10795128041E+03  0.61110401138E+02 -0.24271624339E+03  0.29991400908E+03  0.12509707418E+03 0.  0.
         23    2    1    2    0    0 -0.10795128041E+03 -0.61110401138E+02 -0.91033934902E+02  0.17857398564E+03  0.90628532885E+02 0.  0.
          5    1    3    3  502    0  0.99779653358E+02  0.14062210299E+01 -0.20675315845E+03  0.22961336549E+03  0.41800000000E+01 0.  1.
         -5    1    3    3    0  502  0.81716270529E+01  0.59704180108E+02 -0.35963084934E+02  0.70300643588E+02  0.41800000000E+01 0.  1.
        -11    1    4    4    0    0 -0.10889102518E+03 -0.24943780799E+02 -0.46010245168E+02  0.12081552146E+03  0.00000000000E+00 0. -1.
         11    1    4    4    0    0  0.93974476723E+00 -0.36166620339E+02 -0.45023689734E+02  0.57758464178E+02  0.00000000000E+00 0.  1.
</event>
<event>
 8    1  0.7136454E-009  0.1449642E+03  0.7561462E-02  0.1206801E+00
          1   -1    0    0  501    0  0.00000000000E+00  0.00000000000E+00  0.16223885724E+03  0.16223885724E+03  0.00000000000E+00 0. -1.
         -1   -1    0    0    0  501 -0.00000000000E+00 -0.00000000000E+00 -0.19247238835E+03  0.19247238835E+03  0.00000000000E+00 0.  1.
         25    2    1    2    0    0  0.37986194631E+02 -0.12514573060E+03 -0.65206735695E+02  0.19236317690E+03  0.12508904259E+03 0.  0.
         23    2    1    2    0    0 -0.37986194631E+02  0.12514573060E+03  0.34973204593E+02  0.16234806869E+03  0.89606726859E+02 0.  0.
          5    1    3    3  502    0  0.38479021258E+02 -0.13456355030E+03 -0.89356518396E+02  0.16610251030E+03  0.41800000000E+01 0. -1.
         -5    1    3    3    0  502 -0.49282662750E+00  0.94178197013E+01  0.24149782701E+02  0.26260666604E+02  0.41800000000E+01 0. -1.
        -11    1    4    4    0    0  0.92307565154E+01  0.49998422441E+02  0.51167215804E+02  0.72132746277E+02  0.00000000000E+00 0. -1.
         11    1    4    4    0    0 -0.47216951146E+02  0.75147308160E+02 -0.16194011211E+02  0.90215322414E+02  0.00000000000E+00 0.  1.
</event>
<event>
 8    1  0.7136454E-009  0.1423284E+03  0.7561462E-02  0.1210230E+00
         -2   -1    0    0    0  501 -0.00000000000E+00  0.00000000000E+00  0.21670529079E+03  0.21670529079E+03  0.00000000000E+00 0.  1.
          2   -1    0    0  501    0  0.00000000000E+00 -0.00000000000E+00 -0.13135202776E+03  0.13135202776E+03  0.00000000000E+00 0. -1.
         25    2    1    2    0    0  0.34614072260E+02 -0.10913400377E+03 -0.18729981397E+02  0.17059705680E+03  0.12507669171E+03 0.  0.
         23    2    1    2    0    0 -0.34614072260E+02  0.10913400377E+03  0.10408324442E+03  0.17746026174E+03  0.86893371162E+02 0.  0.
          5    1    3    3  502    0 -0.83230371274E+01 -0.10388179292E+03  0.26768019462E+02  0.10767868458E+03  0.41800000000E+01 0.  1.
         -5    1    3    3    0  502  0.42937109387E+02 -0.52522108550E+01 -0.45498000859E+02  0.62918372226E+02  0.41800000000E+01 0.  1.
        -11    1    4    4    0    0 -0.41708982827E+02  0.11822569563E+03  0.10780235666E+03  0.16534298430E+03  0.00000000000E+00 0.  1.
         11    1    4    4    0    0  0.70949105669E+01 -0.90916918577E+01 -0.37191122425E+01  0.12117277444E+02  0.00000000000E+00 0. -1.
</event>
<event>
 8    1  0.7136454E-009  0.9270316E+02  0.7561462E-02  0.1296435E+00
         -1   -1    0    0    0  501 -0.00000000000E+00  0.00000000000E+00  0.33141316660E+03  0.33141316660E+03  0.00000000000E+00 0.  1.
          1   -1    0    0  501    0  0.00000000000E+00 -0.00000000000E+00 -0.50625206911E+02  0.50625206911E+02  0.00000000000E+00 0. -1.
         25    2    1    2    0    0  0.67651203515E+02  0.11753645242E+02  0.10968264739E+03  0.17998061487E+03  0.12509158676E+03 0.  0.
         23    2    1    2    0    0 -0.67651203515E+02 -0.11753645242E+02  0.17110531230E+03  0.20205775863E+03  0.82676940037E+02 0.  0.
          5    1    3    3  502    0 -0.18934028440E+02  0.20751454672E+02 -0.11561414906E+02  0.30663643270E+02  0.41800000000E+01 0. -1.
         -5    1    3    3    0  502  0.86585231955E+02 -0.89978094301E+01  0.12124406229E+03  0.14931697160E+03  0.41800000000E+01 0. -1.
        -11    1    4    4    0    0 -0.10860464759E+02  0.28249504648E+01 -0.78810163135E+01  0.13712784474E+02  0.00000000000E+00 0. -1.
         11    1    4    4    0    0 -0.56790738756E+02 -0.14578595707E+02  0.17898632861E+03  0.18834497416E+03  0.00000000000E+00 0.  1.
</event>
<event>
 8    1  0.7136454E-009  0.1549917E+03  0.7561462E-02  0.1194470E+00
          2   -1    0    0  501    0  0.00000000000E+00  0.00000000000E+00  0.70693842559E+02  0.70693842559E+02  0.00000000000E+00 0. -1.
         -2   -1    0    0    0  501 -0.00000000000E+00 -0.00000000000E+00 -0.59431834579E+03  0.59431834579E+03  0.00000000000E+00 0.  1.
         25    2    1    2    0    0 -0.12197080589E+03  0.39026878961E+02 -0.83454377792E+02  0.19751081799E+03  0.12508363314E+03 0.  0.
         23    2    1    2    0    0  0.12197080589E+03 -0.39026878961E+02 -0.44017012544E+03  0.46750137037E+03  0.91694150265E+02 0.  0.
          5    1    3    3  502    0 -0.13281379394E+03  0.22659471071E+02 -0.10288382356E+03  0.16957449407E+03  0.41800000000E+01 0.  1.
         -5    1    3    3    0  502  0.10842988053E+02  0.16367407890E+02  0.19429445768E+02  0.27936323914E+02  0.41800000000E+01 0.  1.
        -11    1    4    4    0    0  0.73618343894E+02  0.22388332384E+02 -0.25899452944E+03  0.27018339006E+03  0.00000000000E+00 0.  1.
         11    1    4    4    0    0  0.48352461991E+02 -0.61415211346E+02 -0.18117559600E+03  0.19731798031E+03  0.00000000000E+00 0. -1.
</event>
<event>
 8    1  0.7136454E-009  0.9390470E+02  0.7561462E-02  0.1293662E+00
          2   -1    0    0  501    0  0.00000000000E+00  0.00000000000E+00  0.14668742111E+04  0.14668742111E+04  0.00000000000E+00 0. -1.
         -2   -1    0    0    0  501 -0.00000000000E+00 -0.00000000000E+00 -0.92145639050E+01  0.92145639050E+01  0.00000000000E+00 0.  1.
         25    2    1    2    0    0  0.26776890047E+02 -0.25315589017E+02  0.99309667261E+03  0.10016221240E+04  0.12509195528E+03 0.  0.
         23    2    1    2    0    0 -0.26776890047E+02  0.25315589017E+02  0.46456297457E+03  0.47446665098E+03  0.89117701158E+02 0.  0.
          5    1    3    3  502    0 -0.73744343914E+01  0.28409727709E+02  0.66236691946E+02  0.72569047610E+02  0.41800000000E+01 0. -1.
         -5    1    3    3    0  502  0.34151324439E+02 -0.53725316726E+02  0.92685998066E+03  0.92905307640E+03  0.41800000000E+01 0. -1.
        -11    1    4    4    0    0 -0.31931813264E+02 -0.26986735216E+02  0.15834503594E+03  0.16377141076E+03  0.00000000000E+00 0.  1.
         11    1    4    4    0    0  0.51549232167E+01  0.52302324233E+02  0.30621793863E+03  0.31069524022E+03  0.00000000000E+00 0. -1.
</event>
<event>
 8    1  0.7136454E-009  0.1101656E+03  0.7561462E-02  0.1260264E+00
          2   -1    0    0  501    0  0.00000000000E+00  0.00000000000E+00  0.33856848593E+03  0.33856848593E+03  0.00000000000E+00 0. -1.
         -2   -1    0    0    0  501 -0.00000000000E+00 -0.00000000000E+00 -0.59816291626E+02  0.59816291626E+02  0.00000000000E+00 0.  1.
         25    2    1    2    0    0  0.29749630633E+02  0.69994796605E+02  0.22389008551E+03  0.26750457351E+03  0.12509042484E+03 0.  0.
         23    2    1    2    0    0 -0.29749630633E+02 -0.69994796605E+02  0.54862108794E+02  0.13088020404E+03  0.91298766443E+02 0.  0.
          5    1    3    3  502    0  0.25860102579E+02 -0.47763859530E+01  0.17715399516E+03  0.17914399005E+03  0.41800000000E+01 0.  1.
         -5    1    3    3    0  502  0.38895280538E+01  0.74771182558E+02  0.46736090349E+02  0.88360583467E+02  0.41800000000E+01 0.  1.
        -11    1    4    4    0    0  0.83878711808E+01 -0.79068885458E+02  0.34056050144E+02  0.86498899311E+02  0.00000000000E+00 0.  1.
         11    1    4    4    0    0 -0.38137501814E+02  0.90740888531E+01  0.20806058649E+02  0.44381304731E+02  0.00000000000E+00 0. -1.
</event>
<event>
 8    1  0.7136454E-009  0.9495655E+02  0.7561462E-02  0.1291274E+00
          2   -1    0    0  501    0  0.00000000000E+00  0.00000000000E+00  0.12492371916E+03  0.12492371916E+03  0.00000000000E+00 0. -1.
         -2   -1    0    0    0  501 -0.00000000000E+00 -0.00000000000E+00 -0.11365132977E+03  0.11365132977E+03  0.00000000000E+00 0.  1.
         25    2    1    2    0    0  0.95886993061E+01  0.28414176722E+02  0.52376321114E+02  0.13888768333E+03  0.12508877238E+03 0.  0.
         23    2    1    2    0    0 -0.95886993061E+01 -0.28414176722E+02 -0.41103931716E+02  0.99687365596E+02  0.85724728427E+02 0.  0.
          5    1    3    3  502    0 -0.42152595870E+02  0.44887558787E+01  0.67450746069E+02  0.79775095193E+02  0.41800000000E+01 0.  1.
         -5    1    3    3    0  502  0.51741295176E+02  0.23925420843E+02 -0.15074424955E+02  0.59112588141E+02  0.41800000000E+01 0.  1.
        -11    1    4    4    0    0  0.28782760024E+02 -0.40716862445E+02 -0.16735053005E+02  0.52596313189E+02  0.00000000000E+00 0.  1.
         11    1    4    4    0    0 -0.38371459331E+02  0.12302685724E+02 -0.24368878711E+02  0.47091052407E+02  0.00000000000E+00 0. -1.
</event>
<event>
 8    1  0.7136454E-009  0.1417469E+03  0.7561462E-02  0.1210998E+00
         -2   -1    0    0    0  501 -0.00000000000E+00  0.00000000000E+00  0.78550705036E+02  0.78550705036E+02  0.00000000000E+00 0.  1.
          2   -1    0    0  501    0  0.00000000000E+00 -0.00000000000E+00 -0.39410610806E+03  0.39410610806E+03  0.00000000000E+00 0. -1.
         25    2    1    2    0    0  0.55802925920E+02  0.98545301634E+02 -0.27197682921E+03  0.32007144161E+03  0.12509671895E+03 0.  0.
         23    2    1    2    0    0 -0.55802925920E+02 -0.98545301634E+02 -0.43578573812E+02  0.15258537148E+03  0.92509785858E+02 0.  0.
          5    1    3    3  502    0  0.93450559029E+02  0.49246421286E+02 -0.18647006311E+03  0.21435198583E+03  0.41800000000E+01 0.  1.
         -5    1    3    3    0  502 -0.37647633109E+02  0.49298880348E+02 -0.85506766100E+02  0.10571945578E+03  0.41800000000E+01 0.  1.
        -11    1    4    4    0    0 -0.31228979006E+02 -0.76367432596E+02 -0.71579786064E+02  0.10922865770E+03  0.00000000000E+00 0. -1.
         11    1    4    4    0    0 -0.24573946915E+02 -0.22177869038E+02  0.28001212252E+02  0.43356713778E+02  0.00000000000E+00 0.  1.
</event>
<event>
 8    1  0.7136454E-009  0.1190797E+03  0.7561462E-02  0.1244623E+00
          1   -1    0    0  501    0  0.00000000000E+00  0.00000000000E+00  0.50037984301E+02  0.50037984301E+02  0.00000000000E+00 0. -1.
         -1   -1    0    0    0  501 -0.00000000000E+00 -0.00000000000E+00 -0.34718368942E+03  0.34718368942E+03  0.00000000000E+00 0.  1.
         25    2    1    2    0    0 -0.20340235492E+02  0.82365230169E+02 -0.19071739716E+03  0.24334514854E+03  0.12508388952E+03 0.  0.
         23    2    1    2    0    0  0.20340235492E+02 -0.82365230169E+02 -0.10642830796E+03  0.15387652518E+03  0.71786098561E+02 0.  0.
          5    1    3    3  502    0  0.43977983300E+02  0.41547638612E+02 -0.13763618601E+03  0.15040432637E+03  0.41800000000E+01 0. -1.
         -5    1    3    3    0  502 -0.64318218792E+02  0.40817591557E+02 -0.53081211141E+02  0.92940822168E+02  0.41800000000E+01 0. -1.
        -11    1    4    4    0    0  0.30606891787E+02 -0.16908752114E+02 -0.90919030036E+01  0.36129633587E+02  0.00000000000E+00 0. -1.
         11    1    4    4    0    0 -0.10266656294E+02 -0.65456478054E+02 -0.97336404955E+02  0.11774689160E+03  0.00000000000E+00 0.  1.
</event>
<event>
 8    1  0.7136454E-009  0.1468696E+03  0.7561462E-02  0.1204373E+00
          2   -1    0    0  501    0  0.00000000000E+00  0.00000000000E+00  0.11880677566E+04  0.11880677566E+04  0.00000000000E+00 0.  1.
         -2   -1    0    0    0  501 -0.00000000000E+00 -0.00000000000E+00 -0.23801481046E+02  0.23801481046E+02  0.00000000000E+00 0. -1.
         25    2    1    2    0    0  0.14284884931E+02  0.12312884547E+03  0.72516963948E+03  0.74624620251E+03  0.12509044015E+03 0.  0.
         23    2    1    2    0    0 -0.14284884931E+02 -0.12312884547E+03  0.43909663604E+03  0.46562303510E+03  0.92920312675E+02 0.  0.
          5    1    3    3  502    0 -0.27176191760E+02  0.38545943137E+02  0.49854760803E+03  0.50079089948E+03  0.41800000000E+01 0. -1.
         -5    1    3    3    0  502  0.41461076691E+02  0.84582902337E+02  0.22662203145E+03  0.24545530303E+03  0.41800000000E+01 0. -1.
        -11    1    4    4    0    0 -0.39376703028E+02 -0.16730413670E+02  0.16687044212E+03  0.17226774491E+03  0.00000000000E+00 0. -1.
         11    1    4    4    0    0  0.25091818097E+02 -0.10639843180E+03  0.27222619393E+03  0.29335529019E+03  0.00000000000E+00 0.  1.
</event>
<event>
 8    1  0.7136454E-009  0.9311000E+02  0.7561462E-02  0.1295490E+00
         -1   -1    0    0    0  501 -0.00000000000E+00  0.00000000000E+00  0.12312683248E+03  0.12312683248E+03  0.00000000000E+00 0.  1.
          1   -1    0    0  501    0  0.00000000000E+00 -0.00000000000E+00 -0.11903105443E+03  0.11903105443E+03  0.00000000000E+00 0. -1.
         25    2    1    2    0    0  0.20477883976E+02 -0.20179662690E+02 -0.50441970801E+02  0.13790764717E+03  0.12509022428E+03 0.  0.
         23    2    1    2    0    0 -0.20477883976E+02  0.20179662690E+02  0.54537748854E+02  0.10425023974E+03  0.84066544580E+02 0.  0.
          5    1    3    3  502    0  0.42865610255E+02  0.40919294543E+02 -0.40617817516E+02  0.71966163634E+02  0.41800000000E+01 0. -1.
         -5    1    3    3    0  502 -0.22387726279E+02 -0.61098957232E+02 -0.98241532844E+01  0.65941483533E+02  0.41800000000E+01 0. -1.
        -11    1    4    4    0    0  0.25411442153E+01 -0.17374178838E+02  0.57482537774E+02  0.60104589285E+02  0.00000000000E+00 0.  1.
         11    1    4    4    0    0 -0.23019028191E+02  0.37553841528E+02 -0.29447889201E+01  0.44145650456E+02  0.00000000000E+00 0. -1.
</event>
<event>
 8    1  0.7136454E-009  0.1234773E+03  0.7561462E-02  0.1237468E+00
         -2   -1    0    0    0  501 -0.00000000000E+00  0.00000000000E+00  0.60434421762E+02  0.60434421762E+02  0.00000000000E+00 0.  1.
          2   -1    0    0  501    0  0.00000000000E+00 -0.00000000000E+00 -0.26246988871E+03  0.26246988871E+03  0.00000000000E+00 0. -1.
         25    2    1    2    0    0  0.49195444572E+01 -0.63702054470E+02 -0.10879009519E+03  0.17766499113E+03  0.12508961028E+03 0.  0.
         23    2    1    2    0    0 -0.49195444572E+01  0.63702054470E+02 -0.93245371755E+02  0.14523931935E+03  0.91200914847E+02 0.  0.
          5    1    3    3  502    0 -0.46964635982E+02  0.72292995919E+01 -0.17316273196E+02  0.50747074033E+02  0.41800000000E+01 0.  1.
         -5    1    3    3    0  502  0.51884180439E+02 -0.70931354062E+02 -0.91473821999E+02  0.12691791710E+03  0.41800000000E+01 0.  1.
        -11    1    4    4    0    0 -0.36988970383E+02  0.69455281019E+02 -0.63375218268E+02  0.10103780620E+03  0.00000000000E+00 0.  1.
         11    1    4    4    0    0  0.32069425926E+02 -0.57532265489E+01 -0.29870153487E+02  0.44201513144E+02  0.00000000000E+00 0. -1.
</event>
<event>
 8    1  0.7136454E-009  0.1133120E+03  0.7561462E-02  0.1254557E+00
         -1   -1    0    0    0  501 -0.00000000000E+00  0.00000000000E+00  0.88180527445E+01  0.88180527445E+01  0.00000000000E+00 0.  1.
          1   -1    0    0  501    0  0.00000000000E+00 -0.00000000000E+00 -0.18487051324E+04  0.18487051324E+04  0.00000000000E+00 0. -1.
         25    2    1    2    0    0  0.76310297833E+01 -0.54265096404E+02 -0.13174416835E+04  0.13245022016E+04  0.12510219577E+03 0.  0.
         23    2    1    2    0    0 -0.76310297833E+01  0.54265096404E+02 -0.52244539616E+03  0.53302098352E+03  0.90328531501E+02 0.  0.
          5    1    3    3  502    0  0.31797674467E+02 -0.80089616673E+02 -0.11542418883E+04  0.11574615535E+04  0.41800000000E+01 0. -1.
         -5    1    3    3    0  502 -0.24166644684E+02  0.25824520269E+02 -0.16319979522E+03  0.16704064812E+03  0.41800000000E+01 0. -1.
        -11    1    4    4    0    0  0.34113275080E+02 -0.25800551518E+01 -0.20506192270E+03  0.20789604220E+03  0.00000000000E+00 0. -1.
         11    1    4    4    0    0 -0.41744304863E+02  0.56845151556E+02 -0.31738347346E+03  0.32512494132E+03  0.00000000000E+00 0.  1.
</event>
<event>
 8    1  0.7136454E-009  0.1076245E+03  0.7561462E-02  0.1265033E+00
         -4   -1    0    0    0  501 -0.00000000000E+00  0.00000000000E+00  0.27064981803E+02  0.27064981803E+02  0.00000000000E+00 0.  1.
          4   -1    0    0  501    0  0.00000000000E+00 -0.00000000000E+00 -0.51245867152E+03  0.51245867152E+03  0.00000000000E+00 0. -1.
         25    2    1    2    0    0 -0.93829363699E+00 -0.43307457666E+02 -0.28754509935E+03  0.31655505731E+03  0.12509398014E+03 0.  0.
         23    2    1    2    0    0  0.93829363699E+00  0.43307457666E+02 -0.19784859037E+03  0.22296859600E+03  0.93244376830E+02 0.  0.
          5    1    3    3  502    0  0.55972679570E+02 -0.37758744626E+02 -0.20637007682E+03  0.21717445674E+03  0.41800000000E+01 0. -1.
         -5    1    3    3    0  502 -0.56910973207E+02 -0.55487130400E+01 -0.81175022531E+02  0.99380600576E+02  0.41800000000E+01 0. -1.
        -11    1    4    4    0    0  0.10430327394E+01  0.66783803597E+02 -0.87112925624E+02  0.10977170014E+03  0.00000000000E+00 0.  1.
         11    1    4    4    0    0 -0.10473910242E+00 -0.23476345931E+02 -0.11073566474E+03  0.11319689587E+03  0.00000000000E+00 0. -1.
</event>
<event>
 8    1  0.7136454E-009  0.1985893E+03  0.7561462E-02  0.1150935E+00
          2   -1    0    0  501    0  0.00000000000E+00  0.00000000000E+00  0.34877647064E+03  0.34877647064E+03  0.00000000000E+00 0. -1.
         -2   -1    0    0    0  501 -0.00000000000E+00 -0.00000000000E+00 -0.12812640088E+03  0.12812640088E+03  0.00000000000E+00 0.  1.
         25    2    1    2    0    0 -0.14826337399E+03 -0.10391148874E+03  0.12628092532E+03  0.25371838571E+03  0.12508605672E+03 0.  0.
         23    2    1    2    0    0  0.14826337399E+03  0.10391148874E+03  0.94369144450E+02  0.22318448581E+03  0.90145181355E+02 0.  0.
          5    1    3    3  502    0 -0.15428843204E+03 -0.11516198955E+03  0.85349129070E+02  0.21063985931E+03  0.41800000000E+01 0. -1.
         -5    1    3    3    0  502  0.60250580433E+01  0.11250500803E+02  0.40931796246E+02  0.43078526399E+02  0.41800000000E+01 0. -1.
        -11    1    4    4    0    0  0.84964619265E+02  0.94669137478E+02  0.26532552792E+02  0.12994309707E+03  0.00000000000E+00 0.  1.
         11    1    4    4    0    0  0.63298754729E+02  0.92423512657E+01  0.67836591658E+02  0.93241388745E+02  0.00000000000E+00 0. -1.
</event>
<event>
 8    1  0.7136454E-009  0.1990638E+03  0.7561462E-02  0.1150531E+00
         -1   -1    0    0    0  501 -0.00000000000E+00  0.00000000000E+00  0.78133484397E+02  0.78133484397E+02  0.00000000000E+00 0.  1.
          1   -1    0    0  501    0  0.00000000000E+00 -0.00000000000E+00 -0.60914768473E+03  0.60914768473E+03  0.00000000000E+00 0. -1.
         25    2    1    2    0    0  0.16816467302E+03 -0.72738106422E+02 -0.20401864427E+03  0.30139855859E+03  0.12508914634E+03 0.  0.
         23    2    1    2    0    0 -0.16816467302E+03  0.72738106422E+02 -0.32699555606E+03  0.38588261054E+03  0.91701178034E+02 0.  0.
          5    1    3    3  502    0  0.54625832711E+02 -0.66447644628E+02 -0.25711754060E+02  0.89876792182E+02  0.41800000000E+01 0.  1.
         -5    1    3    3    0  502  0.11353884031E+03 -0.62904617934E+01 -0.17830689021E+03  0.21152176641E+03  0.41800000000E+01 0.  1.
        -11    1    4    4    0    0 -0.34753467356E+02 -0.15720828319E+02 -0.10861291494E+03  0.11511608588E+03  0.00000000000E+00 0.  1.
         11    1    4    4    0    0 -0.13341120566E+03  0.88458934741E+02 -0.21838264112E+03  0.27076652466E+03  0.00000000000E+00 0. -1.
</event>
<event>
 8    1  0.7136454E-009  0.1116369E+03  0.7561462E-02  0.1257568E+00
          1   -1    0    0  501    0  0.00000000000E+00  0.00000000000E+00  0.84111115445E+02  0.84111115445E+02  0.00000000000E+00 0. -1.
         -1   -1    0    0    0  501 -0.00000000000E+00 -0.00000000000E+00 -0.20792016166E+03  0.20792016166E+03  0.00000000000E+00 0.  1.
         25    2    1    2    0    0  0.36809466984E+02 -0.64685789888E+02 -0.79018968396E+02  0.16562576420E+03  0.12509479656E+03 0.  0.
         23    2    1    2    0    0 -0.36809466984E+02  0.64685789888E+02 -0.44790077820E+02  0.12640551291E+03  0.91831445322E+02 0.  0.
          5    1    3    3  502    0  0.61449201418E+02 -0.43966041359E+02  0.47135648436E+01  0.75820229762E+02  0.41800000000E+01 0. -1.
         -5    1    3    3    0  502 -0.24639734435E+02 -0.20719748529E+02 -0.83732533240E+02  0.89805534434E+02  0.41800000000E+01 0. -1.
        -11    1    4    4    0    0 -0.12092045527E+02 -0.21940975746E+02 -0.22339459517E+02  0.33565986254E+02  0.00000000000E+00 0.  1.
         11    1    4    4    0    0 -0.24717421457E+02  0.86626765633E+02 -0.22450618303E+02  0.92839526656E+02  0.00000000000E+00 0. -1.
</event>
<event>
 8    1  0.7136454E-009  0.2643950E+03  0.7561462E-02  0.1104531E+00
          1   -1    0    0  501    0  0.00000000000E+00  0.00000000000E+00  0.10387720465E+04  0.10387720465E+04  0.00000000000E+00 0. -1.
         -1   -1    0    0    0  501 -0.00000000000E+00 -0.00000000000E+00 -0.74836279007E+02  0.74836279007E+02  0.00000000000E+00 0.  1.
         25    2    1    2    0    0  0.77855908871E+02  0.22995167291E+03  0.65964933012E+03  0.71395017735E+03  0.12509317563E+03 0.  0.
         23    2    1    2    0    0 -0.77855908871E+02 -0.22995167291E+03  0.30428643735E+03  0.39965814813E+03  0.90537754533E+02 0.  0.
          5    1    3    3  502    0  0.57344779145E+02  0.23995979493E+03  0.56561302939E+03  0.61709375163E+03  0.41800000000E+01 0.  1.
         -5    1    3    3    0  502  0.20511129726E+02 -0.10008122023E+02  0.94036300727E+02  0.96856425721E+02  0.41800000000E+01 0.  1.
        -11    1    4    4    0    0  0.20453398518E+02 -0.36640121724E+02  0.42802966234E+02  0.59941087322E+02  0.00000000000E+00 0. -1.
         11    1    4    4    0    0 -0.98309307389E+02 -0.19331155118E+03  0.26148347111E+03  0.33971706081E+03  0.00000000000E+00 0.  1.
</event>
<event>
 8    1  0.7136454E-009  0.1863833E+03  0.7561462E-02  0.1161764E+00
         -1   -1    0    0    0  501 -0.00000000000E+00  0.00000000000E+00  0.23701064720E+03  0.23701064720E+03  0.00000000000E+00 0.  1.
          1   -1    0    0  501    0  0.00000000000E+00 -0.00000000000E+00 -0.21056231146E+03  0.21056231146E+03  0.00000000000E+00 0. -1.
         25    2    1    2    0    0 -0.10299182644E+03  0.13233413403E+03 -0.88151565509E+02  0.22701947526E+03  0.12508998482E+03 0.  0.
         23    2    1    2    0    0  0.10299182644E+03 -0.13233413403E+03  0.11459990125E+03  0.22055348340E+03  0.85971287826E+02 0.  0.
          5    1    3    3  502    0 -0.64322117210E+02 -0.14002372013E+01 -0.52781962343E+02  0.83322886264E+02  0.41800000000E+01 0. -1.
         -5    1    3    3    0  502 -0.38669709231E+02  0.13373437123E+03 -0.35369603166E+02  0.14369658899E+03  0.41800000000E+01 0. -1.
        -11    1    4    4    0    0  0.88616869606E+02 -0.99894049925E+02  0.12568412711E+03  0.18338012596E+03  0.00000000000E+00 0.  1.
         11    1    4    4    0    0  0.14374956835E+02 -0.32440084101E+02 -0.11084225859E+02  0.37173357440E+02  0.00000000000E+00 0. -1.
</event>
<event>
 8    1  0.7136454E-009  0.9940595E+02  0.7561462E-02  0.1281550E+00
         -2   -1    0    0    0  501 -0.00000000000E+00  0.00000000000E+00  0.85062924695E+02  0.85062924695E+02  0.00000000000E+00 0.  1.
          2   -1    0    0  501    0  0.00000000000E+00 -0.00000000000E+00 -0.21578804601E+03  0.21578804601E+03  0.00000000000E+00 0. -1.
         25    2    1    2    0    0 -0.17654536782E+02 -0.29250519511E+02  0.88393431192E+01  0.12997545090E+03  0.12509279872E+03 0.  0.
         23    2    1    2    0    0  0.17654536782E+02  0.29250519511E+02 -0.13956446443E+03  0.17087551980E+03  0.92482041357E+02 0.  0.
          5    1    3    3  502    0 -0.14242874780E+02 -0.69048376713E+02 -0.27521749614E+02  0.75798792276E+02  0.41800000000E+01 0.  1.
         -5    1    3    3    0  502 -0.34116620013E+01  0.39797857201E+02  0.36361092733E+02  0.54176658629E+02  0.41800000000E+01 0.  1.
        -11    1    4    4    0    0  0.36955928366E+02  0.48359433250E+02 -0.12724428325E+03  0.14105134897E+03  0.00000000000E+00 0.  1.
         11    1    4    4    0    0 -0.19301391585E+02 -0.19108913739E+02 -0.12320181181E+02  0.29824170830E+02  0.00000000000E+00 0. -1.
</event>
<event>
 8    1  0.7136454E-009  0.1278141E+03  0.7561462E-02  0.1230736E+00
          1   -1    0    0  501    0  0.00000000000E+00  0.00000000000E+00  0.17402358236E+03  0.17402358236E+03  0.00000000000E+00 0. -1.
         -1   -1    0    0    0  501 -0.00000000000E+00 -0.00000000000E+00 -0.13605819714E+03  0.13605819714E+03  0.00000000000E+00 0.  1.
         25    2    1    2    0    0 -0.77996164430E+02 -0.60513908289E+02 -0.26878082818E+02  0.16160411397E+03  0.12509246002E+03 0.  0.
         23    2    1    2    0    0  0.77996164430E+02  0.60513908289E+02  0.64843468045E+02  0.14847766553E+03  0.89975591423E+02 0.  0.
          5    1    3    3  502    0 -0.71321554040E+02 -0.88319769610E+02 -0.50462574280E+02  0.12430241179E+03  0.41800000000E+01 0.  1.
         -5    1    3    3    0  502 -0.66746103904E+01  0.27805861320E+02  0.23584491462E+02  0.37301702175E+02  0.41800000000E+01 0.  1.
        -11    1    4    4    0    0  0.63400594136E+02  0.70978064967E+02  0.80501175892E+02  0.12465135524E+03  0.00000000000E+00 0. -1.
         11    1    4    4    0    0  0.14595570294E+02 -0.10464156678E+02 -0.15657707847E+02  0.23826310293E+02  0.00000000000E+00 0.  1.
</event>
<event>
 8    1  0.7136454E-009  0.1217936E+03  0.7561462E-02  0.1240167E+00
          2   -1    0    0  501    0  0.00000000000E+00  0.00000000000E+00  0.60582970229E+03  0.60582970229E+03  0.00000000000E+00 0. -1.
         -2   -1    0    0    0  501 -0.00000000000E+00 -0.00000000000E+00 -0.37561734494E+02  0.37561734494E+02  0.00000000000E+00 0.  1.
         25    2    1    2    0    0 -0.18621153396E+02 -0.86824219809E+02  0.41990978618E+03  0.44705409232E+03  0.12509172806E+03 0.  0.
         23    2    1    2    0    0  0.18621153396E+02  0.86824219809E+02  0.14835818161E+03  0.19633734447E+03  0.93021558151E+02 0.  0.
          5    1    3    3  502    0 -0.44149939848E+02 -0.32547878345E+02  0.57067268067E+02  0.79263655341E+02  0.41800000000E+01 0.  1.
         -5    1    3    3    0  502  0.25528786452E+02 -0.54276341464E+02  0.36284251811E+03  0.36779043698E+03  0.41800000000E+01 0.  1.
        -11    1    4    4    0    0 -0.33774539326E+01  0.10178949984E+03  0.12136013135E+03  0.15843229138E+03  0.00000000000E+00 0. -1.
         11    1    4    4    0    0  0.21998607328E+02 -0.14965280032E+02  0.26998050268E+02  0.37905053082E+02  0.00000000000E+00 0.  1.
</event>
<event>
 8    1  0.7136454E-009  0.5584072E+02  0.7561462E-02  0.1416164E+00
          4   -1    0    0  501    0  0.00000000000E+00  0.00000000000E+00  0.17299770598E+03  0.17299770598E+03  0.00000000000E+00 0.  1.
         -4   -1    0    0    0  501 -0.00000000000E+00 -0.00000000000E+00 -0.12713085117E+03  0.12713085117E+03  0.00000000000E+00 0. -1.
         25    2    1    2    0    0  0.12108769342E+02  0.18446310701E+02 -0.58365006379E+02  0.13978895074E+03  0.12509031979E+03 0.  0.
         23    2    1    2    0    0 -0.12108769342E+02 -0.18446310701E+02  0.10423186119E+03  0.16033960642E+03  0.11982328582E+03 0.  0.
          5    1    3    3  502    0  0.31635941006E+01  0.15934240999E+01  0.39558662407E+02  0.39936293011E+02  0.41800000000E+01 0.  1.
         -5    1    3    3    0  502  0.89451752416E+01  0.16852886601E+02 -0.97923668786E+02  0.99852657729E+02  0.41800000000E+01 0.  1.
        -11    1    4    4    0    0 -0.45990198091E+02  0.37860001124E+01  0.11011232955E+03  0.11939077534E+03  0.00000000000E+00 0.  1.
         11    1    4    4    0    0  0.33881428749E+02 -0.22232310814E+02 -0.58804683597E+01  0.40948831074E+02  0.00000000000E+00 0. -1.
</event>
<event>
 8    1  0.7136454E-009  0.1084306E+03  0.7561462E-02  0.1263504E+00
         -2   -1    0    0    0  501 -0.00000000000E+00  0.00000000000E+00  0.52430629694E+02  0.52430629694E+02  0.00000000000E+00 0.  1.
          2   -1    0    0  501    0  0.00000000000E+00 -0.00000000000E+00 -0.26307403143E+03  0.26307403143E+03  0.00000000000E+00 0. -1.
         25    2    1    2    0    0 -0.44691499854E+01 -0.45663098907E+02 -0.10209534188E+03  0.16785821909E+03  0.12509129059E+03 0.  0.
         23    2    1    2    0    0  0.44691499854E+01  0.45663098907E+02 -0.10854805986E+03  0.14764644203E+03  0.88947729834E+02 0.  0.
          5    1    3    3  502    0  0.19418263051E+01 -0.83475162265E+02 -0.98374621980E+02  0.12910039525E+03  0.41800000000E+01 0.  1.
         -5    1    3    3    0  502 -0.64109762904E+01  0.37812063358E+02 -0.37207199005E+01  0.38757823842E+02  0.41800000000E+01 0.  1.
        -11    1    4    4    0    0 -0.37382732378E+02  0.76831659117E+01 -0.21335640013E+02  0.43723097480E+02  0.00000000000E+00 0. -1.
         11    1    4    4    0    0  0.41851882364E+02  0.37979932995E+02 -0.87212419848E+02  0.10392334455E+03  0.00000000000E+00 0.  1.
</event>
<event>
 8    1  0.7136454E-009  0.1232476E+03  0.7561462E-02  0.1237834E+00
         -2   -1    0    0    0  501 -0.00000000000E+00  0.00000000000E+00  0.22999925204E+02  0.22999925204E+02  0.00000000000E+00 0.  1.
          2   -1    0    0  501    0  0.00000000000E+00 -0.00000000000E+00 -0.68439962555E+03  0.68439962555E+03  0.00000000000E+00 0. -1.
         25    2    1    2    0    0 -0.16981814321E+02  0.59840647825E+02 -0.36631831002E+03  0.39207241179E+03  0.12514945736E+03 0.  0.
         23    2    1    2    0    0  0.16981814321E+02 -0.59840647825E+02 -0.29508139033E+03  0.31532713897E+03  0.92135186019E+02 0.  0.
          5    1    3    3  502    0 -0.18679109147E+02  0.97761608740E+02 -0.23323490508E+03  0.25361828524E+03  0.41800000000E+01 0. -1.
         -5    1    3    3    0  502  0.16972948258E+01 -0.37920960916E+02 -0.13308340494E+03  0.13845412654E+03  0.41800000000E+01 0. -1.
        -11    1    4    4    0    0 -0.13192695394E+02 -0.74135219141E+02 -0.17126192532E+03  0.18708480696E+03  0.00000000000E+00 0. -1.
         11    1    4    4    0    0  0.30174509716E+02  0.14294571317E+02 -0.12381946500E+03  0.12824233201E+03  0.00000000000E+00 0.  1.
</event>
<event>
 8    1  0.7136454E-009  0.1216153E+03  0.7561462E-02  0.1240456E+00
          1   -1    0    0  501    0  0.00000000000E+00  0.00000000000E+00  0.96014383946E+03  0.96014383946E+03  0.00000000000E+00 0. -1.
         -1   -1    0    0    0  501 -0.00000000000E+00 -0.00000000000E+00 -0.16960368707E+02  0.16960368707E+02  0.00000000000E+00 0.  1.
         25    2    1    2    0    0  0.58947834735E+02 -0.28732874286E+02  0.48459095246E+03  0.50475320790E+03  0.12508790669E+03 0.  0.
         23    2    1    2    0    0 -0.58947834735E+02  0.28732874286E+02  0.45859251830E+03  0.47235100027E+03  0.92238518685E+02 0.  0.
          5    1    3    3  502    0  0.92921820053E+02 -0.27726635908E-01  0.27034117902E+03  0.28589559438E+03  0.41800000000E+01 0. -1.
         -5    1    3    3    0  502 -0.33973985318E+02 -0.28705147650E+02  0.21424977343E+03  0.21885761352E+03  0.41800000000E+01 0. -1.
        -11    1    4    4    0    0 -0.31484275409E+02 -0.28240720494E+02  0.10591808964E+03  0.11405016267E+03  0.00000000000E+00 0.  1.
         11    1    4    4    0    0 -0.27463559325E+02  0.56973594780E+02  0.35267442866E+03  0.35830083760E+03  0.00000000000E+00 0. -1.
</event>
<event>
 8    1  0.7136454E-009  0.8271100E+02  0.7561462E-02  0.1321529E+00
         -2   -1    0    0    0  501 -0.00000000000E+00  0.00000000000E+00  0.28360581162E+03  0.28360581162E+03  0.00000000000E+00 0.  1.
          2   -1    0    0  501    0  0.00000000000E+00 -0.00000000000E+00 -0.80913973117E+02  0.80913973117E+02  0.00000000000E+00 0. -1.
         25    2    1    2    0    0  0.16576755605E+02 -0.46817113657E+02  0.22061351186E+03  0.25842653811E+03  0.12508926023E+03 0.  0.
         23    2    1    2    0    0 -0.16576755605E+02  0.46817113657E+02 -0.17921673353E+02  0.10609324663E+03  0.92021517307E+02 0.  0.
          5    1    3    3  502    0  0.70304171361E+01  0.81856845108E+01 -0.13460826435E+02  0.17751012488E+02  0.41800000000E+01 0. -1.
         -5    1    3    3    0  502  0.95463384694E+01 -0.55002798168E+02  0.23407433829E+03  0.24067552562E+03  0.41800000000E+01 0. -1.
        -11    1    4    4    0    0 -0.51165960765E+02  0.31100352693E+02  0.75525264836E+01  0.60350875179E+02  0.00000000000E+00 0.  1.
         11    1    4    4    0    0  0.34589205159E+02  0.15716760964E+02 -0.25474199837E+02  0.45742371452E+02  0.00000000000E+00 0. -1.
</event>
<event>
 8    1  0.7136454E-009  0.1448816E+03  0.7561462E-02  0.1206907E+00
          1   -1    0    0  501    0  0.00000000000E+00  0.00000000000E+00  0.69099512506E+03  0.69099512506E+03  0.00000000000E+00 0. -1.
         -1   -1    0    0    0  501 -0.00000000000E+00 -0.00000000000E+00 -0.43256675519E+02  0.43256675519E+02  0.00000000000E+00 0.  1.
         25    2    1    2    0    0  0.11076831663E+03 -0.23400754464E+02  0.49546021003E+03  0.52339814662E+03  0.12509030693E+03 0.  0.
         23    2    1    2    0    0 -0.11076831663E+03  0.23400754464E+02  0.15227823951E+03  0.21085365396E+03  0.91942296470E+02 0.  0.
          5    1    3    3  502    0 -0.17903416426E+02  0.17557280481E+02  0.15573709974E+03  0.15779831131E+03  0.41800000000E+01 0.  1.
         -5    1    3    3    0  502  0.12867173305E+03 -0.40958034945E+02  0.33972311029E+03  0.36559983531E+03  0.41800000000E+01 0.  1.
        -11    1    4    4    0    0 -0.21590933141E+02 -0.20564714185E+02  0.86862516665E+02  0.91837751849E+02  0.00000000000E+00 0. -1.
         11    1    4    4    0    0 -0.89177383487E+02  0.43965468648E+02  0.65415722849E+02  0.11901590211E+03  0.00000000000E+00 0.  1.
</event>
<event>
 8    1  0.7136454E-009  0.2888015E+03  0.7561462E-02  0.1090977E+00
          2   -1    0    0  501    0  0.00000000000E+00  0.00000000000E+00  0.11102914877E+04  0.11102914877E+04  0.00000000000E+00 0. -1.
         -2   -1    0    0    0  501 -0.00000000000E+00 -0.00000000000E+00 -0.79247502363E+02  0.79247502363E+02  0.00000000000E+00 0.  1.
         25    2    1    2    0    0 -0.10050293964E+03  0.25628595838E+03  0.48821354111E+03  0.57426739784E+03  0.12508896497E+03 0.  0.
         23    2    1    2    0    0  0.10050293964E+03 -0.25628595838E+03  0.54283044425E+03  0.61527159225E+03  0.90060577832E+02 0.  0.
          5    1    3    3  502    0 -0.76828016939E+01  0.18480076949E+03  0.30718825983E+03  0.35859789350E+03  0.41800000000E+01 0.  1.
         -5    1    3    3    0  502 -0.92820137945E+02  0.71485188897E+02  0.18102528128E+03  0.21566950434E+03  0.41800000000E+01 0.  1.
        -11    1    4    4    0    0  0.53820403681E+02 -0.14605007739E+03  0.20876205103E+03  0.26040133431E+03  0.00000000000E+00 0. -1.
         11    1    4    4    0    0  0.46682535958E+02 -0.11023588099E+03  0.33406839322E+03  0.35487025794E+03  0.00000000000E+00 0.  1.
</event>
<event>
 8    1  0.7136454E-009  0.2244160E+03  0.7561462E-02  0.1130633E+00
          1   -1    0    0  501    0  0.00000000000E+00  0.00000000000E+00  0.66104699804E+02  0.66104699804E+02  0.00000000000E+00 0. -1.
         -1   -1    0    0    0  501 -0.00000000000E+00 -0.00000000000E+00 -0.89108350996E+03  0.89108350996E+03  0.00000000000E+00 0.  1.
         25    2    1    2    0    0 -0.19305244608E+03 -0.96320623853E+02 -0.44266616113E+03  0.50808270625E+03  0.12509115341E+03 0.  0.
         23    2    1    2    0    0  0.19305244608E+03  0.96320623853E+02 -0.38231264902E+03  0.44910550351E+03  0.94793893097E+02 0.  0.
          5    1    3    3  502    0 -0.16284659959E+03 -0.74951423137E+02 -0.22727339630E+03  0.28949507749E+03  0.41800000000E+01 0. -1.
         -5    1    3    3    0  502 -0.30205846484E+02 -0.21369200715E+02 -0.21539276483E+03  0.21858762875E+03  0.41800000000E+01 0. -1.
        -11    1    4    4    0    0  0.11075737793E+03  0.10094286395E+03 -0.20879338737E+03  0.25700454696E+03  0.00000000000E+00 0. -1.
         11    1    4    4    0    0  0.82295068145E+02 -0.46222400976E+01 -0.17351926165E+03  0.19210095655E+03  0.00000000000E+00 0.  1.
</event>
<event>
 8    1  0.7136454E-009  0.2051472E+03  0.7561462E-02  0.1145468E+00
          2   -1    0    0  501    0  0.00000000000E+00  0.00000000000E+00  0.39470426258E+02  0.39470426258E+02  0.00000000000E+00 0.  1.
         -2   -1    0    0    0  501 -0.00000000000E+00 -0.00000000000E+00 -0.11813560263E+04  0.11813560263E+04  0.00000000000E+00 0. -1.
         25    2    1    2    0    0  0.17818820558E+03 -0.51274740208E+02 -0.61349776702E+03  0.65299860898E+03  0.12509011794E+03 0.  0.
         23    2    1    2    0    0 -0.17818820558E+03  0.51274740208E+02 -0.52838783304E+03  0.56782784359E+03  0.94099002463E+02 0.  0.
          5    1    3    3  502    0 -0.15284280395E+02  0.10903576020E+02 -0.36711964730E+02  0.41445602318E+02  0.41800000000E+01 0.  1.
         -5    1    3    3    0  502  0.19347248597E+03 -0.62178316228E+02 -0.57678580229E+03  0.61155300666E+03  0.41800000000E+01 0.  1.
        -11    1    4    4    0    0 -0.66475565757E+02  0.34301371511E+02 -0.34016558543E+03  0.34829328223E+03  0.00000000000E+00 0. -1.
         11    1    4    4    0    0 -0.11171263982E+03  0.16973368696E+02 -0.18822224761E+03  0.21953456137E+03  0.00000000000E+00 0.  1.
</event>
<event>
 8    1  0.7136454E-009  0.1174301E+03  0.7561462E-02  0.1247398E+00
          1   -1    0    0  501    0  0.00000000000E+00  0.00000000000E+00  0.40012319935E+03  0.40012319935E+03  0.00000000000E+00 0. -1.
         -1   -1    0    0    0  501 -0.00000000000E+00 -0.00000000000E+00 -0.40038130108E+02  0.40038130108E+02  0.00000000000E+00 0.  1.
         25    2    1    2    0    0  0.38542047553E+02 -0.40145032386E+02  0.25755368031E+03  0.29168192543E+03  0.12508930541E+03 0.  0.
         23    2    1    2    0    0 -0.38542047553E+02  0.40145032386E+02  0.10253138893E+03  0.14847940403E+03  0.91849521764E+02 0.  0.
          5    1    3    3  502    0  0.86491940920E+01 -0.80154455962E+02  0.11445519788E+03  0.14006073715E+03  0.41800000000E+01 0. -1.
         -5    1    3    3    0  502  0.29892853461E+02  0.40009423576E+02  0.14309848243E+03  0.15162118828E+03  0.41800000000E+01 0. -1.
        -11    1    4    4    0    0  0.16236016003E+02  0.46136025298E+02  0.29954208472E+02  0.57353253187E+02  0.00000000000E+00 0.  1.
         11    1    4    4    0    0 -0.54778063556E+02 -0.59909929119E+01  0.72577180461E+02  0.91126150838E+02  0.00000000000E+00 0. -1.
</event>
<event>
 8    1  0.7136454E-009  0.2342746E+03  0.7561462E-02  0.1123667E+00
         -1   -1    0    0    0  501 -0.00000000000E+00  0.00000000000E+00  0.16009973953E+03  0.16009973953E+03  0.00000000000E+00 0.  1.
          1   -1    0    0  501    0  0.00000000000E+00 -0.00000000000E+00 -0.42529907704E+03  0.42529907704E+03  0.00000000000E+00 0. -1.
         25    2    1    2    0    0 -0.99585376719E+02  0.19396669775E+03 -0.24016938106E+03  0.34766214431E+03  0.12508919975E+03 0.  0.
         23    2    1    2    0    0  0.99585376719E+02 -0.19396669775E+03 -0.25029956454E+02  0.23773667226E+03  0.91388727551E+02 0.  0.
          5    1    3    3  502    0 -0.18886149456E+02  0.15628830567E+03 -0.18441080723E+03  0.24250265845E+03  0.41800000000E+01 0. -1.
         -5    1    3    3    0  502 -0.80699227263E+02  0.37678392080E+02 -0.55758573828E+02  0.10515948586E+03  0.41800000000E+01 0. -1.
        -11    1    4    4    0    0  0.46304298475E+02 -0.13357245496E+03  0.24079867134E+02  0.14340686449E+03  0.00000000000E+00 0. -1.
         11    1    4    4    0    0  0.53281078245E+02 -0.60394242798E+02 -0.49109823588E+02  0.94329807775E+02  0.00000000000E+00 0.  1.
</event>
<event>
 8    1  0.7136454E-009  0.9623617E+02  0.7561462E-02  0.1288416E+00
         -1   -1    0    0    0  501 -0.00000000000E+00  0.00000000000E+00  0.10842079207E+03  0.10842079207E+03  0.00000000000E+00 0.  1.
          1   -1    0    0  501    0  0.00000000000E+00 -0.00000000000E+00 -0.13380441408E+03  0.13380441408E+03  0.00000000000E+00 0. -1.
         25    2    1    2    0    0  0.27140949526E+02 -0.34983455651E+02  0.13564055035E+02  0.13338712510E+03  0.12509064011E+03 0.  0.
         23    2    1    2    0    0 -0.27140949526E+02  0.34983455651E+02 -0.38947677052E+02  0.10883808105E+03  0.91478593280E+02 0.  0.
          5    1    3    3  502    0 -0.23073573223E+02 -0.36206524252E+02 -0.40713700792E+02  0.59315933878E+02  0.41800000000E+01 0. -1.
         -5    1    3    3    0  502  0.50214522749E+02  0.12230686007E+01  0.54277755827E+02  0.74071191224E+02  0.41800000000E+01 0. -1.
        -11    1    4    4    0    0 -0.25794779905E+01  0.62210598586E+02 -0.12193468265E+02  0.63446772585E+02  0.00000000000E+00 0.  1.
         11    1    4    4    0    0 -0.24561471536E+02 -0.27227142935E+02 -0.26754208787E+02  0.45391308465E+02  0.00000000000E+00 0. -1.
</event>
<event>
 8    1  0.7136454E-009  0.9271948E+02  0.7561462E-02  0.1296397E+00
          2   -1    0    0  501    0  0.00000000000E+00  0.00000000000E+00  0.69115635668E+03  0.69115635668E+03  0.00000000000E+00 0. -1.
         -2   -1    0    0    0  501 -0.00000000000E+00 -0.00000000000E+00 -0.17725197875E+02  0.17725197875E+02  0.00000000000E+00 0.  1.
         25    2    1    2    0    0  0.20055220397E+01  0.26495352566E+01  0.45878078750E+03  0.47554100223E+03  0.12509353166E+03 0.  0.
         23    2    1    2    0    0 -0.20055220397E+01 -0.26495352566E+01  0.21465037130E+03  0.23334055233E+03  0.91443913436E+02 0.  0.
          5    1    3    3  502    0  0.34051880104E+02 -0.46942623758E+02  0.31022290196E+03  0.31562455824E+03  0.41800000000E+01 0. -1.
         -5    1    3    3    0  502 -0.32046358064E+02  0.49592159015E+02  0.14855788555E+03  0.15991644399E+03  0.41800000000E+01 0. -1.
        -11    1    4    4    0    0 -0.23720306660E+02  0.23988283737E+02  0.28852550566E+02  0.44390994344E+02  0.00000000000E+00 0.  1.
         11    1    4    4    0    0  0.21714784620E+02 -0.26637818994E+02  0.18579782074E+03  0.18894955798E+03  0.00000000000E+00 0. -1.
</event>
<event>
 8    1  0.7136454E-009  0.9529366E+02  0.7561462E-02  0.1290516E+00
          1   -1    0    0  501    0  0.00000000000E+00  0.00000000000E+00  0.12656901235E+03  0.12656901235E+03  0.00000000000E+00 0. -1.
         -1   -1    0    0    0  501 -0.00000000000E+00 -0.00000000000E+00 -0.10019187395E+03  0.10019187395E+03  0.00000000000E+00 0.  1.
         25    2    1    2    0    0  0.93357771601E+01  0.33466468043E+02  0.17508843715E+02  0.13101067064E+03  0.12510025978E+03 0.  0.
         23    2    1    2    0    0 -0.93357771601E+01 -0.33466468043E+02  0.88682946888E+01  0.95750215655E+02  0.88782295132E+02 0.  0.
          5    1    3    3  502    0  0.50807391339E+02  0.12464305243E+02 -0.33193018474E+02  0.62096689085E+02  0.41800000000E+01 0. -1.
         -5    1    3    3    0  502 -0.41471614179E+02  0.21002162800E+02  0.50701862189E+02  0.68913981559E+02  0.41800000000E+01 0. -1.
        -11    1    4    4    0    0 -0.45838371403E+02 -0.70573370472E+01  0.18055047887E+02  0.49768936630E+02  0.00000000000E+00 0. -1.
         11    1    4    4    0    0  0.36502594243E+02 -0.26409130996E+02 -0.91867531984E+01  0.45981279025E+02  0.00000000000E+00 0.  1.
</event>
<event>
 8    1  0.7136454E-009  0.9332640E+02  0.7561462E-02  0.1294991E+00
         -2   -1    0    0    0  501 -0.00000000000E+00  0.00000000000E+00  0.10215204378E+03  0.10215204378E+03  0.00000000000E+00 0.  1.
          2   -1    0    0  501    0  0.00000000000E+00 -0.00000000000E+00 -0.14389846302E+03  0.14389846302E+03  0.00000000000E+00 0. -1.
         25    2    1    2    0    0  0.27367080890E+02  0.12189625209E+01  0.24655520356E+02  0.13040199319E+03  0.12508533950E+03 0.  0.
         23    2    1    2    0    0 -0.27367080890E+02 -0.12189625209E+01 -0.66401939593E+02  0.11564851361E+03  0.90636185562E+02 0.  0.
          5    1    3    3  502    0  0.54732809848E+02 -0.33121662670E+02 -0.20469860956E+02  0.67299425104E+02  0.41800000000E+01 0. -1.
         -5    1    3    3    0  502 -0.27365728957E+02  0.34340625191E+02  0.45125381313E+02  0.63102568081E+02  0.41800000000E+01 0. -1.
        -11    1    4    4    0    0 -0.36185704902E+02  0.29365678111E+02 -0.69488717763E+02  0.83668573471E+02  0.00000000000E+00 0. -1.
         11    1    4    4    0    0  0.88186240117E+01 -0.30584640632E+02  0.30867781705E+01  0.31979940143E+02  0.00000000000E+00 0.  1.
</event>
<event>
 8    1  0.7136454E-009  0.1060100E+03  0.7561462E-02  0.1268142E+00
          2   -1    0    0  501    0  0.00000000000E+00  0.00000000000E+00  0.25950643660E+02  0.25950643660E+02  0.00000000000E+00 0. -1.
         -2   -1    0    0    0  501 -0.00000000000E+00 -0.00000000000E+00 -0.47053306920E+03  0.47053306920E+03  0.00000000000E+00 0.  1.
         25    2    1    2    0    0 -0.42192134786E+01 -0.57874038043E+01 -0.21186062793E+03  0.24613958729E+03  0.12509386458E+03 0.  0.
         23    2    1    2    0    0  0.42192134786E+01  0.57874038043E+01 -0.23272179761E+03  0.25034412558E+03  0.91986142022E+02 0.  0.
          5    1    3    3  502    0 -0.91331323348E+01 -0.64977764258E+02 -0.11259683946E+03  0.13038805394E+03  0.41800000000E+01 0.  1.
         -5    1    3    3    0  502  0.49139188562E+01  0.59190360454E+02 -0.99263788475E+02  0.11575153334E+03  0.41800000000E+01 0.  1.
        -11    1    4    4    0    0 -0.41140435219E+02  0.15006472351E+01 -0.15380557042E+03  0.15921978785E+03  0.00000000000E+00 0.  1.
         11    1    4    4    0    0  0.45359648698E+02  0.42867565692E+01 -0.78916227189E+02  0.91124337724E+02  0.00000000000E+00 0. -1.
</event>
<event>
 8    1  0.7136454E-009  0.1395896E+03  0.7561462E-02  0.1213882E+00
         -2   -1    0    0    0  501 -0.00000000000E+00  0.00000000000E+00  0.28373820307E+03  0.28373820307E+03  0.00000000000E+00 0. -1.
          2   -1    0    0  501    0  0.00000000000E+00 -0.00000000000E+00 -0.73572209846E+02  0.73572209846E+02  0.00000000000E+00 0.  1.
         25    2    1    2    0    0 -0.89890659724E+02 -0.16368399742E+02  0.15364650003E+03  0.21818039195E+03  0.12508869351E+03 0.  0.
         23    2    1    2    0    0  0.89890659724E+02  0.16368399742E+02  0.56519493197E+02  0.13913002097E+03  0.88399402753E+02 0.  0.
          5    1    3    3  502    0  0.27091639992E+02  0.15913010925E+02  0.46282717702E+02  0.56095839704E+02  0.41800000000E+01 0. -1.
         -5    1    3    3    0  502 -0.11698229972E+03 -0.32281410666E+02  0.10736378233E+03  0.16208455225E+03  0.41800000000E+01 0. -1.
        -11    1    4    4    0    0  0.10700397317E+03  0.88660318868E+01  0.41333831744E+02  0.11505191194E+03  0.00000000000E+00 0.  1.
         11    1    4    4    0    0 -0.17113313443E+02  0.75023678550E+01  0.15185661454E+02  0.24078109025E+02  0.00000000000E+00 0. -1.
</event>
<event>
 8    1  0.7136454E-009  0.2512865E+03  0.7561462E-02  0.1112494E+00
          1   -1    0    0  501    0  0.00000000000E+00  0.00000000000E+00  0.20789780699E+03  0.20789780699E+03  0.00000000000E+00 0. -1.
         -1   -1    0    0    0  501 -0.00000000000E+00 -0.00000000000E+00 -0.35276382647E+03  0.35276382647E+03  0.00000000000E+00 0.  1.
         25    2    1    2    0    0 -0.20213457424E+03  0.12088776849E+03  0.57242842919E+01  0.26675615638E+03  0.12511531026E+03 0.  0.
         23    2    1    2    0    0  0.20213457424E+03 -0.12088776849E+03 -0.15059030377E+03  0.29390547709E+03  0.90723487598E+02 0.  0.
          5    1    3    3  502    0 -0.84821234469E+02  0.11495586760E+03 -0.25411812289E+02  0.14516447884E+03  0.41800000000E+01 0.  1.
         -5    1    3    3    0  502 -0.11731333977E+03  0.59319008832E+01  0.31136096581E+02  0.12159167753E+03  0.41800000000E+01 0.  1.
        -11    1    4    4    0    0  0.11840055772E+03 -0.38144812879E+02 -0.11870737707E+03  0.17194522439E+03  0.00000000000E+00 0. -1.
         11    1    4    4    0    0  0.83734016514E+02 -0.82742955609E+02 -0.31882926702E+02  0.12196025270E+03  0.00000000000E+00 0.  1.
</event>
<event>
 8    1  0.7136454E-009  0.1415390E+03  0.7561462E-02  0.1211273E+00
          1   -1    0    0  501    0  0.00000000000E+00  0.00000000000E+00  0.38160160316E+03  0.38160160316E+03  0.00000000000E+00 0. -1.
         -1   -1    0    0    0  501 -0.00000000000E+00 -0.00000000000E+00 -0.64811320764E+02  0.64811320764E+02  0.00000000000E+00 0.  1.
         25    2    1    2    0    0 -0.56615950276E+02 -0.98198057164E+02  0.15868061182E+03  0.23167969552E+03  0.12509084895E+03 0.  0.
         23    2    1    2    0    0  0.56615950276E+02  0.98198057164E+02  0.15810967058E+03  0.21473322841E+03  0.90903614861E+02 0.  0.
          5    1    3    3  502    0 -0.70648938631E+02 -0.56415972383E+01  0.94079451174E+02  0.11786227421E+03  0.41800000000E+01 0.  1.
         -5    1    3    3    0  502  0.14032988355E+02 -0.92556459926E+02  0.64601160644E+02  0.11381742131E+03  0.41800000000E+01 0.  1.
        -11    1    4    4    0    0  0.25443412880E+02  0.75888515542E+02  0.37900618989E+02  0.88560098069E+02  0.00000000000E+00 0.  1.
         11    1    4    4    0    0  0.31172537397E+02  0.22309541622E+02  0.12020905159E+03  0.12617313034E+03  0.00000000000E+00 0. -1.
</event>
<event>
 8    1  0.7136454E-009  0.1180599E+03  0.7561462E-02  0.1246332E+00
         -2   -1    0    0    0  501 -0.00000000000E+00  0.00000000000E+00  0.44822855247E+02  0.44822855247E+02  0.00000000000E+00 0.  1.
          2   -1    0    0  501    0  0.00000000000E+00 -0.00000000000E+00 -0.89966282106E+03  0.89966282106E+03  0.00000000000E+00 0. -1.
         25    2    1    2    0    0  0.90495795097E+02  0.41272002619E+02 -0.76684129782E+03  0.78331699850E+03  0.12508827667E+03 0.  0.
         23    2    1    2    0    0 -0.90495795097E+02 -0.41272002619E+02 -0.87998667987E+02  0.16116867780E+03  0.91316537425E+02 0.  0.
          5    1    3    3  502    0  0.46045458492E+02  0.63162184142E+01 -0.66595382918E+03  0.66758673883E+03  0.41800000000E+01 0. -1.
         -5    1    3    3    0  502  0.44450336605E+02  0.34955784205E+02 -0.10088746864E+03  0.11573025967E+03  0.41800000000E+01 0. -1.
        -11    1    4    4    0    0 -0.43210870221E+02  0.26071279367E+02 -0.19500039730E+02  0.54103072579E+02  0.00000000000E+00 0.  1.
         11    1    4    4    0    0 -0.47284924876E+02 -0.67343281986E+02 -0.68498628257E+02  0.10706560523E+03  0.00000000000E+00 0. -1.
</event>
<event>
 8    1  0.7136454E-009  0.1533952E+03  0.7561462E-02  0.1196362E+00
         -2   -1    0    0    0  501 -0.00000000000E+00  0.00000000000E+00  0.15090541524E+03  0.15090541524E+03  0.00000000000E+00 0.  1.
          2   -1    0    0  501    0  0.00000000000E+00 -0.00000000000E+00 -0.18684520731E+03  0.18684520731E+03  0.00000000000E+00 0. -1.
         25    2    1    2    0    0  0.19561017843E+02  0.12622585209E+03 -0.61705683570E+02  0.18913104367E+03  0.12508941258E+03 0.  0.
         23    2    1    2    0    0 -0.19561017843E+02 -0.12622585209E+03  0.25765891505E+02  0.14861957888E+03  0.71472364635E+02 0.  0.
          5    1    3    3  502    0  0.29313382371E+02 -0.13270455402E+02 -0.33072121006E+02  0.46331597862E+02  0.41800000000E+01 0.  1.
         -5    1    3    3    0  502 -0.97523645283E+01  0.13949630749E+03 -0.28633562564E+02  0.14279944581E+03  0.41800000000E+01 0.  1.
        -11    1    4    4    0    0 -0.10041469503E+02 -0.24946981407E+01  0.22175831328E+02  0.24470842316E+02  0.00000000000E+00 0.  1.
         11    1    4    4    0    0 -0.95195483404E+01 -0.12373115395E+03  0.35900601775E+01  0.12414873657E+03  0.00000000000E+00 0. -1.
</event>
<event>
 8    1  0.7136454E-009  0.9017375E+02  0.7561462E-02  0.1302431E+00
          2   -1    0    0  501    0  0.00000000000E+00  0.00000000000E+00  0.37411525706E+03  0.37411525706E+03  0.00000000000E+00 0. -1.
         -2   -1    0    0    0  501 -0.00000000000E+00 -0.00000000000E+00 -0.44933501719E+02  0.44933501719E+02  0.00000000000E+00 0.  1.
         25    2    1    2    0    0  0.27152539858E+02  0.56055959500E+02  0.25240776717E+03  0.28850741755E+03  0.12508924028E+03 0.  0.
         23    2    1    2    0    0 -0.27152539858E+02 -0.56055959500E+02  0.76773988171E+02  0.13054134124E+03  0.85248258023E+02 0.  0.
          5    1    3    3  502    0 -0.27299122324E+02  0.43178935383E+02  0.21511041963E+03  0.22113260179E+03  0.41800000000E+01 0. -1.
         -5    1    3    3    0  502  0.54451662182E+02  0.12877024117E+02  0.37297347545E+02  0.67374815757E+02  0.41800000000E+01 0. -1.
        -11    1    4    4    0    0 -0.15547398393E+02 -0.58996361301E+02  0.89436889388E+01  0.61662645219E+02  0.00000000000E+00 0.  1.
         11    1    4    4    0    0 -0.11605141464E+02  0.29404018007E+01  0.67830299232E+02  0.68878696017E+02  0.00000000000E+00 0. -1.
</event>
<event>
 8    1  0.7136454E-009  0.1657091E+03  0.7561462E-02  0.1182398E+00
          2   -1    0    0  501    0  0.00000000000E+00  0.00000000000E+00  0.65363168943E+03  0.65363168943E+03  0.00000000000E+00 0. -1.
         -2   -1    0    0    0  501 -0.00000000000E+00 -0.00000000000E+00 -0.53105734649E+02  0.53105734649E+02  0.00000000000E+00 0.  1.
         25    2    1    2    0    0  0.91407835705E+02 -0.10543594670E+03  0.20615320761E+03  0.27860269315E+03  0.12509270297E+03 0.  0.
         23    2    1    2    0    0 -0.91407835705E+02  0.10543594670E+03  0.39437274717E+03  0.42813473093E+03  0.91089806437E+02 0.  0.
          5    1    3    3  502    0 -0.27061212095E+02 -0.37951744426E+02  0.80651363909E+02  0.93245691618E+02  0.41800000000E+01 0. -1.
         -5    1    3    3    0  502  0.11846904780E+03 -0.67484202271E+02  0.12550184370E+03  0.18535700153E+03  0.41800000000E+01 0. -1.
        -11    1    4    4    0    0 -0.23372808559E+02  0.64988407582E+02  0.88900295620E+02  0.11257461464E+03  0.00000000000E+00 0.  1.
         11    1    4    4    0    0 -0.68035027146E+02  0.40447539115E+02  0.30547245155E+03  0.31556011629E+03  0.00000000000E+00 0. -1.
</event>
<event>
 8    1  0.7136454E-009  0.1850435E+03  0.7561462E-02  0.1163009E+00
          1   -1    0    0  501    0  0.00000000000E+00  0.00000000000E+00  0.55972851646E+03  0.55972851646E+03  0.00000000000E+00 0. -1.
         -1   -1    0    0    0  501 -0.00000000000E+00 -0.00000000000E+00 -0.71114259785E+02  0.71114259785E+02  0.00000000000E+00 0.  1.
         25    2    1    2    0    0 -0.15867991643E+03  0.11239477268E+02  0.33626117940E+03  0.39245788757E+03  0.12508385594E+03 0.  0.
         23    2    1    2    0    0  0.15867991643E+03 -0.11239477268E+02  0.15235307727E+03  0.23838488867E+03  0.91160590527E+02 0.  0.
          5    1    3    3  502    0 -0.89130630846E+02  0.59430417846E+02  0.12402685934E+03  0.16394016640E+03  0.41800000000E+01 0.  1.
         -5    1    3    3    0  502 -0.69549285587E+02 -0.48190940578E+02  0.21223432006E+03  0.22851772117E+03  0.41800000000E+01 0.  1.
        -11    1    4    4    0    0  0.21004208946E+02  0.28000433724E+02  0.97841264629E+01  0.36344603627E+02  0.00000000000E+00 0.  1.
         11    1    4    4    0    0  0.13767570749E+03 -0.39239910992E+02  0.14256895081E+03  0.20204028505E+03  0.00000000000E+00 0. -1.
</event>
<event>
 8    1  0.7136454E-009  0.2819145E+03  0.7561462E-02  0.1094648E+00
          1   -1    0    0  501    0  0.00000000000E+00  0.00000000000E+00  0.40374921646E+03  0.40374921646E+03  0.00000000000E+00 0. -1.
         -1   -1    0    0    0  501 -0.00000000000E+00 -0.00000000000E+00 -0.23292117135E+03  0.23292117135E+03  0.00000000000E+00 0.  1.
         25    2    1    2    0    0  0.25080432876E+03 -0.11414810120E+03  0.42463438673E+01  0.30264994007E+03  0.12508538866E+03 0.  0.
         23    2    1    2    0    0 -0.25080432876E+03  0.11414810120E+03  0.16658170125E+03  0.33402044774E+03  0.88812138714E+02 0.  0.
          5    1    3    3  502    0  0.11084622639E+03 -0.23957250981E+02  0.58250787686E+02  0.12755964270E+03  0.41800000000E+01 0. -1.
         -5    1    3    3    0  502  0.13995810237E+03 -0.90190850222E+02 -0.54004443818E+02  0.17509029738E+03  0.41800000000E+01 0. -1.
        -11    1    4    4    0    0 -0.36276477276E+02 -0.76874541655E+01  0.46969288210E+02  0.59843076375E+02  0.00000000000E+00 0. -1.
         11    1    4    4    0    0 -0.21452785148E+03  0.12183555537E+03  0.11961241304E+03  0.27417737136E+03  0.00000000000E+00 0.  1.
</event>
<event>
 8    1  0.7136454E-009  0.9280155E+02  0.7561462E-02  0.1296206E+00
          3   -1    0    0  501    0  0.00000000000E+00  0.00000000000E+00  0.10426227502E+03  0.10426227502E+03  0.00000000000E+00 0. -1.
         -3   -1    0    0    0  501 -0.00000000000E+00 -0.00000000000E+00 -0.12907930365E+03  0.12907930365E+03  0.00000000000E+00 0.  1.
         25    2    1    2    0    0 -0.64297368840E+01  0.21511744658E+02  0.20459678391E+02  0.12871264655E+03  0.12507697736E+03 0.  0.
         23    2    1    2    0    0  0.64297368840E+01 -0.21511744658E+02 -0.45276707025E+02  0.10462893212E+03  0.91614063127E+02 0.  0.
          5    1    3    3  502    0 -0.37605685806E+02  0.43660961433E+02  0.52941722615E+02  0.78363036896E+02  0.41800000000E+01 0. -1.
         -5    1    3    3    0  502  0.31175948922E+02 -0.22149216775E+02 -0.32482044224E+02  0.50349609650E+02  0.41800000000E+01 0. -1.
        -11    1    4    4    0    0 -0.31413099866E+02  0.16701508063E+02 -0.34938186872E+02  0.49863815705E+02  0.00000000000E+00 0. -1.
         11    1    4    4    0    0  0.37842836750E+02 -0.38213252721E+02 -0.10338520153E+02  0.54765116414E+02  0.00000000000E+00 0.  1.
</event>
<event>
 8    1  0.7136454E-009  0.1465194E+03  0.7561462E-02  0.1204816E+00
          3   -1    0    0  501    0  0.00000000000E+00  0.00000000000E+00  0.39430644299E+03  0.39430644299E+03  0.00000000000E+00 0. -1.
         -3   -1    0    0    0  501 -0.00000000000E+00 -0.00000000000E+00 -0.76298158164E+02  0.76298158164E+02  0.00000000000E+00 0.  1.
         25    2    1    2    0    0  0.12447389899E+03  0.44838442521E+02  0.21001957763E+03  0.27795725227E+03  0.12509106141E+03 0.  0.
         23    2    1    2    0    0 -0.12447389899E+03 -0.44838442521E+02  0.10798870719E+03  0.19264734888E+03  0.89147084601E+02 0.  0.
          5    1    3    3  502    0  0.10193475461E+03  0.29156868923E+01  0.55410791144E+02  0.11613364544E+03  0.41800000000E+01 0. -1.
         -5    1    3    3    0  502  0.22539144380E+02  0.41922755628E+02  0.15460878649E+03  0.16182360683E+03  0.41800000000E+01 0. -1.
        -11    1    4    4    0    0 -0.11464612011E+03 -0.56610227879E+02  0.58076753277E+02  0.14043275981E+03  0.00000000000E+00 0.  1.
         11    1    4    4    0    0 -0.98277788789E+01  0.11771785358E+02  0.49911953915E+02  0.52214589071E+02  0.00000000000E+00 0. -1.
</event>
<event>
 8    1  0.7136454E-009  0.9306005E+02  0.7561462E-02  0.1295606E+00
          2   -1    0    0  501    0  0.00000000000E+00  0.00000000000E+00  0.22305464691E+03  0.22305464691E+03  0.00000000000E+00 0. -1.
         -2   -1    0    0    0  501 -0.00000000000E+00 -0.00000000000E+00 -0.84870576247E+02  0.84870576247E+02  0.00000000000E+00 0.  1.
         25    2    1    2    0    0 -0.24193562885E+02 -0.78720638884E+02  0.98449594388E+02  0.17922764400E+03  0.12509179936E+03 0.  0.
         23    2    1    2    0    0  0.24193562885E+02  0.78720638884E+02  0.39734476273E+02  0.12869757916E+03  0.90564732677E+02 0.  0.
          5    1    3    3  502    0  0.81776143662E+00 -0.31074660549E+02  0.11778909371E+03  0.12189358580E+03  0.41800000000E+01 0. -1.
         -5    1    3    3    0  502 -0.25011324322E+02 -0.47645978335E+02 -0.19339499319E+02  0.57334058201E+02  0.41800000000E+01 0. -1.
        -11    1    4    4    0    0  0.30111082850E+01 -0.95452821686E+01 -0.18371179556E+02  0.20920789255E+02  0.00000000000E+00 0.  1.
         11    1    4    4    0    0  0.21182454600E+02  0.88265921053E+02  0.58105655829E+02  0.10777678990E+03  0.00000000000E+00 0. -1.
</event>
<event>
 8    1  0.7136454E-009  0.7200116E+02  0.7561462E-02  0.1353417E+00
         -2   -1    0    0    0  501 -0.00000000000E+00  0.00000000000E+00  0.15771776375E+03  0.15771776375E+03  0.00000000000E+00 0. -1.
          2   -1    0    0  501    0  0.00000000000E+00 -0.00000000000E+00 -0.89585740905E+02  0.89585740905E+02  0.00000000000E+00 0.  1.
         25    2    1    2    0    0  0.14865826647E+02 -0.24861123582E+02  0.79088122519E+02  0.15080357987E+03  0.12509084823E+03 0.  0.
         23    2    1    2    0    0 -0.14865826647E+02  0.24861123582E+02 -0.10956099671E+02  0.96499924787E+02  0.91395465403E+02 0.  0.
          5    1    3    3  502    0  0.49571610865E+02 -0.44059635881E+02  0.87669499677E+02  0.11000913458E+03  0.41800000000E+01 0.  1.
         -5    1    3    3    0  502 -0.34705784217E+02  0.19198512298E+02 -0.85813771571E+01  0.40794445290E+02  0.41800000000E+01 0.  1.
        -11    1    4    4    0    0 -0.17402258607E+01  0.24474064240E+02 -0.49789326783E+02  0.55506623641E+02  0.00000000000E+00 0.  1.
         11    1    4    4    0    0 -0.13125600787E+02  0.38705934208E+00  0.38833227112E+02  0.40993301146E+02  0.00000000000E+00 0. -1.
</event>
<event>
 8    1  0.7136454E-009  0.7405720E+02  0.7561462E-02  0.1346816E+00
          2   -1    0    0  501    0  0.00000000000E+00  0.00000000000E+00  0.38745474442E+03  0.38745474442E+03  0.00000000000E+00 0. -1.
         -2   -1    0    0    0  501 -0.00000000000E+00 -0.00000000000E+00 -0.32888109950E+02  0.32888109950E+02  0.00000000000E+00 0.  1.
         25    2    1    2    0    0  0.13371327009E+02 -0.20679805914E+02  0.22632764722E+03  0.25976442576E+03  0.12508759426E+03 0.  0.
         23    2    1    2    0    0 -0.13371327009E+02  0.20679805914E+02  0.12823898725E+03  0.16057842861E+03  0.93454519011E+02 0.  0.
          5    1    3    3  502    0  0.11491364656E+02 -0.39998606241E+02  0.10631021453E+02  0.43155891603E+02  0.41800000000E+01 0.  1.
         -5    1    3    3    0  502  0.18799623525E+01  0.19318800327E+02  0.21569662577E+03  0.21660853416E+03  0.41800000000E+01 0.  1.
        -11    1    4    4    0    0  0.14506602774E+01  0.51875374928E+02  0.10975494460E+03  0.12140554684E+03  0.00000000000E+00 0. -1.
         11    1    4    4    0    0 -0.14821987286E+02 -0.31195569014E+02  0.18484042651E+02  0.39172881767E+02  0.00000000000E+00 0.  1.
</event>
<event>
 8    1  0.7136454E-009  0.9920846E+02  0.7561462E-02  0.1281969E+00
          1   -1    0    0  501    0  0.00000000000E+00  0.00000000000E+00  0.27190747674E+03  0.27190747674E+03  0.00000000000E+00 0. -1.
         -1   -1    0    0    0  501 -0.00000000000E+00 -0.00000000000E+00 -0.91488643441E+02  0.91488643441E+02  0.00000000000E+00 0.  1.
         25    2    1    2    0    0  0.49036548920E+02 -0.39843171831E+01 -0.21561198357E+02  0.13613290049E+03  0.12508726317E+03 0.  0.
         23    2    1    2    0    0 -0.49036548920E+02  0.39843171831E+01  0.20198003166E+03  0.22726321969E+03  0.91826901955E+02 0.  0.
          5    1    3    3  502    0  0.41288365932E+02 -0.39800544225E+02  0.35948276739E+02  0.67812708856E+02  0.41800000000E+01 0.  1.
         -5    1    3    3    0  502  0.77481829881E+01  0.35816227042E+02 -0.57509475096E+02  0.68320191634E+02  0.41800000000E+01 0.  1.
        -11    1    4    4    0    0 -0.48014551101E+02  0.43330036541E+02  0.11975063593E+03  0.13609961054E+03  0.00000000000E+00 0.  1.
         11    1    4    4    0    0 -0.10219978189E+01 -0.39345719358E+02  0.82229395734E+02  0.91163609155E+02  0.00000000000E+00 0. -1.
</event>
<event>
 8    1  0.7136454E-009  0.1602059E+03  0.7561462E-02  0.1188465E+00
          2   -1    0    0  501    0  0.00000000000E+00  0.00000000000E+00  0.24217424934E+03  0.24217424934E+03  0.00000000000E+00 0.  1.
         -2   -1    0    0    0  501 -0.00000000000E+00 -0.00000000000E+00 -0.38053894206E+03  0.38053894206E+03  0.00000000000E+00 0. -1.
         25    2    1    2    0    0 -0.12611099836E+03 -0.29956087053E+02 -0.32883511374E+03  0.37494219056E+03  0.12509101955E+03 0.  0.
         23    2    1    2    0    0  0.12611099836E+03  0.29956087053E+02  0.19047042102E+03  0.24777100085E+03  0.91159950186E+02 0.  0.
          5    1    3    3  502    0 -0.11030088957E+03  0.22086617898E+02 -0.14730390876E+03  0.18539152856E+03  0.41800000000E+01 0. -1.
         -5    1    3    3    0  502 -0.15810108798E+02 -0.52042704952E+02 -0.18153120498E+03  0.18955066199E+03  0.41800000000E+01 0. -1.
        -11    1    4    4    0    0  0.53842575188E+02  0.54845822765E+02  0.12687948510E+03  0.14834247847E+03  0.00000000000E+00 0.  1.
         11    1    4    4    0    0  0.72268423176E+02 -0.24889735711E+02  0.63590935915E+02  0.99428522380E+02  0.00000000000E+00 0. -1.
</event>
<event>
 8    1  0.7136454E-009  0.1107224E+03  0.7561462E-02  0.1259238E+00
          1   -1    0    0  501    0  0.00000000000E+00  0.00000000000E+00  0.18600043828E+03  0.18600043828E+03  0.00000000000E+00 0. -1.
         -1   -1    0    0    0  501 -0.00000000000E+00 -0.00000000000E+00 -0.12940737065E+03  0.12940737065E+03  0.00000000000E+00 0.  1.
         25    2    1    2    0    0 -0.90833642132E+02  0.30133028548E+02  0.86740575197E+02  0.17981630636E+03  0.12510486279E+03 0.  0.
         23    2    1    2    0    0  0.90833642132E+02 -0.30133028548E+02 -0.30147507569E+02  0.13559150258E+03  0.91199963848E+02 0.  0.
          5    1    3    3  502    0 -0.22798413054E+02  0.82403812193E+01  0.10342054301E+03  0.10630593886E+03  0.41800000000E+01 0. -1.
         -5    1    3    3    0  502 -0.68035229078E+02  0.21892647329E+02 -0.16679967815E+02  0.73510367494E+02  0.41800000000E+01 0. -1.
        -11    1    4    4    0    0  0.57535788352E+02  0.23478235182E+02 -0.36654330964E+02  0.72146617709E+02  0.00000000000E+00 0.  1.
         11    1    4    4    0    0  0.33297853780E+02 -0.53611263730E+02  0.65068233951E+01  0.63444884867E+02  0.00000000000E+00 0. -1.
</event>
<event>
 8    1  0.7136454E-009  0.1720350E+03  0.7561462E-02  0.1175742E+00
          1   -1    0    0  501    0  0.00000000000E+00  0.00000000000E+00  0.34643880317E+02  0.34643880317E+02  0.00000000000E+00 0. -1.
         -1   -1    0    0    0  501 -0.00000000000E+00 -0.00000000000E+00 -0.92290703898E+03  0.92290703898E+03  0.00000000000E+00 0.  1.
         25    2    1    2    0    0 -0.13236836678E+03  0.43087917086E+02 -0.53286396652E+03  0.56477439897E+03  0.12509261287E+03 0.  0.
         23    2    1    2    0    0  0.13236836678E+03 -0.43087917086E+02 -0.35539919214E+03  0.39277652032E+03  0.92665290274E+02 0.  0.
          5    1    3    3  502    0 -0.48389209178E+02  0.80129789046E+02 -0.30551658763E+03  0.31956244518E+03  0.41800000000E+01 0.  1.
         -5    1    3    3    0  502 -0.83979157600E+02 -0.37041871960E+02 -0.22734737889E+03  0.24521195379E+03  0.41800000000E+01 0.  1.
        -11    1    4    4    0    0  0.44536237581E+02 -0.53983510951E+02 -0.96779970683E+02  0.11943223450E+03  0.00000000000E+00 0. -1.
         11    1    4    4    0    0  0.87832129197E+02  0.10895593865E+02 -0.25861922145E+03  0.27334428582E+03  0.00000000000E+00 0.  1.
</event>
<event>
 8    1  0.7136454E-009  0.9397528E+02  0.7561462E-02  0.1293501E+00
         -2   -1    0    0    0  501 -0.00000000000E+00  0.00000000000E+00  0.43108680774E+02  0.43108680774E+02  0.00000000000E+00 0.  1.
          2   -1    0    0  501    0  0.00000000000E+00 -0.00000000000E+00 -0.33428059015E+03  0.33428059015E+03  0.00000000000E+00 0. -1.
         25    2    1    2    0    0  0.10191182261E+02 -0.52670775496E+02 -0.16944654495E+03  0.21734548605E+03  0.12509539529E+03 0.  0.
         23    2    1    2    0    0 -0.10191182261E+02  0.52670775496E+02 -0.12172536442E+03  0.16004378487E+03  0.88988077546E+02 0.  0.
          5    1    3    3  502    0 -0.26119706384E+02 -0.45679916560E+02 -0.17212384386E+03  0.18003606268E+03  0.41800000000E+01 0. -1.
         -5    1    3    3    0  502  0.36310888646E+02 -0.69908589365E+01  0.26772989095E+01  0.37309423372E+02  0.41800000000E+01 0. -1.
        -11    1    4    4    0    0 -0.43879654052E+02  0.46068807027E+02 -0.10265909677E+03  0.12077520097E+03  0.00000000000E+00 0.  1.
         11    1    4    4    0    0  0.33688471790E+02  0.66019684691E+01 -0.19066267653E+02  0.39268583899E+02  0.00000000000E+00 0. -1.
</event>
<event>
 8    1  0.7136454E-009  0.1069903E+03  0.7561462E-02  0.1266247E+00
          2   -1    0    0  501    0  0.00000000000E+00  0.00000000000E+00  0.13969552599E+04  0.13969552599E+04  0.00000000000E+00 0. -1.
         -2   -1    0    0    0  501 -0.00000000000E+00 -0.00000000000E+00 -0.21321901686E+02  0.21321901686E+02  0.00000000000E+00 0.  1.
         25    2    1    2    0    0 -0.54253885048E+02  0.52184494552E+02  0.11893266392E+04  0.11982539607E+04  0.12509194276E+03 0.  0.
         23    2    1    2    0    0  0.54253885048E+02 -0.52184494552E+02  0.18630671902E+03  0.22002320088E+03  0.89628733440E+02 0.  0.
          5    1    3    3  502    0 -0.63945361931E+02  0.69676346332E+02  0.11504343256E+04  0.11543224907E+04  0.41800000000E+01 0.  1.
         -5    1    3    3    0  502  0.96914768836E+01 -0.17491851780E+02  0.38892313584E+02  0.43931470028E+02  0.41800000000E+01 0.  1.
        -11    1    4    4    0    0  0.63592690606E+02 -0.21999503619E+02  0.17320654230E+03  0.18581849949E+03  0.00000000000E+00 0. -1.
         11    1    4    4    0    0 -0.93388055587E+01 -0.30184990933E+02  0.13100176723E+02  0.34204701388E+02  0.00000000000E+00 0.  1.
</event>
<event>
 8    1  0.7136454E-009  0.1177869E+03  0.7561462E-02  0.1246793E+00
          4   -1    0    0  501    0  0.00000000000E+00  0.00000000000E+00  0.10068207343E+03  0.10068207343E+03  0.00000000000E+00 0. -1.
         -4   -1    0    0    0  501 -0.00000000000E+00 -0.00000000000E+00 -0.22730761201E+03  0.22730761201E+03  0.00000000000E+00 0.  1.
         25    2    1    2    0    0 -0.93838665236E+02 -0.64154294049E+01 -0.11927926393E+03  0.19678728859E+03  0.12510332256E+03 0.  0.
         23    2    1    2    0    0  0.93838665236E+02  0.64154294049E+01 -0.73462746476E+01  0.13120239686E+03  0.91177016639E+02 0.  0.
          5    1    3    3  502    0 -0.13978823533E+02 -0.41259778416E+02 -0.97511059175E+02  0.10688150394E+03  0.41800000000E+01 0.  1.
         -5    1    3    3    0  502 -0.79859841703E+02  0.34844349012E+02 -0.21768204759E+02  0.89905784649E+02  0.41800000000E+01 0.  1.
        -11    1    4    4    0    0  0.83112602090E+01  0.16484859221E+02  0.31670096731E+02  0.36658186763E+02  0.00000000000E+00 0. -1.
         11    1    4    4    0    0  0.85527405027E+02 -0.10069429816E+02 -0.39016371379E+02  0.94544210098E+02  0.00000000000E+00 0.  1.
</event>
<event>
 8    1  0.7136454E-009  0.1731941E+03  0.7561462E-02  0.1174557E+00
         -2   -1    0    0    0  501 -0.00000000000E+00  0.00000000000E+00  0.65994615230E+02  0.65994615230E+02  0.00000000000E+00 0.  1.
          2   -1    0    0  501    0  0.00000000000E+00 -0.00000000000E+00 -0.68223559163E+03  0.68223559163E+03  0.00000000000E+00 0. -1.
         25    2    1    2    0    0  0.13453305534E+03  0.51551321464E+02 -0.52442584290E+03  0.55805600450E+03  0.12508939899E+03 0.  0.
         23    2    1    2    0    0 -0.13453305534E+03 -0.51551321464E+02 -0.91815133498E+02  0.19017420235E+03  0.83543562149E+02 0.  0.
          5    1    3    3  502    0 -0.22046040813E+02  0.13131298129E+02 -0.42099789487E+02  0.49480537396E+02  0.41800000000E+01 0. -1.
         -5    1    3    3    0  502  0.15657909616E+03  0.38420023335E+02 -0.48232605341E+03  0.50857546711E+03  0.41800000000E+01 0. -1.
        -11    1    4    4    0    0 -0.98250042792E+02 -0.67783025339E+02 -0.91542721940E+02  0.15042499584E+03  0.00000000000E+00 0. -1.
         11    1    4    4    0    0 -0.36283012550E+02  0.16231703875E+02 -0.27241155818E+00  0.39749206513E+02  0.00000000000E+00 0.  1.
</event>
<event>
 8    1  0.7136454E-009  0.8350401E+02  0.7561462E-02  0.1319392E+00
         -2   -1    0    0    0  501 -0.00000000000E+00  0.00000000000E+00  0.10108577155E+02  0.10108577155E+02  0.00000000000E+00 0.  1.
          2   -1    0    0  501    0  0.00000000000E+00 -0.00000000000E+00 -0.22147329942E+04  0.22147329942E+04  0.00000000000E+00 0. -1.
         25    2    1    2    0    0 -0.15009295024E+02 -0.73550562818E+01 -0.19525411268E+04  0.19566158223E+04  0.12509695523E+03 0.  0.
         23    2    1    2    0    0  0.15009295024E+02  0.73550562818E+01 -0.25208329018E+03  0.26822574905E+03  0.90109330679E+02 0.  0.
          5    1    3    3  502    0  0.34755347374E+02 -0.26373649753E+02 -0.29740233323E+03  0.30061457680E+03  0.41800000000E+01 0. -1.
         -5    1    3    3    0  502 -0.49764642397E+02  0.19018593471E+02 -0.16551387936E+04  0.16560012455E+04  0.41800000000E+01 0. -1.
        -11    1    4    4    0    0 -0.38042502758E+01 -0.28764395082E+02 -0.27488564867E+02  0.39968536914E+02  0.00000000000E+00 0.  1.
         11    1    4    4    0    0  0.18813545300E+02  0.36119451364E+02 -0.22459472532E+03  0.22825721214E+03  0.00000000000E+00 0. -1.
</event>
<event>
 8    1  0.7136454E-009  0.6994112E+02  0.7561462E-02  0.1360293E+00
          1   -1    0    0  501    0  0.00000000000E+00  0.00000000000E+00  0.35641115083E+03  0.35641115083E+03  0.00000000000E+00 0. -1.
         -1   -1    0    0    0  501 -0.00000000000E+00 -0.00000000000E+00 -0.39617854392E+02  0.39617854392E+02  0.00000000000E+00 0.  1.
         25    2    1    2    0    0  0.27231879085E+02 -0.48731835604E+01  0.24438137676E+03  0.27592613050E+03  0.12509056332E+03 0.  0.
         23    2    1    2    0    0 -0.27231879085E+02  0.48731835604E+01  0.72411919683E+02  0.12010287472E+03  0.91738166803E+02 0.  0.
          5    1    3    3  502    0 -0.41010939127E+01  0.17784179028E+02  0.23522743451E+03  0.23597142696E+03  0.41800000000E+01 0. -1.
         -5    1    3    3    0  502  0.31332972998E+02 -0.22657362588E+02  0.91539422463E+01  0.39954703540E+02  0.41800000000E+01 0. -1.
        -11    1    4    4    0    0 -0.25292006754E+02  0.39870427733E+02  0.70691698435E+02  0.85009722038E+02  0.00000000000E+00 0. -1.
         11    1    4    4    0    0 -0.19398723305E+01 -0.34997244173E+02  0.17202212476E+01  0.35093152686E+02  0.00000000000E+00 0.  1.
</event>
<event>
 8    1  0.7136454E-009  0.1936379E+03  0.7561462E-02  0.1155221E+00
         -2   -1    0    0    0  501 -0.00000000000E+00  0.00000000000E+00  0.31671871808E+03  0.31671871808E+03  0.00000000000E+00 0.  1.
          2   -1    0    0  501    0  0.00000000000E+00 -0.00000000000E+00 -0.13654408293E+03  0.13654408293E+03  0.00000000000E+00 0. -1.
         25    2    1    2    0    0  0.12898088043E+03 -0.11181605136E+03  0.98008566836E+02  0.23322052305E+03  0.12508891373E+03 0.  0.
         23    2    1    2    0    0 -0.12898088043E+03  0.11181605136E+03  0.82166068310E+02  0.22004227796E+03  0.11193053404E+03 0.  0.
          5    1    3    3  502    0 -0.21907783769E+02 -0.30864376559E+02  0.31710109218E+02  0.49553649277E+02  0.41800000000E+01 0. -1.
         -5    1    3    3    0  502  0.15088866420E+03 -0.80951674805E+02  0.66298457618E+02  0.18366687377E+03  0.41800000000E+01 0. -1.
        -11    1    4    4    0    0 -0.25503308395E+02 -0.81415658218E-01 -0.23425046028E+02  0.34628862947E+02  0.00000000000E+00 0. -1.
         11    1    4    4    0    0 -0.10347757204E+03  0.11189746702E+03  0.10559111434E+03  0.18541341502E+03  0.00000000000E+00 0.  1.
</event>
<event>
 8    1  0.7136454E-009  0.1291825E+03  0.7561462E-02  0.1228674E+00
          1   -1    0    0  501    0  0.00000000000E+00  0.00000000000E+00  0.25525696809E+03  0.25525696809E+03  0.00000000000E+00 0. -1.
         -1   -1    0    0    0  501 -0.00000000000E+00 -0.00000000000E+00 -0.82027617165E+02  0.82027617165E+02  0.00000000000E+00 0.  1.
         25    2    1    2    0    0  0.70761040984E+02  0.50691780582E+02  0.48174113160E+02  0.15982764629E+03  0.12508936725E+03 0.  0.
         23    2    1    2    0    0 -0.70761040984E+02 -0.50691780582E+02  0.12505523777E+03  0.17745693897E+03  0.90969067029E+02 0.  0.
          5    1    3    3  502    0  0.92095133709E+02  0.75359584354E+02  0.42690350318E+02  0.12649315799E+03  0.41800000000E+01 0.  1.
         -5    1    3    3    0  502 -0.21334092724E+02 -0.24667803773E+02  0.54837628422E+01  0.33334488300E+02  0.41800000000E+01 0.  1.
        -11    1    4    4    0    0 -0.29844030068E+02 -0.57642300461E+02  0.25755796767E+02  0.69833101036E+02  0.00000000000E+00 0. -1.
         11    1    4    4    0    0 -0.40917010916E+02  0.69505198794E+01  0.99299440999E+02  0.10762383793E+03  0.00000000000E+00 0.  1.
</event>
<event>
 8    1  0.7136454E-009  0.1111882E+03  0.7561462E-02  0.1258385E+00
         -1   -1    0    0    0  501 -0.00000000000E+00  0.00000000000E+00  0.67953721235E+02  0.67953721235E+02  0.00000000000E+00 0.  1.
          1   -1    0    0  501    0  0.00000000000E+00 -0.00000000000E+00 -0.22934210294E+03  0.22934210294E+03  0.00000000000E+00 0. -1.
         25    2    1    2    0    0 -0.34924013403E+02 -0.24669658253E+02 -0.14433059678E+03  0.19572293586E+03  0.12509143737E+03 0.  0.
         23    2    1    2    0    0  0.34924013403E+02  0.24669658253E+02 -0.17057784928E+02  0.10157288832E+03  0.90541729960E+02 0.  0.
          5    1    3    3  502    0  0.36232444441E+02 -0.40216677999E+02 -0.36095494086E+02  0.65196075900E+02  0.41800000000E+01 0.  1.
         -5    1    3    3    0  502 -0.71156457844E+02  0.15547019747E+02 -0.10823510269E+03  0.13052685996E+03  0.41800000000E+01 0.  1.
        -11    1    4    4    0    0 -0.26233180549E+02  0.21451759228E+02 -0.21562087570E+02  0.40165673853E+02  0.00000000000E+00 0. -1.
         11    1    4    4    0    0  0.61157193951E+02  0.32178990247E+01  0.45043026419E+01  0.61407214466E+02  0.00000000000E+00 0.  1.
</event>
<event>
 8    1  0.7136454E-009  0.1048768E+03  0.7561462E-02  0.1270363E+00
          2   -1    0    0  501    0  0.00000000000E+00  0.00000000000E+00  0.18862057249E+03  0.18862057249E+03  0.00000000000E+00 0. -1.
         -2   -1    0    0    0  501 -0.00000000000E+00 -0.00000000000E+00 -0.96152775721E+02  0.96152775721E+02  0.00000000000E+00 0.  1.
         25    2    1    2    0    0 -0.25270335220E+02  0.73612374626E+02  0.65708626420E+02  0.16131403825E+03  0.12508886365E+03 0.  0.
         23    2    1    2    0    0  0.25270335220E+02 -0.73612374626E+02  0.26759170348E+02  0.12345930996E+03  0.92025955458E+02 0.  0.
          5    1    3    3  502    0 -0.38381261627E+02  0.39596177679E+02 -0.27047776536E+02  0.61563245093E+02  0.41800000000E+01 0.  1.
         -5    1    3    3    0  502  0.13110926407E+02  0.34016196947E+02  0.92756402956E+02  0.99750793156E+02  0.41800000000E+01 0.  1.
        -11    1    4    4    0    0  0.22962584193E+02 -0.94241309663E+02  0.11460617389E+02  0.97673181942E+02  0.00000000000E+00 0.  1.
         11    1    4    4    0    0  0.23077510264E+01  0.20628935036E+02  0.15298552959E+02  0.25786128019E+02  0.00000000000E+00 0. -1.
</event>
<event>
 8    1  0.7136454E-009  0.1159454E+03  0.7561462E-02  0.1249940E+00
         -1   -1    0    0    0  501 -0.00000000000E+00  0.00000000000E+00  0.44587484209E+03  0.44587484209E+03  0.00000000000E+00 0.  1.
          1   -1    0    0  501    0  0.00000000000E+00 -0.00000000000E+00 -0.48612589290E+02  0.48612589290E+02  0.00000000000E+00 0. -1.
         25    2    1    2    0    0 -0.94902510142E+02 -0.46474130499E+01  0.17674527865E+03  0.23646553809E+03  0.12509585246E+03 0.  0.
         23    2    1    2    0    0  0.94902510142E+02  0.46474130499E+01  0.22051697415E+03  0.25802189328E+03  0.94442980925E+02 0.  0.
          5    1    3    3  502    0 -0.39003216450E+02  0.14052712899E+02  0.17223257738E+03  0.17720119284E+03  0.41800000000E+01 0.  1.
         -5    1    3    3    0  502 -0.55899293691E+02 -0.18700125949E+02  0.45127012702E+01  0.59264345255E+02  0.41800000000E+01 0.  1.
        -11    1    4    4    0    0 -0.23046570902E+01 -0.28374354357E+02  0.28495625008E+02  0.40279226334E+02  0.00000000000E+00 0. -1.
         11    1    4    4    0    0  0.97207167232E+02  0.33021767407E+02  0.19202134914E+03  0.21774266695E+03  0.00000000000E+00 0.  1.
</event>
<event>
 8    1  0.7136454E-009  0.1842858E+03  0.7561462E-02  0.1163719E+00
         -4   -1    0    0    0  501 -0.00000000000E+00  0.00000000000E+00  0.11440038222E+04  0.11440038222E+04  0.00000000000E+00 0. -1.
          4   -1    0    0  501    0  0.00000000000E+00 -0.00000000000E+00 -0.39436326400E+02  0.39436326400E+02  0.00000000000E+00 0.  1.
         25    2    1    2    0    0  0.16573764304E+03 -0.51958449245E+02  0.42214774647E+03  0.47331307157E+03  0.12509155490E+03 0.  0.
         23    2    1    2    0    0 -0.16573764304E+03  0.51958449245E+02  0.68241974930E+03  0.71012707699E+03  0.91733878540E+02 0.  0.
          5    1    3    3  502    0  0.15591035496E+03 -0.55313225789E+02  0.24405748536E+03  0.29487136228E+03  0.41800000000E+01 0.  1.
         -5    1    3    3    0  502  0.98272880864E+01  0.33547765447E+01  0.17809026110E+03  0.17844170930E+03  0.41800000000E+01 0.  1.
        -11    1    4    4    0    0 -0.10726596427E+03 -0.87290667273E+01  0.30552031639E+03  0.32392105122E+03  0.00000000000E+00 0. -1.
         11    1    4    4    0    0 -0.58471678770E+02  0.60687515972E+02  0.37689943291E+03  0.38620602577E+03  0.00000000000E+00 0.  1.
</event>
<event>
 8    1  0.7136454E-009  0.8106666E+02  0.7561462E-02  0.1326051E+00
          1   -1    0    0  501    0  0.00000000000E+00  0.00000000000E+00  0.77262689017E+02  0.77262689017E+02  0.00000000000E+00 0. -1.
         -1   -1    0    0    0  501 -0.00000000000E+00 -0.00000000000E+00 -0.17109072946E+03  0.17109072946E+03  0.00000000000E+00 0.  1.
         25    2    1    2    0    0 -0.36304163837E+01 -0.39183342219E+02 -0.31354735730E+02  0.13482988676E+03  0.12508982644E+03 0.  0.
         23    2    1    2    0    0  0.36304163837E+01  0.39183342219E+02 -0.62473304711E+02  0.11352353172E+03  0.86233196750E+02 0.  0.
          5    1    3    3  502    0 -0.70840129588E+01 -0.62085562645E+02 -0.67257098491E+02  0.91900979461E+02  0.41800000000E+01 0. -1.
         -5    1    3    3    0  502  0.34535965751E+01  0.22902220426E+02  0.35902362761E+02  0.42928907295E+02  0.41800000000E+01 0. -1.
        -11    1    4    4    0    0  0.34189858863E+02  0.16829982495E+02 -0.65246408361E+02  0.75559834329E+02  0.00000000000E+00 0.  1.
         11    1    4    4    0    0 -0.30559442479E+02  0.22353359724E+02  0.27731036503E+01  0.37963697389E+02  0.00000000000E+00 0. -1.
</event>
<event>
 8    1  0.7136454E-009  0.1172083E+03  0.7561462E-02  0.1247775E+00
          2   -1    0    0  501    0  0.00000000000E+00  0.00000000000E+00  0.11689135830E+04  0.11689135830E+04  0.00000000000E+00 0. -1.
         -2   -1    0    0    0  501 -0.00000000000E+00 -0.00000000000E+00 -0.12822975647E+02  0.12822975647E+02  0.00000000000E+00 0.  1.
         25    2    1    2    0    0 -0.14096684511E+02  0.58321487917E+02  0.68963552571E+03  0.70345101510E+03  0.12508421109E+03 0.  0.
         23    2    1    2    0    0  0.14096684511E+02 -0.58321487917E+02  0.46645508166E+03  0.47828554356E+03  0.87043698824E+02 0.  0.
          5    1    3    3  502    0 -0.41173128444E+02 -0.20439998000E+02  0.37962065582E+03  0.38241644153E+03  0.41800000000E+01 0.  1.
         -5    1    3    3    0  502  0.27076443933E+02  0.78761485917E+02  0.31001486988E+03  0.32103457357E+03  0.41800000000E+01 0.  1.
        -11    1    4    4    0    0  0.49055776594E+02 -0.47472674364E+02  0.27361851228E+03  0.28200569904E+03  0.00000000000E+00 0.  1.
         11    1    4    4    0    0 -0.34959092082E+02 -0.10848813553E+02  0.19283656938E+03  0.19627984452E+03  0.00000000000E+00 0. -1.
</event>
<event>
 8    1  0.7136454E-009  0.2604455E+03  0.7561462E-02  0.1106876E+00
         -1   -1    0    0    0  501 -0.00000000000E+00  0.00000000000E+00  0.48121005237E+02  0.48121005237E+02  0.00000000000E+00 0.  1.
          1   -1    0    0  501    0  0.00000000000E+00 -0.00000000000E+00 -0.15971248262E+04  0.15971248262E+04  0.00000000000E+00 0. -1.
         25    2    1    2    0    0 -0.25341342060E+02 -0.25110295024E+03 -0.67144607580E+03  0.72813575118E+03  0.12508782595E+03 0.  0.
         23    2    1    2    0    0  0.25341342060E+02  0.25110295024E+03 -0.87755774516E+03  0.91711008025E+03  0.85372290446E+02 0.  0.
          5    1    3    3  502    0 -0.29927546393E+02 -0.10052958822E+03 -0.43700640048E+03  0.44943734001E+03  0.41800000000E+01 0.  1.
         -5    1    3    3    0  502  0.45862043337E+01 -0.15057336202E+03 -0.23443967533E+03  0.27869841117E+03  0.41800000000E+01 0.  1.
        -11    1    4    4    0    0  0.52349425480E+02  0.11353342890E+03 -0.45748581822E+03  0.47426108389E+03  0.00000000000E+00 0.  1.
         11    1    4    4    0    0 -0.27008083421E+02  0.13756952134E+03 -0.42007192694E+03  0.44284899636E+03  0.00000000000E+00 0. -1.
</event>
<event>
 8    1  0.7136454E-009  0.1100725E+03  0.7561462E-02  0.1260436E+00
         -2   -1    0    0    0  501 -0.00000000000E+00  0.00000000000E+00  0.21872568130E+03  0.21872568130E+03  0.00000000000E+00 0.  1.
          2   -1    0    0  501    0  0.00000000000E+00 -0.00000000000E+00 -0.73542288945E+02  0.73542288945E+02  0.00000000000E+00 0. -1.
         25    2    1    2    0    0  0.26247352535E+02 -0.54258905933E+02  0.49263315567E+02  0.14733626925E+03  0.12509256407E+03 0.  0.
         23    2    1    2    0    0 -0.26247352535E+02  0.54258905933E+02  0.95920076787E+02  0.14493170100E+03  0.90396816510E+02 0.  0.
          5    1    3    3  502    0  0.38021205493E+02 -0.91485275072E+02  0.29998300084E+02  0.10359796345E+03  0.41800000000E+01 0. -1.
         -5    1    3    3    0  502 -0.11773852958E+02  0.37226369139E+02  0.19265015483E+02  0.43738305801E+02  0.41800000000E+01 0. -1.
        -11    1    4    4    0    0 -0.43612740057E+02  0.41137555810E+02  0.10534747695E+03  0.12121246014E+03  0.00000000000E+00 0.  1.
         11    1    4    4    0    0  0.17365387522E+02  0.13121350123E+02 -0.94274001671E+01  0.23719240855E+02  0.00000000000E+00 0. -1.
</event>
<event>
 8    1  0.7136454E-009  0.1136968E+03  0.7561462E-02  0.1253873E+00
         -1   -1    0    0    0  501 -0.00000000000E+00  0.00000000000E+00  0.13445714572E+03  0.13445714572E+03  0.00000000000E+00 0.  1.
          1   -1    0    0  501    0  0.00000000000E+00 -0.00000000000E+00 -0.13734776044E+03  0.13734776044E+03  0.00000000000E+00 0. -1.
         25    2    1    2    0    0  0.52879997822E+02 -0.42421489030E+02 -0.47014655323E+02  0.14986240576E+03  0.12510989547E+03 0.  0.
         23    2    1    2    0    0 -0.52879997822E+02  0.42421489030E+02  0.44124040600E+02  0.12194250040E+03  0.91253304288E+02 0.  0.
          5    1    3    3  502    0  0.47189306534E+02  0.38156027935E+02 -0.13508931740E+02  0.62311128667E+02  0.41800000000E+01 0. -1.
         -5    1    3    3    0  502  0.56906912878E+01 -0.80577516965E+02 -0.33505723583E+02  0.87551277092E+02  0.41800000000E+01 0. -1.
        -11    1    4    4    0    0 -0.43529124273E+02  0.54913888580E+02  0.65202403728E+02  0.95716630064E+02  0.00000000000E+00 0.  1.
         11    1    4    4    0    0 -0.93508735493E+01 -0.12492399550E+02 -0.21078363128E+02  0.26225870335E+02  0.00000000000E+00 0. -1.
</event>
<event>
 8    1  0.7136454E-009  0.1257967E+03  0.7561462E-02  0.1233829E+00
         -1   -1    0    0    0  501 -0.00000000000E+00  0.00000000000E+00  0.14440183349E+02  0.14440183349E+02  0.00000000000E+00 0.  1.
          1   -1    0    0  501    0  0.00000000000E+00 -0.00000000000E+00 -0.14264312894E+04  0.14264312894E+04  0.00000000000E+00 0. -1.
         25    2    1    2    0    0  0.53339634732E+02 -0.38980948219E+02 -0.11000483584E+04  0.11091069552E+04  0.12508883393E+03 0.  0.
         23    2    1    2    0    0 -0.53339634732E+02  0.38980948219E+02 -0.31194274769E+03  0.33176451756E+03  0.91623066495E+02 0.  0.
          5    1    3    3  502    0  0.89002796050E+02 -0.50321092718E+02 -0.72771956757E+03  0.73487886859E+03  0.41800000000E+01 0.  1.
         -5    1    3    3    0  502 -0.35663161318E+02  0.11340144499E+02 -0.37232879078E+03  0.37422808660E+03  0.41800000000E+01 0.  1.
        -11    1    4    4    0    0  0.24895248560E+02  0.17653982627E+02 -0.10982880714E+03  0.11399036530E+03  0.00000000000E+00 0.  1.
         11    1    4    4    0    0 -0.78234883292E+02  0.21326965592E+02 -0.20211394055E+03  0.21777415226E+03  0.00000000000E+00 0. -1.
</event>
<event>
 8    1  0.7136454E-009  0.6525370E+02  0.7561462E-02  0.1377020E+00
         -2   -1    0    0    0  501 -0.00000000000E+00  0.00000000000E+00  0.63003249042E+02  0.63003249042E+02  0.00000000000E+00 0. -1.
          2   -1    0    0  501    0  0.00000000000E+00 -0.00000000000E+00 -0.19617746269E+03  0.19617746269E+03  0.00000000000E+00 0.  1.
         25    2    1    2    0    0 -0.81507528638E+01 -0.27058551143E+02 -0.87755408278E+02  0.15539144807E+03  0.12508753131E+03 0.  0.
         23    2    1    2    0    0  0.81507528638E+01  0.27058551143E+02 -0.45418805371E+02  0.10378926366E+03  0.88942360029E+02 0.  0.
          5    1    3    3  502    0  0.36421002014E+02 -0.32104617236E+02  0.81729033488E+01  0.49411178742E+02  0.41800000000E+01 0. -1.
         -5    1    3    3    0  502 -0.44571754877E+02  0.50460660932E+01 -0.95928311626E+02  0.10598026933E+03  0.41800000000E+01 0. -1.
        -11    1    4    4    0    0  0.16490715061E+02  0.18157399092E+02  0.23398833980E+02  0.33898971322E+02  0.00000000000E+00 0. -1.
         11    1    4    4    0    0 -0.83399621973E+01  0.89011520503E+01 -0.68817639351E+02  0.69890292338E+02  0.00000000000E+00 0.  1.
</event>
<event>
 8    1  0.7136454E-009  0.8123528E+02  0.7561462E-02  0.1325582E+00
         -3   -1    0    0    0  501 -0.00000000000E+00  0.00000000000E+00  0.17644919278E+03  0.17644919278E+03  0.00000000000E+00 0.  1.
          3   -1    0    0  501    0  0.00000000000E+00 -0.00000000000E+00 -0.79445930109E+02  0.79445930109E+02  0.00000000000E+00 0. -1.
         25    2    1    2    0    0 -0.38400716648E+02  0.31150729927E+02  0.55297481027E+02  0.14543518788E+03  0.12509436218E+03 0.  0.
         23    2    1    2    0    0  0.38400716648E+02 -0.31150729927E+02  0.41705781641E+02  0.11045993501E+03  0.89537936129E+02 0.  0.
          5    1    3    3  502    0 -0.59295932846E+02  0.37048763767E+02 -0.15095285407E+02  0.71651647506E+02  0.41800000000E+01 0.  1.
         -5    1    3    3    0  502  0.20895216198E+02 -0.58980338401E+01  0.70392766435E+02  0.73783540370E+02  0.41800000000E+01 0.  1.
        -11    1    4    4    0    0 -0.68340326914E+00 -0.31225018978E+02  0.59743062243E+02  0.67414407484E+02  0.00000000000E+00 0.  1.
         11    1    4    4    0    0  0.39084119918E+02  0.74289051152E-01 -0.18037280602E+02  0.43045527527E+02  0.00000000000E+00 0. -1.
</event>
<event>
 8    1  0.7136454E-009  0.7542940E+02  0.7561462E-02  0.1342546E+00
          2   -1    0    0  501    0  0.00000000000E+00  0.00000000000E+00  0.27551517072E+03  0.27551517072E+03  0.00000000000E+00 0. -1.
         -2   -1    0    0    0  501 -0.00000000000E+00 -0.00000000000E+00 -0.55432983160E+02  0.55432983160E+02  0.00000000000E+00 0.  1.
         25    2    1    2    0    0  0.30638182730E+02 -0.16600141388E+02  0.59596276671E+02  0.14287586607E+03  0.12509010343E+03 0.  0.
         23    2    1    2    0    0 -0.30638182730E+02  0.16600141388E+02  0.16048591089E+03  0.18807228782E+03  0.91658032459E+02 0.  0.
          5    1    3    3  502    0  0.33254770342E+02  0.19997002492E+02  0.88014046197E+02  0.96279305082E+02  0.41800000000E+01 0. -1.
         -5    1    3    3    0  502 -0.26165876114E+01 -0.36597143880E+02 -0.28417769526E+02  0.46596560986E+02  0.41800000000E+01 0. -1.
        -11    1    4    4    0    0 -0.35579791833E+02 -0.18053552725E+02  0.22687594356E+02  0.45897486756E+02  0.00000000000E+00 0.  1.
         11    1    4    4    0    0  0.49416091027E+01  0.34653694112E+02  0.13779831654E+03  0.14217480106E+03  0.00000000000E+00 0. -1.
</event>
<event>
 8    1  0.7136454E-009  0.1081089E+03  0.7561462E-02  0.1264112E+00
         -2   -1    0    0    0  501 -0.00000000000E+00  0.00000000000E+00  0.19383381730E+03  0.19383381730E+03  0.00000000000E+00 0.  1.
          2   -1    0    0  501    0  0.00000000000E+00 -0.00000000000E+00 -0.81290342832E+02  0.81290342832E+02  0.00000000000E+00 0. -1.
         25    2    1    2    0    0  0.15178966060E+02 -0.51637864648E+02  0.99997130102E+02  0.16895102312E+03  0.12509257416E+03 0.  0.
         23    2    1    2    0    0 -0.15178966060E+02  0.51637864648E+02  0.12546344361E+02  0.10617313700E+03  0.90655690324E+02 0.  0.
          5    1    3    3  502    0 -0.32175357955E+02  0.16067637255E+02 -0.35892612649E+01  0.36383757680E+02  0.41800000000E+01 0.  1.
         -5    1    3    3    0  502  0.47354324015E+02 -0.67705501903E+02  0.10358639137E+03  0.13256726544E+03  0.41800000000E+01 0.  1.
        -11    1    4    4    0    0 -0.36356573358E+02  0.63380873631E+02 -0.91765735650E+01  0.73642006158E+02  0.00000000000E+00 0. -1.
         11    1    4    4    0    0  0.21177607298E+02 -0.11743008983E+02  0.21722917926E+02  0.32531130845E+02  0.00000000000E+00 0.  1.
</event>
<event>
 8    1  0.7136454E-009  0.8980890E+02  0.7561462E-02  0.1303315E+00
          2   -1    0    0  501    0  0.00000000000E+00  0.00000000000E+00  0.23472924063E+03  0.23472924063E+03  0.00000000000E+00 0. -1.
         -2   -1    0    0    0  501 -0.00000000000E+00 -0.00000000000E+00 -0.70819093878E+02  0.70819093878E+02  0.00000000000E+00 0.  1.
         25    2    1    2    0    0  0.52377991592E+02  0.90768160740E+01  0.38912487626E+02  0.14137722016E+03  0.12508994402E+03 0.  0.
         23    2    1    2    0    0 -0.52377991592E+02 -0.90768160740E+01  0.12499765913E+03  0.16417111435E+03  0.92205734125E+02 0.  0.
          5    1    3    3  502    0  0.39513628923E+02 -0.27181844334E+02  0.74566615680E+02  0.88757152422E+02  0.41800000000E+01 0.  1.
         -5    1    3    3    0  502  0.12864362668E+02  0.36258660408E+02 -0.35654128054E+02  0.52620067738E+02  0.41800000000E+01 0.  1.
        -11    1    4    4    0    0  0.65098205150E+01 -0.29682079513E+02  0.84482550529E+02  0.89781428766E+02  0.00000000000E+00 0. -1.
         11    1    4    4    0    0 -0.58887812107E+02  0.20605263439E+02  0.40515108596E+02  0.74389685580E+02  0.00000000000E+00 0.  1.
</event>
<event>
 8    1  0.7136454E-009  0.8761050E+02  0.7561462E-02  0.1308744E+00
          2   -1    0    0  501    0  0.00000000000E+00  0.00000000000E+00  0.38788206938E+03  0.38788206938E+03  0.00000000000E+00 0. -1.
         -2   -1    0    0    0  501 -0.00000000000E+00 -0.00000000000E+00 -0.48180590599E+02  0.48180590599E+02  0.00000000000E+00 0.  1.
         25    2    1    2    0    0 -0.22414238559E+02 -0.40061135835E+02  0.77409202373E+02  0.15410085676E+03  0.12509035434E+03 0.  0.
         23    2    1    2    0    0  0.22414238559E+02  0.40061135835E+02  0.26229227641E+03  0.28196180322E+03  0.92725010200E+02 0.  0.
          5    1    3    3  502    0  0.41202400487E+02 -0.22222820387E+02  0.74184832994E+02  0.87820005684E+02  0.41800000000E+01 0. -1.
         -5    1    3    3    0  502 -0.63616639046E+02 -0.17838315448E+02  0.32243693787E+01  0.66280851077E+02  0.41800000000E+01 0. -1.
        -11    1    4    4    0    0  0.17426390270E+02 -0.38325236882E+01  0.20082157064E+01  0.17955507399E+02  0.00000000000E+00 0.  1.
         11    1    4    4    0    0  0.49878482894E+01  0.43893659523E+02  0.26028406070E+03  0.26400629582E+03  0.00000000000E+00 0. -1.
</event>
<event>
 8    1  0.7136454E-009  0.9549714E+02  0.7561462E-02  0.1290060E+00
         -2   -1    0    0    0  501 -0.00000000000E+00  0.00000000000E+00  0.33120938576E+03  0.33120938576E+03  0.00000000000E+00 0.  1.
          2   -1    0    0  501    0  0.00000000000E+00 -0.00000000000E+00 -0.43193909021E+02  0.43193909021E+02  0.00000000000E+00 0. -1.
         25    2    1    2    0    0  0.16430488564E+02 -0.47545981847E+02  0.17255422083E+03  0.21898322611E+03  0.12509241721E+03 0.  0.
         23    2    1    2    0    0 -0.16430488564E+02  0.47545981847E+02  0.11546125590E+03  0.15542006867E+03  0.91068736606E+02 0.  0.
          5    1    3    3  502    0  0.42755098183E+02 -0.12618252051E+02  0.16908216502E+03  0.17490989004E+03  0.41800000000E+01 0. -1.
         -5    1    3    3    0  502 -0.26324609619E+02 -0.34927729796E+02  0.34720558106E+01  0.44073336064E+02  0.41800000000E+01 0. -1.
        -11    1    4    4    0    0 -0.20015448552E+02 -0.23658537952E+02  0.48845185592E+02  0.57846320144E+02  0.00000000000E+00 0.  1.
         11    1    4    4    0    0  0.35849599878E+01  0.71204519799E+02  0.66616070311E+02  0.97573748527E+02  0.00000000000E+00 0. -1.
</event>
<event>
 8    1  0.7136454E-009  0.9735396E+02  0.7561462E-02  0.1285961E+00
          2   -1    0    0  501    0  0.00000000000E+00  0.00000000000E+00  0.44720759493E+02  0.44720759493E+02  0.00000000000E+00 0. -1.
         -2   -1    0    0    0  501 -0.00000000000E+00 -0.00000000000E+00 -0.29509977545E+03  0.29509977545E+03  0.00000000000E+00 0.  1.
         25    2    1    2    0    0 -0.19649727819E+02  0.17284966311E+02 -0.18216114804E+03  0.22251995674E+03  0.12509022915E+03 0.  0.
         23    2    1    2    0    0  0.19649727819E+02 -0.17284966311E+02 -0.68217867920E+02  0.11730057821E+03  0.91765278187E+02 0.  0.
          5    1    3    3  502    0  0.88080984919E+01 -0.37290594269E+02 -0.14602059426E+03  0.15102204265E+03  0.41800000000E+01 0. -1.
         -5    1    3    3    0  502 -0.28457826310E+02  0.54575560579E+02 -0.36140553783E+02  0.71497914086E+02  0.41800000000E+01 0. -1.
        -11    1    4    4    0    0 -0.35900707224E+02  0.12189100936E+01 -0.34126524207E+02  0.49547615235E+02  0.00000000000E+00 0. -1.
         11    1    4    4    0    0  0.55550435043E+02 -0.18503876404E+02 -0.34091343713E+02  0.67752962973E+02  0.00000000000E+00 0.  1.
</event>
<event>
 8    1  0.7136454E-009  0.9992509E+02  0.7561462E-02  0.1280454E+00
         -1   -1    0    0    0  501 -0.00000000000E+00  0.00000000000E+00  0.58285386396E+02  0.58285386396E+02  0.00000000000E+00 0.  1.
          1   -1    0    0  501    0  0.00000000000E+00 -0.00000000000E+00 -0.45413497280E+03  0.45413497280E+03  0.00000000000E+00 0. -1.
         25    2    1    2    0    0 -0.29350445923E+02 -0.54814093523E+02 -0.37496495258E+03  0.40014158928E+03  0.12509413368E+03 0.  0.
         23    2    1    2    0    0  0.29350445923E+02  0.54814093523E+02 -0.20884633820E+02  0.11227876992E+03  0.91128045734E+02 0.  0.
          5    1    3    3  502    0  0.27730530977E+02 -0.20528601578E+02 -0.22464086491E+02  0.41382525453E+02  0.41800000000E+01 0. -1.
         -5    1    3    3    0  502 -0.57080976900E+02 -0.34285491945E+02 -0.35250086609E+03  0.35875906382E+03  0.41800000000E+01 0. -1.
        -11    1    4    4    0    0 -0.25782610482E+02  0.23970375546E+02  0.16492232630E+02  0.38875643328E+02  0.00000000000E+00 0.  1.
         11    1    4    4    0    0  0.55133056405E+02  0.30843717977E+02 -0.37376866450E+02  0.73403126587E+02  0.00000000000E+00 0. -1.
</event>
<event>
 8    1  0.7136454E-009  0.1173444E+03  0.7561462E-02  0.1247543E+00
          1   -1    0    0  501    0  0.00000000000E+00  0.00000000000E+00  0.60942911109E+03  0.60942911109E+03  0.00000000000E+00 0. -1.
         -1   -1    0    0    0  501 -0.00000000000E+00 -0.00000000000E+00 -0.24632225126E+02  0.24632225126E+02  0.00000000000E+00 0.  1.
         25    2    1    2    0    0 -0.46022865118E+02 -0.19860827966E+02  0.41055394099E+03  0.43210344216E+03  0.12508512965E+03 0.  0.
         23    2    1    2    0    0  0.46022865118E+02  0.19860827966E+02  0.17424294497E+03  0.20195789406E+03  0.88959712787E+02 0.  0.
          5    1    3    3  502    0 -0.86928095359E+02  0.41704108570E+01  0.26482326775E+03  0.27878795102E+03  0.41800000000E+01 0. -1.
         -5    1    3    3    0  502  0.40905230241E+02 -0.24031238823E+02  0.14573067324E+03  0.15331549114E+03  0.41800000000E+01 0. -1.
        -11    1    4    4    0    0  0.12743902012E+02  0.52078705650E+02  0.72535740838E+02  0.90199957426E+02  0.00000000000E+00 0.  1.
         11    1    4    4    0    0  0.33278963106E+02 -0.32217877684E+02  0.10170720413E+03  0.11175793663E+03  0.00000000000E+00 0. -1.
</event>
<event>
 8    1  0.7136454E-009  0.1032321E+03  0.7561462E-02  0.1273643E+00
          2   -1    0    0  501    0  0.00000000000E+00  0.00000000000E+00  0.10280767599E+03  0.10280767599E+03  0.00000000000E+00 0. -1.
         -2   -1    0    0    0  501 -0.00000000000E+00 -0.00000000000E+00 -0.14846460909E+03  0.14846460909E+03  0.00000000000E+00 0.  1.
         25    2    1    2    0    0 -0.84056253355E+01  0.14063324202E+02  0.18235481276E+02  0.12747074691E+03  0.12509127434E+03 0.  0.
         23    2    1    2    0    0  0.84056253355E+01 -0.14063324202E+02 -0.63892414370E+02  0.12380153816E+03  0.10476711608E+03 0.  0.
          5    1    3    3  502    0  0.34116675359E+02 -0.40025516992E+02  0.24670924946E+02  0.58241879140E+02  0.41800000000E+01 0.  1.
         -5    1    3    3    0  502 -0.42522300695E+02  0.54088841195E+02 -0.64354436700E+01  0.69228867775E+02  0.41800000000E+01 0.  1.
        -11    1    4    4    0    0  0.11640843493E+02 -0.48657891419E+02 -0.72423322023E+02  0.88024071750E+02  0.00000000000E+00 0.  1.
         11    1    4    4    0    0 -0.32352181575E+01  0.34594567217E+02  0.85309076525E+01  0.35777466412E+02  0.00000000000E+00 0. -1.
</event>
<event>
 8    1  0.7136454E-009  0.2167928E+03  0.7561462E-02  0.1136297E+00
         -4   -1    0    0    0  501 -0.00000000000E+00  0.00000000000E+00  0.32591169289E+03  0.32591169289E+03  0.00000000000E+00 0.  1.
          4   -1    0    0  501    0  0.00000000000E+00 -0.00000000000E+00 -0.21342220171E+03  0.21342220171E+03  0.00000000000E+00 0. -1.
         25    2    1    2    0    0 -0.15668737752E+03 -0.12369586833E+03  0.19227965809E+03  0.30408957562E+03  0.12508957177E+03 0.  0.
         23    2    1    2    0    0  0.15668737752E+03  0.12369586833E+03 -0.79790166914E+02  0.23524431899E+03  0.95508202595E+02 0.  0.
          5    1    3    3  502    0 -0.17567232781E+03 -0.98844321220E+02  0.14979929306E+03  0.25117377888E+03  0.41800000000E+01 0.  1.
         -5    1    3    3    0  502  0.18984950286E+02 -0.24851547105E+02  0.42480365033E+02  0.52915796736E+02  0.41800000000E+01 0.  1.
        -11    1    4    4    0    0  0.54502032318E+02  0.32492106615E+02 -0.74935412405E+02  0.98191265148E+02  0.00000000000E+00 0. -1.
         11    1    4    4    0    0  0.10218534521E+03  0.91203761710E+02 -0.48547545091E+01  0.13705305384E+03  0.00000000000E+00 0.  1.
</event>
<event>
 8    1  0.7136454E-009  0.7209287E+02  0.7561462E-02  0.1353117E+00
         -1   -1    0    0    0  501 -0.00000000000E+00  0.00000000000E+00  0.59823801171E+02  0.59823801171E+02  0.00000000000E+00 0.  1.
          1   -1    0    0  501    0  0.00000000000E+00 -0.00000000000E+00 -0.60517372977E+03  0.60517372977E+03  0.00000000000E+00 0. -1.
         25    2    1    2    0    0 -0.34483969720E+02  0.14792128998E+02 -0.22078821796E+02  0.13244802936E+03  0.12508818833E+03 0.  0.
         23    2    1    2    0    0  0.34483969720E+02 -0.14792128998E+02 -0.52327110680E+03  0.53254950158E+03  0.91588040563E+02 0.  0.
          5    1    3    3  502    0  0.24336909115E+01  0.57888339629E+01 -0.70417000730E+02  0.70819911338E+02  0.41800000000E+01 0. -1.
         -5    1    3    3    0  502 -0.36917660632E+02  0.90032950352E+01  0.48338178934E+02  0.61628118020E+02  0.41800000000E+01 0. -1.
        -11    1    4    4    0    0  0.65803708832E+02 -0.72795944505E+01 -0.37762947219E+03  0.38338901765E+03  0.00000000000E+00 0. -1.
         11    1    4    4    0    0 -0.31319739111E+02 -0.75125345477E+01 -0.14564163461E+03  0.14916048393E+03  0.00000000000E+00 0.  1.
</event>
<event>
 8    1  0.7136454E-009  0.1478478E+03  0.7561462E-02  0.1203143E+00
          1   -1    0    0  501    0  0.00000000000E+00  0.00000000000E+00  0.12114031287E+03  0.12114031287E+03  0.00000000000E+00 0. -1.
         -1   -1    0    0    0  501 -0.00000000000E+00 -0.00000000000E+00 -0.35088037384E+03  0.35088037384E+03  0.00000000000E+00 0.  1.
         25    2    1    2    0    0  0.96786822360E+02  0.68424857147E+02  0.27948500141E+02  0.17458006512E+03  0.12508968950E+03 0.  0.
         23    2    1    2    0    0 -0.96786822360E+02 -0.68424857147E+02 -0.25768856111E+03  0.29744062158E+03  0.89542608750E+02 0.  0.
          5    1    3    3  502    0  0.10979578346E+03  0.27514692840E+02  0.52616447217E+02  0.12489249499E+03  0.41800000000E+01 0.  1.
         -5    1    3    3    0  502 -0.13008961100E+02  0.40910164306E+02 -0.24667947076E+02  0.49687570130E+02  0.41800000000E+01 0.  1.
        -11    1    4    4    0    0 -0.10320026545E+03 -0.76876077613E+02 -0.25623225858E+03  0.28673192434E+03  0.00000000000E+00 0.  1.
         11    1    4    4    0    0  0.64134430875E+01  0.84512204664E+01 -0.14563025312E+01  0.10708697244E+02  0.00000000000E+00 0. -1.
</event>
<event>
 8    1  0.7136454E-009  0.1105298E+03  0.7561462E-02  0.1259592E+00
          2   -1    0    0  501    0  0.00000000000E+00  0.00000000000E+00  0.10626146226E+03  0.10626146226E+03  0.00000000000E+00 0. -1.
         -2   -1    0    0    0  501 -0.00000000000E+00 -0.00000000000E+00 -0.24771155681E+03  0.24771155681E+03  0.00000000000E+00 0.  1.
         25    2    1    2    0    0 -0.52687573952E+01 -0.89898357717E+02 -0.16446825316E+03  0.22540351947E+03  0.12508983080E+03 0.  0.
         23    2    1    2    0    0  0.52687573952E+01  0.89898357717E+02  0.23018158608E+02  0.12856949959E+03  0.88830209243E+02 0.  0.
          5    1    3    3  502    0  0.70089929534E+01 -0.80240281520E+02 -0.18349202243E+03  0.20043558430E+03  0.41800000000E+01 0.  1.
         -5    1    3    3    0  502 -0.12277750349E+02 -0.96580761963E+01  0.19023769268E+02  0.24967935169E+02  0.41800000000E+01 0.  1.
        -11    1    4    4    0    0  0.39125418488E+02  0.14753149642E+02 -0.35707315031E+01  0.41966700129E+02  0.00000000000E+00 0.  1.
         11    1    4    4    0    0 -0.33856661093E+02  0.75145208074E+02  0.26588890111E+02  0.86602799460E+02  0.00000000000E+00 0. -1.
</event>
<event>
 8    1  0.7136454E-009  0.8379508E+02  0.7561462E-02  0.1318614E+00
          1   -1    0    0  501    0  0.00000000000E+00  0.00000000000E+00  0.17313204965E+03  0.17313204965E+03  0.00000000000E+00 0. -1.
         -1   -1    0    0    0  501 -0.00000000000E+00 -0.00000000000E+00 -0.72867850760E+02  0.72867850760E+02  0.00000000000E+00 0.  1.
         25    2    1    2    0    0  0.94530024412E+01 -0.27028562071E+02  0.67690151127E+02  0.14508499545E+03  0.12509115446E+03 0.  0.
         23    2    1    2    0    0 -0.94530024412E+01  0.27028562071E+02  0.32574047764E+02  0.10091490496E+03  0.91119959570E+02 0.  0.
          5    1    3    3  502    0 -0.31409331660E+02 -0.41859198488E+02  0.83506254062E+02  0.98638255666E+02  0.41800000000E+01 0. -1.
         -5    1    3    3    0  502  0.40862334101E+02  0.14830636418E+02 -0.15816102935E+02  0.46446739787E+02  0.41800000000E+01 0. -1.
        -11    1    4    4    0    0  0.72330753367E+01  0.45763337375E+02  0.51659467133E+02  0.69392369688E+02  0.00000000000E+00 0. -1.
         11    1    4    4    0    0 -0.16686077778E+02 -0.18734775304E+02 -0.19085419369E+02  0.31522535269E+02  0.00000000000E+00 0.  1.
</event>
<event>
 8    1  0.7136454E-009  0.1060533E+03  0.7561462E-02  0.1268058E+00
         -1   -1    0    0    0  501 -0.00000000000E+00  0.00000000000E+00  0.40261972698E+03  0.40261972698E+03  0.00000000000E+00 0.  1.
          1   -1    0    0  501    0  0.00000000000E+00 -0.00000000000E+00 -0.36679979486E+02  0.36679979486E+02  0.00000000000E+00 0. -1.
         25    2    1    2    0    0  0.25114594577E+02 -0.21723670304E+02  0.12575170191E+03  0.18046374070E+03  0.12510399859E+03 0.  0.
         23    2    1    2    0    0 -0.25114594577E+02  0.21723670304E+02  0.24018804559E+03  0.25883596577E+03  0.90570962343E+02 0.  0.
          5    1    3    3  502    0  0.70446512222E+02 -0.43395781282E+01  0.10700011571E+03  0.12824991300E+03  0.41800000000E+01 0. -1.
         -5    1    3    3    0  502 -0.45331917645E+02 -0.17384092176E+02  0.18751586197E+02  0.52213827700E+02  0.41800000000E+01 0. -1.
        -11    1    4    4    0    0 -0.10327195478E+02  0.55156707653E+02  0.10829318568E+03  0.12196855099E+03  0.00000000000E+00 0. -1.
         11    1    4    4    0    0 -0.14787399098E+02 -0.33433037348E+02  0.13189485991E+03  0.13686741478E+03  0.00000000000E+00 0.  1.
</event>
<event>
 8    1  0.7136454E-009  0.1505391E+03  0.7561462E-02  0.1199812E+00
         -1   -1    0    0    0  501 -0.00000000000E+00  0.00000000000E+00  0.17797838815E+02  0.17797838815E+02  0.00000000000E+00 0.  1.
          1   -1    0    0  501    0  0.00000000000E+00 -0.00000000000E+00 -0.15625167649E+04  0.15625167649E+04  0.00000000000E+00 0. -1.
         25    2    1    2    0    0 -0.26031088041E+01 -0.11726183277E+03 -0.10389993515E+04  0.10530549954E+04  0.12509219488E+03 0.  0.
         23    2    1    2    0    0  0.26031088041E+01  0.11726183277E+03 -0.50571957456E+03  0.52725960834E+03  0.92159062992E+02 0.  0.
          5    1    3    3  502    0 -0.48585789173E+02 -0.80794284786E+02 -0.38430867053E+03  0.39572581671E+03  0.41800000000E+01 0.  1.
         -5    1    3    3    0  502  0.45982680369E+02 -0.36467547984E+02 -0.65469068099E+03  0.65732917866E+03  0.41800000000E+01 0.  1.
        -11    1    4    4    0    0  0.46213470448E+02  0.54684971787E+02 -0.21035879881E+03  0.22220925999E+03  0.00000000000E+00 0.  1.
         11    1    4    4    0    0 -0.43610361644E+02  0.62576860983E+02 -0.29536077575E+03  0.30505034835E+03  0.00000000000E+00 0. -1.
</event>
<event>
 8    1  0.7136454E-009  0.1675930E+03  0.7561462E-02  0.1180382E+00
         -1   -1    0    0    0  501 -0.00000000000E+00  0.00000000000E+00  0.26787047901E+03  0.26787047901E+03  0.00000000000E+00 0.  1.
          1   -1    0    0  501    0  0.00000000000E+00 -0.00000000000E+00 -0.14577990295E+03  0.14577990295E+03  0.00000000000E+00 0. -1.
         25    2    1    2    0    0 -0.28472137792E+02  0.12579855536E+03 -0.43652149533E+02  0.18490342469E+03  0.12509127525E+03 0.  0.
         23    2    1    2    0    0  0.28472137792E+02 -0.12579855536E+03  0.16574272559E+03  0.22874695726E+03  0.90656385379E+02 0.  0.
          5    1    3    3  502    0 -0.53956006332E+02  0.32959626019E+01 -0.17818389013E+02  0.57070845235E+02  0.41800000000E+01 0.  1.
         -5    1    3    3    0  502  0.25483868541E+02  0.12250259276E+03 -0.25833760520E+02  0.12783257946E+03  0.41800000000E+01 0.  1.
        -11    1    4    4    0    0 -0.23541883630E+02 -0.88992511037E+02  0.11491242810E+03  0.14723706543E+03  0.00000000000E+00 0.  1.
         11    1    4    4    0    0  0.52014021421E+02 -0.36806044322E+02  0.50830297489E+02  0.81509891828E+02  0.00000000000E+00 0. -1.
</event>
<event>
 8    1  0.7136454E-009  0.9725670E+02  0.7561462E-02  0.1286173E+00
          2   -1    0    0  501    0  0.00000000000E+00  0.00000000000E+00  0.26896797754E+03  0.26896797754E+03  0.00000000000E+00 0. -1.
         -2   -1    0    0    0  501 -0.00000000000E+00 -0.00000000000E+00 -0.55604766238E+02  0.55604766238E+02  0.00000000000E+00 0.  1.
         25    2    1    2    0    0  0.43898236766E+02 -0.19666550723E+02  0.15050983307E+03  0.20153092651E+03  0.12509067143E+03 0.  0.
         23    2    1    2    0    0 -0.43898236766E+02  0.19666550723E+02  0.62853378233E+02  0.12304181727E+03  0.94206757900E+02 0.  0.
          5    1    3    3  502    0  0.84533346948E+02  0.40476943813E+01  0.79120175676E+02  0.11592991493E+03  0.41800000000E+01 0. -1.
         -5    1    3    3    0  502 -0.40635110182E+02 -0.23714245105E+02  0.71389657398E+02  0.85601011582E+02  0.41800000000E+01 0. -1.
        -11    1    4    4    0    0 -0.33310660744E+02  0.32069223296E+02  0.84270817893E+02  0.96122869029E+02  0.00000000000E+00 0. -1.
         11    1    4    4    0    0 -0.10587576022E+02 -0.12402672573E+02 -0.21417439660E+02  0.26918948244E+02  0.00000000000E+00 0.  1.
</event>
<event>
 8    1  0.7136454E-009  0.3099831E+03  0.7561462E-02  0.1080354E+00
          1   -1    0    0  501    0  0.00000000000E+00  0.00000000000E+00  0.14508444758E+03  0.14508444758E+03  0.00000000000E+00 0. -1.
         -1   -1    0    0    0  501 -0.00000000000E+00 -0.00000000000E+00 -0.73266128099E+03  0.73266128099E+03  0.00000000000E+00 0.  1.
         25    2    1    2    0    0 -0.29307840501E+03  0.23826376914E+02 -0.18469616054E+03  0.36908296292E+03  0.12508762559E+03 0.  0.
         23    2    1    2    0    0  0.29307840501E+03 -0.23826376914E+02 -0.40288067287E+03  0.50866276565E+03  0.99811446546E+02 0.  0.
          5    1    3    3  502    0 -0.18027346175E+03  0.75343809764E+02 -0.11034651142E+03  0.22443046955E+03  0.41800000000E+01 0.  1.
         -5    1    3    3    0  502 -0.11280494327E+03 -0.51517432850E+02 -0.74349649113E+02  0.14465249336E+03  0.41800000000E+01 0.  1.
        -11    1    4    4    0    0  0.21887861234E+03 -0.44653110885E+02 -0.34994496022E+03  0.41516649965E+03  0.00000000000E+00 0.  1.
         11    1    4    4    0    0  0.74199792679E+02  0.20826733971E+02 -0.52935712652E+02  0.93496265997E+02  0.00000000000E+00 0. -1.
</event>
<event>
 8    1  0.7136454E-009  0.1107301E+03  0.7561462E-02  0.1259224E+00
         -2   -1    0    0    0  501 -0.00000000000E+00  0.00000000000E+00  0.38345456437E+02  0.38345456437E+02  0.00000000000E+00 0.  1.
          2   -1    0    0  501    0  0.00000000000E+00 -0.00000000000E+00 -0.44444855831E+03  0.44444855831E+03  0.00000000000E+00 0. -1.
         25    2    1    2    0    0 -0.38840908494E+02  0.28727539368E+02 -0.12955194487E+03  0.18645796579E+03  0.12509587881E+03 0.  0.
         23    2    1    2    0    0  0.38840908494E+02 -0.28727539368E+02 -0.27655115701E+03  0.29633604896E+03  0.94871617371E+02 0.  0.
          5    1    3    3  502    0 -0.52559603363E+02 -0.29878179398E+02 -0.10517294599E+03  0.12138384768E+03  0.41800000000E+01 0. -1.
         -5    1    3    3    0  502  0.13718694869E+02  0.58605718766E+02 -0.24378998883E+02  0.65074118108E+02  0.41800000000E+01 0. -1.
        -11    1    4    4    0    0  0.16454431790E+02  0.31900141341E+02 -0.56044204901E+02  0.66553138515E+02  0.00000000000E+00 0. -1.
         11    1    4    4    0    0  0.22386476704E+02 -0.60627680709E+02 -0.22050695210E+03  0.22978291045E+03  0.00000000000E+00 0.  1.
</event>
<event>
 8    1  0.7136454E-009  0.9287912E+02  0.7561462E-02  0.1296026E+00
         -1   -1    0    0    0  501 -0.00000000000E+00  0.00000000000E+00  0.36492013319E+02  0.36492013319E+02  0.00000000000E+00 0.  1.
          1   -1    0    0  501    0  0.00000000000E+00 -0.00000000000E+00 -0.59019918144E+03  0.59019918144E+03  0.00000000000E+00 0. -1.
         25    2    1    2    0    0  0.40332627297E+01 -0.71486460599E+02 -0.15234555458E+03  0.20972094110E+03  0.12508846421E+03 0.  0.
         23    2    1    2    0    0 -0.40332627297E+01  0.71486460599E+02 -0.40136161354E+03  0.41697025365E+03  0.87444075583E+02 0.  0.
          5    1    3    3  502    0  0.75283749374E+01 -0.14663872347E+02  0.21113782923E+02  0.27110326644E+02  0.41800000000E+01 0.  1.
         -5    1    3    3    0  502 -0.34951122076E+01 -0.56822588252E+02 -0.17345933750E+03  0.18261061446E+03  0.41800000000E+01 0.  1.
        -11    1    4    4    0    0 -0.42366390917E+02  0.56249080501E+02 -0.22083848017E+03  0.23179409928E+03  0.00000000000E+00 0.  1.
         11    1    4    4    0    0  0.38333128188E+02  0.15237380097E+02 -0.18052313336E+03  0.18517615437E+03  0.00000000000E+00 0. -1.
</event>
<event>
 8    1  0.7136454E-009  0.9445145E+02  0.7561462E-02  0.1292416E+00
          1   -1    0    0  501    0  0.00000000000E+00  0.00000000000E+00  0.25049296517E+03  0.25049296517E+03  0.00000000000E+00 0. -1.
         -1   -1    0    0    0  501 -0.00000000000E+00 -0.00000000000E+00 -0.82920984765E+02  0.82920984765E+02  0.00000000000E+00 0.  1.
         25    2    1    2    0    0 -0.68735652294E+02 -0.17894417890E+02  0.19995410050E+02  0.14523186912E+03  0.12509068430E+03 0.  0.
         23    2    1    2    0    0  0.68735652294E+02  0.17894417890E+02  0.14757657036E+03  0.18818208081E+03  0.92676055881E+02 0.  0.
          5    1    3    3  502    0  0.21240722475E+02  0.18432549425E+01  0.44759433245E+02  0.49753845524E+02  0.41800000000E+01 0.  1.
         -5    1    3    3    0  502 -0.89976374769E+02 -0.19737672833E+02 -0.24764023195E+02  0.95478023598E+02  0.41800000000E+01 0.  1.
        -11    1    4    4    0    0  0.12356733808E+02 -0.59952417474E+01 -0.11382187014E+02  0.17837768224E+02  0.00000000000E+00 0.  1.
         11    1    4    4    0    0  0.56378918486E+02  0.23889659637E+02  0.15895875737E+03  0.17034431259E+03  0.00000000000E+00 0. -1.
</event>
<event>
 8    1  0.7136454E-009  0.1114576E+03  0.7561462E-02  0.1257894E+00
          2   -1    0    0  501    0  0.00000000000E+00  0.00000000000E+00  0.57106318725E+03  0.57106318725E+03  0.00000000000E+00 0. -1.
         -2   -1    0    0    0  501 -0.00000000000E+00 -0.00000000000E+00 -0.41975750171E+02  0.41975750171E+02  0.00000000000E+00 0.  1.
         25    2    1    2    0    0  0.55868279967E+02 -0.83108418390E+02  0.37122323526E+03  0.40432920614E+03  0.12508853915E+03 0.  0.
         23    2    1    2    0    0 -0.55868279967E+02  0.83108418390E+02  0.15786420182E+03  0.20870973128E+03  0.92792089115E+02 0.  0.
          5    1    3    3  502    0  0.51779745318E+02 -0.36847402434E+02  0.53429391421E+02  0.83132697292E+02  0.41800000000E+01 0.  1.
         -5    1    3    3    0  502  0.40885346490E+01 -0.46261015955E+02  0.31779384384E+03  0.32119650885E+03  0.41800000000E+01 0.  1.
        -11    1    4    4    0    0 -0.17972548723E+02 -0.32731881755E+01 -0.63424757266E+01  0.19337871309E+02  0.00000000000E+00 0.  1.
         11    1    4    4    0    0 -0.37895731245E+02  0.86381606565E+02  0.16420667754E+03  0.18937185997E+03  0.00000000000E+00 0. -1.
</event>
<event>
 8    1  0.7136454E-009  0.1431077E+03  0.7561462E-02  0.1209207E+00
          2   -1    0    0  501    0  0.00000000000E+00  0.00000000000E+00  0.26382410885E+03  0.26382410885E+03  0.00000000000E+00 0. -1.
         -2   -1    0    0    0  501 -0.00000000000E+00 -0.00000000000E+00 -0.10546628241E+03  0.10546628241E+03  0.00000000000E+00 0.  1.
         25    2    1    2    0    0 -0.87214647204E+02  0.42238357493E+02  0.17579668018E+03  0.23652227174E+03  0.12509132157E+03 0.  0.
         23    2    1    2    0    0  0.87214647204E+02 -0.42238357493E+02 -0.17438853742E+02  0.13276811953E+03  0.89066191192E+02 0.  0.
          5    1    3    3  502    0 -0.12048502140E+02 -0.40939636598E+02  0.71335297137E+02  0.83231107564E+02  0.41800000000E+01 0.  1.
         -5    1    3    3    0  502 -0.75166145064E+02  0.83177994091E+02  0.10446138305E+03  0.15329116417E+03  0.41800000000E+01 0.  1.
        -11    1    4    4    0    0  0.57527268026E+02  0.21038109522E+02 -0.25572018249E+01  0.61306834040E+02  0.00000000000E+00 0. -1.
         11    1    4    4    0    0  0.29687379178E+02 -0.63276467015E+02 -0.14881651917E+02  0.71461285492E+02  0.00000000000E+00 0.  1.
</event>
<event>
 7    1  0.7136454E-009  0.2083188E+03  0.7561462E-02  0.1142904E+00
          1   -1    0    0  501    0  0.00000000000E+00  0.00000000000E+00  0.16138679718E+03  0.16138679718E+03  0.00000000000E+00 0. -1.
         -1   -1    0    0    0  501 -0.00000000000E+00 -0.00000000000E+00 -0.28881487380E+03  0.28881487380E+03  0.00000000000E+00 0.  1.
         23    2    1    2    0    0 -0.18509450317E+03 -0.49319786769E+01 -0.89583220533E+02  0.22362736582E+03  0.87748195568E+02 0.  0.
          5    1    1    2  502    0  0.83255378894E+02 -0.54966172434E+02  0.70858081652E+01  0.10010204446E+03  0.41800000000E+01 0.  1.
         -5    1    1    2    0  502  0.10183912427E+03  0.59898151111E+02 -0.44930664257E+02  0.12647226071E+03  0.41800000000E+01 0.  1.
        -11    1    3    3    0    0 -0.63439505706E+02 -0.36084821739E+02 -0.60314737372E+02  0.94681322278E+02  0.00000000000E+00 0.  1.
         11    1    3    3    0    0 -0.12165499746E+03  0.31152843062E+02 -0.29268483160E+02  0.12894604354E+03  0.00000000000E+00 0. -1.
</event>
<event>
 8    1  0.7136454E-009  0.1085647E+03  0.7561462E-02  0.1263251E+00
         -1   -1    0    0    0  501 -0.00000000000E+00  0.00000000000E+00  0.30520246338E+03  0.30520246338E+03  0.00000000000E+00 0.  1.
          1   -1    0    0  501    0  0.00000000000E+00 -0.00000000000E+00 -0.32122608198E+03  0.32122608198E+03  0.00000000000E+00 0. -1.
         25    2    1    2    0    0  0.43646141463E+01 -0.39826204121E+02 -0.29849237349E+03  0.32612452736E+03  0.12511728066E+03 0.  0.
         23    2    1    2    0    0 -0.43646141463E+01  0.39826204121E+02  0.28246875489E+03  0.30030401800E+03  0.93748223185E+02 0.  0.
          5    1    3    3  502    0 -0.52254966859E+02 -0.18532675796E+02 -0.68250108262E+02  0.88031763082E+02  0.41800000000E+01 0.  1.
         -5    1    3    3    0  502  0.56619581005E+02 -0.21293528326E+02 -0.23024226523E+03  0.23809276428E+03  0.41800000000E+01 0.  1.
        -11    1    4    4    0    0 -0.45353578746E+02  0.39125177032E+02  0.18834968366E+03  0.19764445329E+03  0.00000000000E+00 0.  1.
         11    1    4    4    0    0  0.40988964599E+02  0.70102708967E+00  0.94119071228E+02  0.10265956471E+03  0.00000000000E+00 0. -1.
</event>
<event>
 8    1  0.7136454E-009  0.1073952E+03  0.7561462E-02  0.1265471E+00
          1   -1    0    0  501    0  0.00000000000E+00  0.00000000000E+00  0.14113807788E+03  0.14113807788E+03  0.00000000000E+00 0. -1.
         -1   -1    0    0    0  501 -0.00000000000E+00 -0.00000000000E+00 -0.10214736924E+03  0.10214736924E+03  0.00000000000E+00 0.  1.
         25    2    1    2    0    0  0.31378539052E+02 -0.20384346347E+02  0.56371069798E+02  0.14220484822E+03  0.12507752419E+03 0.  0.
         23    2    1    2    0    0 -0.31378539052E+02  0.20384346347E+02 -0.17380361157E+02  0.10108059890E+03  0.92277170696E+02 0.  0.
          5    1    3    3  502    0 -0.42976408451E+02 -0.33859036703E+02  0.23341047864E+02  0.59629547753E+02  0.41800000000E+01 0. -1.
         -5    1    3    3    0  502  0.74354947503E+02  0.13474690356E+02  0.33030021934E+02  0.82575300467E+02  0.41800000000E+01 0. -1.
        -11    1    4    4    0    0  0.19444658482E+02 -0.13036366230E+02  0.19047042887E+02  0.30179983941E+02  0.00000000000E+00 0. -1.
         11    1    4    4    0    0 -0.50823197533E+02  0.33420712577E+02 -0.36427404044E+02  0.70900614962E+02  0.00000000000E+00 0.  1.
</event>
<event>
 8    1  0.7136454E-009  0.1059769E+03  0.7561462E-02  0.1268207E+00
          2   -1    0    0  501    0  0.00000000000E+00  0.00000000000E+00  0.69808282589E+03  0.69808282589E+03  0.00000000000E+00 0. -1.
         -2   -1    0    0    0  501 -0.00000000000E+00 -0.00000000000E+00 -0.22327586509E+02  0.22327586509E+02  0.00000000000E+00 0.  1.
         25    2    1    2    0    0  0.29004828488E+01  0.94829871498E+01  0.55819642562E+03  0.57212576755E+03  0.12508518886E+03 0.  0.
         23    2    1    2    0    0 -0.29004828488E+01 -0.94829871498E+01  0.11755881377E+03  0.14828464486E+03  0.89832741026E+02 0.  0.
          5    1    3    3  502    0  0.46775389591E+02  0.45020205880E+02  0.22753730006E+03  0.23665470908E+03  0.41800000000E+01 0. -1.
         -5    1    3    3    0  502 -0.43874906742E+02 -0.35537218730E+02  0.33065912556E+03  0.33547105847E+03  0.41800000000E+01 0. -1.
        -11    1    4    4    0    0  0.13045747764E+02  0.38008463583E+02  0.55741162669E+02  0.68716170254E+02  0.00000000000E+00 0.  1.
         11    1    4    4    0    0 -0.15946230613E+02 -0.47491450733E+02  0.61817651097E+02  0.79568474603E+02  0.00000000000E+00 0. -1.
</event>
<event>
 8    1  0.7136454E-009  0.1032446E+03  0.7561462E-02  0.1273617E+00
          2   -1    0    0  501    0  0.00000000000E+00  0.00000000000E+00  0.35982635193E+03  0.35982635193E+03  0.00000000000E+00 0. -1.
         -2   -1    0    0    0  501 -0.00000000000E+00 -0.00000000000E+00 -0.49105902832E+02  0.49105902832E+02  0.00000000000E+00 0.  1.
         25    2    1    2    0    0  0.40220115358E+02  0.34001053772E+02  0.25326756070E+03  0.28734282127E+03  0.12509080819E+03 0.  0.
         23    2    1    2    0    0 -0.40220115358E+02 -0.34001053772E+02  0.57452888398E+02  0.12158943350E+03  0.93324308817E+02 0.  0.
          5    1    3    3  502    0  0.75692827714E+02  0.14047544327E+02  0.87591367323E+02  0.11668957836E+03  0.41800000000E+01 0.  1.
         -5    1    3    3    0  502 -0.35472712356E+02  0.19953509445E+02  0.16567619338E+03  0.17065324291E+03  0.41800000000E+01 0.  1.
        -11    1    4    4    0    0  0.20066069035E+02 -0.18444049068E+01  0.48700729198E+02  0.52704933169E+02  0.00000000000E+00 0. -1.
         11    1    4    4    0    0 -0.60286184393E+02 -0.32156648865E+02  0.87521591998E+01  0.68884500329E+02  0.00000000000E+00 0.  1.
</event>
<event>
 8    1  0.7136454E-009  0.1146143E+03  0.7561462E-02  0.1252256E+00
          1   -1    0    0  501    0  0.00000000000E+00  0.00000000000E+00  0.35338002820E+03  0.35338002820E+03  0.00000000000E+00 0. -1.
         -1   -1    0    0    0  501 -0.00000000000E+00 -0.00000000000E+00 -0.42923467280E+02  0.42923467280E+02  0.00000000000E+00 0.  1.
         25    2    1    2    0    0  0.87590942873E+01 -0.81860926142E+00  0.13337800600E+03  0.18306765278E+03  0.12508669455E+03 0.  0.
         23    2    1    2    0    0 -0.87590942873E+01  0.81860926142E+00  0.17707855492E+03  0.21323584271E+03  0.11847074807E+03 0.  0.
          5    1    3    3  502    0  0.87329006177E+01  0.55140166859E+02  0.25605677118E+02  0.61561551760E+02  0.41800000000E+01 0.  1.
         -5    1    3    3    0  502  0.26193669542E-01 -0.55958776120E+02  0.10777232888E+03  0.12150610102E+03  0.41800000000E+01 0.  1.
        -11    1    4    4    0    0 -0.53798656988E+02 -0.30901480956E+02  0.11141525614E+03  0.12752472827E+03  0.00000000000E+00 0. -1.
         11    1    4    4    0    0  0.45039562701E+02  0.31720090217E+02  0.65663298781E+02  0.85711114439E+02  0.00000000000E+00 0.  1.
</event>
<event>
 8    1  0.7136454E-009  0.1063277E+03  0.7561462E-02  0.1267526E+00
          1   -1    0    0  501    0  0.00000000000E+00  0.00000000000E+00  0.19904271884E+03  0.19904271884E+03  0.00000000000E+00 0. -1.
         -1   -1    0    0    0  501 -0.00000000000E+00 -0.00000000000E+00 -0.77983497776E+02  0.77983497776E+02  0.00000000000E+00 0.  1.
         25    2    1    2    0    0 -0.43244071040E+02  0.29367775977E+02  0.27107417301E+02  0.13822174496E+03  0.12505168036E+03 0.  0.
         23    2    1    2    0    0  0.43244071040E+02 -0.29367775977E+02  0.93951803765E+02  0.13880447166E+03  0.87790796647E+02 0.  0.
          5    1    3    3  502    0 -0.63722927780E+02  0.64568412981E+02  0.33483313905E+02  0.96789959138E+02  0.41800000000E+01 0. -1.
         -5    1    3    3    0  502  0.20478856740E+02 -0.35200637004E+02 -0.63758966042E+01  0.41431785822E+02  0.41800000000E+01 0. -1.
        -11    1    4    4    0    0 -0.13766294588E+02 -0.18182459933E+02 -0.56514244565E+01  0.23495772264E+02  0.00000000000E+00 0.  1.
         11    1    4    4    0    0  0.57010365628E+02 -0.11185316044E+02  0.99603228221E+02  0.11530869939E+03  0.00000000000E+00 0. -1.
</event>
<event>
 8    1  0.7136454E-009  0.1252999E+03  0.7561462E-02  0.1234601E+00
         -2   -1    0    0    0  501 -0.00000000000E+00  0.00000000000E+00  0.11431508981E+03  0.11431508981E+03  0.00000000000E+00 0.  1.
          2   -1    0    0  501    0  0.00000000000E+00 -0.00000000000E+00 -0.24062431327E+03  0.24062431327E+03  0.00000000000E+00 0. -1.
         25    2    1    2    0    0  0.78488401091E+02 -0.35872654777E+02  0.37586390217E+02  0.15654854739E+03  0.12508970579E+03 0.  0.
         23    2    1    2    0    0 -0.78488401091E+02  0.35872654777E+02 -0.16389561367E+03  0.19839085569E+03  0.71062528613E+02 0.  0.
          5    1    3    3  502    0  0.20313520611E+01 -0.61875014590E+02  0.43014552609E+02  0.75500781174E+02  0.41800000000E+01 0. -1.
         -5    1    3    3    0  502  0.76457049030E+02  0.26002359813E+02 -0.54281623915E+01  0.81047766219E+02  0.41800000000E+01 0. -1.
        -11    1    4    4    0    0 -0.65764385895E+02 -0.39458194294E+01 -0.12496349205E+03  0.14126711680E+03  0.00000000000E+00 0. -1.
         11    1    4    4    0    0 -0.12724015195E+02  0.39818474206E+02 -0.38932121628E+02  0.57123738894E+02  0.00000000000E+00 0.  1.
</event>
<event>
 8    1  0.7136454E-009  0.9757127E+02  0.7561462E-02  0.1285488E+00
         -2   -1    0    0    0  501 -0.00000000000E+00  0.00000000000E+00  0.16526381336E+02  0.16526381336E+02  0.00000000000E+00 0.  1.
          2   -1    0    0  501    0  0.00000000000E+00 -0.00000000000E+00 -0.94383849755E+03  0.94383849755E+03  0.00000000000E+00 0. -1.
         25    2    1    2    0    0  0.72035699645E+01 -0.10222515462E+02 -0.76693919306E+03  0.77717424510E+03  0.12509072768E+03 0.  0.
         23    2    1    2    0    0 -0.72035699645E+01  0.10222515462E+02 -0.16037292315E+03  0.18319063378E+03  0.87652396338E+02 0.  0.
          5    1    3    3  502    0  0.55194619456E+02 -0.35979440625E+02 -0.52560606118E+03  0.52973594377E+03  0.41800000000E+01 0. -1.
         -5    1    3    3    0  502 -0.47991049492E+02  0.25756925163E+02 -0.24133313188E+03  0.24743830134E+03  0.41800000000E+01 0. -1.
        -11    1    4    4    0    0  0.25724537138E+02  0.27210741281E+02 -0.30987860407E+02  0.48604770801E+02  0.00000000000E+00 0.  1.
         11    1    4    4    0    0 -0.32928107102E+02 -0.16988225819E+02 -0.12938506274E+03  0.13458586298E+03  0.00000000000E+00 0. -1.
</event>
<event>
 7    1  0.7136454E-009  0.1282987E+03  0.7561462E-02  0.1230002E+00
         -2   -1    0    0    0  501 -0.00000000000E+00  0.00000000000E+00  0.20973181079E+03  0.20973181079E+03  0.00000000000E+00 0.  1.
          2   -1    0    0  501    0  0.00000000000E+00 -0.00000000000E+00 -0.10639626167E+03  0.10639626167E+03  0.00000000000E+00 0. -1.
         23    2    1    2    0    0 -0.90200729865E+02  0.38158337656E+02  0.19233943745E+02  0.13629898261E+03  0.92818304599E+02 0.  0.
          5    1    1    2  502    0  0.88441978752E+02 -0.71361585510E+02  0.90961643545E+02  0.14562263728E+03  0.41800000000E+01 0. -1.
         -5    1    1    2    0  502  0.17587511131E+01  0.33203247854E+02 -0.68600381705E+01  0.34206452567E+02  0.41800000000E+01 0. -1.
        -11    1    3    3    0    0 -0.28973083137E+02 -0.10853224376E+02  0.44236139476E+02  0.53982108717E+02  0.00000000000E+00 0.  1.
         11    1    3    3    0    0 -0.61227646729E+02  0.49011562032E+02 -0.25002195730E+02  0.82316873897E+02  0.00000000000E+00 0. -1.
</event>
<event>
 8    1  0.7136454E-009  0.9884081E+02  0.7561462E-02  0.1282753E+00
         -1   -1    0    0    0  501 -0.00000000000E+00  0.00000000000E+00  0.25161271247E+02  0.25161271247E+02  0.00000000000E+00 0.  1.
          1   -1    0    0  501    0  0.00000000000E+00 -0.00000000000E+00 -0.61571324541E+03  0.61571324541E+03  0.00000000000E+00 0. -1.
         25    2    1    2    0    0  0.37113234439E+02 -0.45361089358E+02 -0.28511366593E+03  0.31681538751E+03  0.12508863524E+03 0.  0.
         23    2    1    2    0    0 -0.37113234439E+02  0.45361089358E+02 -0.30543830824E+03  0.32405912915E+03  0.91031524470E+02 0.  0.
          5    1    3    3  502    0 -0.23334144501E+02 -0.24561628999E+02 -0.11835788656E+02  0.36129132453E+02  0.41800000000E+01 0.  1.
         -5    1    3    3    0  502  0.60447378940E+02 -0.20799460359E+02 -0.27327787727E+03  0.28068625506E+03  0.41800000000E+01 0.  1.
        -11    1    4    4    0    0 -0.61898647312E+02  0.41187548368E+02 -0.15956737465E+03  0.17603864273E+03  0.00000000000E+00 0.  1.
         11    1    4    4    0    0  0.24785412873E+02  0.41735409901E+01 -0.14587093358E+03  0.14802048642E+03  0.00000000000E+00 0. -1.
</event>
<event>
 8    1  0.7136454E-009  0.1066992E+03  0.7561462E-02  0.1266807E+00
         -3   -1    0    0    0  501 -0.00000000000E+00  0.00000000000E+00  0.40646718974E+02  0.40646718974E+02  0.00000000000E+00 0.  1.
          3   -1    0    0  501    0  0.00000000000E+00 -0.00000000000E+00 -0.37498820465E+03  0.37498820465E+03  0.00000000000E+00 0. -1.
         25    2    1    2    0    0  0.42529346906E+02 -0.42037048918E+02 -0.19030342678E+03  0.23545419150E+03  0.12508966071E+03 0.  0.
         23    2    1    2    0    0 -0.42529346906E+02  0.42037048918E+02 -0.14403805889E+03  0.18018073213E+03  0.90234555412E+02 0.  0.
          5    1    3    3  502    0  0.73693298631E+02 -0.23579676780E+01 -0.58341777951E+02  0.94114280155E+02  0.41800000000E+01 0. -1.
         -5    1    3    3    0  502 -0.31163951725E+02 -0.39679081240E+02 -0.13196164883E+03  0.14133991134E+03  0.41800000000E+01 0. -1.
        -11    1    4    4    0    0 -0.12092779439E+02  0.54652683773E+02 -0.34402431637E+02  0.65701434236E+02  0.00000000000E+00 0.  1.
         11    1    4    4    0    0 -0.30436567467E+02 -0.12615634854E+02 -0.10963562726E+03  0.11447929789E+03  0.00000000000E+00 0. -1.
</event>
<event>
 8    1  0.7136454E-009  0.4294865E+03  0.7561462E-02  0.1034022E+00
          1   -1    0    0  501    0  0.00000000000E+00  0.00000000000E+00  0.10974516489E+04  0.10974516489E+04  0.00000000000E+00 0. -1.
         -1   -1    0    0    0  501 -0.00000000000E+00 -0.00000000000E+00 -0.19862115458E+03  0.19862115458E+03  0.00000000000E+00 0.  1.
         25    2    1    2    0    0  0.71206496145E+02 -0.40973706991E+03  0.70709759256E+03  0.82981188071E+03  0.12508365369E+03 0.  0.
         23    2    1    2    0    0 -0.71206496145E+02  0.40973706991E+03  0.19173290180E+03  0.46626092281E+03  0.87652215918E+02 0.  0.
          5    1    3    3  502    0  0.96848308741E+02 -0.38916743282E+03  0.65738792822E+03  0.77006963727E+03  0.41800000000E+01 0.  1.
         -5    1    3    3    0  502 -0.25641812596E+02 -0.20569637086E+02  0.49709664337E+02  0.59742243442E+02  0.41800000000E+01 0.  1.
        -11    1    4    4    0    0 -0.90272411807E+02  0.29622835552E+03  0.13279053000E+03  0.33694758020E+03  0.00000000000E+00 0.  1.
         11    1    4    4    0    0  0.19065915662E+02  0.11350871439E+03  0.58942371801E+02  0.12931334261E+03  0.00000000000E+00 0. -1.
</event>
<event>
 8    1  0.7136454E-009  0.8719789E+02  0.7561462E-02  0.1309783E+00
          4   -1    0    0  501    0  0.00000000000E+00  0.00000000000E+00  0.68362669027E+02  0.68362669027E+02  0.00000000000E+00 0. -1.
         -4   -1    0    0    0  501 -0.00000000000E+00 -0.00000000000E+00 -0.18887593384E+03  0.18887593384E+03  0.00000000000E+00 0.  1.
         25    2    1    2    0    0  0.44232293694E+01  0.19321738196E+02 -0.32786565929E+02  0.13082790320E+03  0.12509231321E+03 0.  0.
         23    2    1    2    0    0 -0.44232293694E+01 -0.19321738196E+02 -0.87726698883E+02  0.12641069967E+03  0.88830156865E+02 0.  0.
          5    1    3    3  502    0 -0.44027072779E+02  0.60906005820E+01  0.27358560341E+02  0.52358779367E+02  0.41800000000E+01 0. -1.
         -5    1    3    3    0  502  0.48450302148E+02  0.13231137614E+02 -0.60145126270E+02  0.78469123831E+02  0.41800000000E+01 0. -1.
        -11    1    4    4    0    0  0.29161996729E+02  0.13731552082E+02 -0.68141482719E+02  0.75380629096E+02  0.00000000000E+00 0.  1.
         11    1    4    4    0    0 -0.33585226099E+02 -0.33053290278E+02 -0.19585216164E+02  0.51030070571E+02  0.00000000000E+00 0. -1.
</event>
<event>
 7    1  0.7136454E-009  0.1447710E+03  0.7561462E-02  0.1207050E+00
         -1   -1    0    0    0  501 -0.00000000000E+00  0.00000000000E+00  0.29206977088E+03  0.29206977088E+03  0.00000000000E+00 0.  1.
          1   -1    0    0  501    0  0.00000000000E+00 -0.00000000000E+00 -0.98424256561E+02  0.98424256561E+02  0.00000000000E+00 0. -1.
         23    2    1    2    0    0 -0.99135762347E+02 -0.82692753043E+02  0.10600626450E+03  0.19025787087E+03  0.91075455149E+02 0.  0.
          5    1    1    2  502    0  0.17754204961E+02  0.76580487859E+02 -0.22492169353E+01  0.78754773133E+02  0.41800000000E+01 0.  1.
         -5    1    1    2    0  502  0.81381557386E+02  0.61122651847E+01  0.89888466754E+02  0.12148138345E+03  0.41800000000E+01 0.  1.
        -11    1    3    3    0    0 -0.82954621517E+02 -0.69726665622E+02  0.12265283210E+03  0.16366732829E+03  0.00000000000E+00 0.  1.
         11    1    3    3    0    0 -0.16181140830E+02 -0.12966087422E+02 -0.16646567594E+02  0.26590542571E+02  0.00000000000E+00 0. -1.
</event>
<event>
 8    1  0.7136454E-009  0.8092173E+02  0.7561462E-02  0.1326456E+00
         -2   -1    0    0    0  501 -0.00000000000E+00  0.00000000000E+00  0.18544344795E+02  0.18544344795E+02  0.00000000000E+00 0.  1.
          2   -1    0    0  501    0  0.00000000000E+00 -0.00000000000E+00 -0.90364511516E+03  0.90364511516E+03  0.00000000000E+00 0. -1.
         25    2    1    2    0    0 -0.34038227220E+02  0.61173915849E+02 -0.52233706910E+03  0.54164971538E+03  0.12509017358E+03 0.  0.
         23    2    1    2    0    0  0.34038227220E+02 -0.61173915849E+02 -0.36276370126E+03  0.38053974457E+03  0.91170967700E+02 0.  0.
          5    1    3    3  502    0  0.13019052296E+02  0.17639469972E+02 -0.86105879627E+01  0.23921982540E+02  0.41800000000E+01 0. -1.
         -5    1    3    3    0  502 -0.47057279516E+02  0.43534445877E+02 -0.51372648114E+03  0.51772773284E+03  0.41800000000E+01 0. -1.
        -11    1    4    4    0    0  0.12820288161E+02 -0.27323456365E+01 -0.64689328449E+00  0.13124175103E+02  0.00000000000E+00 0.  1.
         11    1    4    4    0    0  0.21217939059E+02 -0.58441570213E+02 -0.36211680798E+03  0.36741556947E+03  0.00000000000E+00 0. -1.
</event>
<event>
 8    1  0.7136454E-009  0.1522213E+03  0.7561462E-02  0.1197770E+00
          4   -1    0    0  501    0  0.00000000000E+00  0.00000000000E+00  0.23830288237E+03  0.23830288237E+03  0.00000000000E+00 0. -1.
         -4   -1    0    0    0  501 -0.00000000000E+00 -0.00000000000E+00 -0.10308232503E+03  0.10308232503E+03  0.00000000000E+00 0.  1.
         25    2    1    2    0    0  0.64152198975E+02  0.88423742729E+02  0.10236807287E+03  0.19508803153E+03  0.12508339135E+03 0.  0.
         23    2    1    2    0    0 -0.64152198975E+02 -0.88423742729E+02  0.32852484470E+02  0.14629717587E+03  0.91593204006E+02 0.  0.
          5    1    3    3  502    0  0.99675078229E+02  0.72216153163E+02  0.94015308449E+02  0.15494077778E+03  0.41800000000E+01 0. -1.
         -5    1    3    3    0  502 -0.35522879254E+02  0.16207589566E+02  0.83527644183E+01  0.40147253747E+02  0.41800000000E+01 0. -1.
        -11    1    4    4    0    0 -0.24213582982E+02 -0.97999005503E+02  0.17503340637E+02  0.10245227969E+03  0.00000000000E+00 0.  1.
         11    1    4    4    0    0 -0.39938615993E+02  0.95752627732E+01  0.15349143833E+02  0.43844896179E+02  0.00000000000E+00 0. -1.
</event>
<event>
 7    1  0.7136454E-009  0.1423209E+03  0.7561462E-02  0.1210240E+00
          2   -1    0    0  501    0  0.00000000000E+00  0.00000000000E+00  0.39664695922E+03  0.39664695922E+03  0.00000000000E+00 0. -1.
         -2   -1    0    0    0  501 -0.00000000000E+00 -0.00000000000E+00 -0.70183027272E+02  0.70183027272E+02  0.00000000000E+00 0.  1.
         25    2    1    2    0    0  0.35203552836E+02 -0.11485974625E+02  0.89710014919E+02  0.15832627711E+03  0.12509238787E+03 0.  0.
          5    1    3    3  502    0  0.15280832604E+02  0.55135683419E+02  0.22787247936E+02  0.61726643353E+02  0.41800000000E+01 0. -1.
         -5    1    3    3    0  502  0.19922720232E+02 -0.66621658045E+02  0.66922766984E+02  0.96599633761E+02  0.41800000000E+01 0. -1.
        -11    1    1    2    0    0 -0.68664530440E+02  0.64966352099E+02  0.41363134137E+02  0.10318116839E+03  0.00000000000E+00 0.  1.
         11    1    1    2    0    0  0.33460977604E+02 -0.53480377474E+02  0.19539078289E+03  0.20532254098E+03  0.00000000000E+00 0. -1.
</event>
<event>
 8    1  0.7136454E-009  0.1211705E+03  0.7561462E-02  0.1241179E+00
          1   -1    0    0  501    0  0.00000000000E+00  0.00000000000E+00  0.10618899747E+03  0.10618899747E+03  0.00000000000E+00 0. -1.
         -1   -1    0    0    0  501 -0.00000000000E+00 -0.00000000000E+00 -0.30313818641E+03  0.30313818641E+03  0.00000000000E+00 0.  1.
         25    2    1    2    0    0 -0.81253973635E+02  0.31445161034E+02  0.24525149447E+02  0.15440113884E+03  0.12508885776E+03 0.  0.
         23    2    1    2    0    0  0.81253973635E+02 -0.31445161034E+02 -0.22147433839E+03  0.25492604504E+03  0.91353158063E+02 0.  0.
          5    1    3    3  502    0  0.19719381933E+02  0.19767145288E+02 -0.28126074631E+02  0.39851506005E+02  0.41800000000E+01 0.  1.
         -5    1    3    3    0  502 -0.10097335557E+03  0.11678015745E+02  0.52651224078E+02  0.11454963284E+03  0.41800000000E+01 0.  1.
        -11    1    4    4    0    0 -0.90388526972E+01 -0.19246270474E+02 -0.78206848203E+01  0.22655747533E+02  0.00000000000E+00 0. -1.
         11    1    4    4    0    0  0.90292826332E+02 -0.12198890560E+02 -0.21365365357E+03  0.23227029750E+03  0.00000000000E+00 0.  1.
</event>
<event>
 8    1  0.7136454E-009  0.1395474E+03  0.7561462E-02  0.1213939E+00
          1   -1    0    0  501    0  0.00000000000E+00  0.00000000000E+00  0.32452004326E+02  0.32452004326E+02  0.00000000000E+00 0. -1.
         -1   -1    0    0    0  501 -0.00000000000E+00 -0.00000000000E+00 -0.75264804990E+03  0.75264804990E+03  0.00000000000E+00 0.  1.
         25    2    1    2    0    0 -0.65903508483E+02 -0.82297557384E+02 -0.47545321418E+03  0.50281264119E+03  0.12509449582E+03 0.  0.
         23    2    1    2    0    0  0.65903508483E+02  0.82297557384E+02 -0.24474283140E+03  0.28228741304E+03  0.93118041533E+02 0.  0.
          5    1    3    3  502    0 -0.53439384186E+02  0.14836683542E+01 -0.33091530888E+03  0.33523183486E+03  0.41800000000E+01 0. -1.
         -5    1    3    3    0  502 -0.12464124297E+02 -0.83781225738E+02 -0.14453790530E+03  0.16758080633E+03  0.41800000000E+01 0. -1.
        -11    1    4    4    0    0  0.79212049655E+02  0.26843936179E+02 -0.14488003878E+03  0.16728828816E+03  0.00000000000E+00 0.  1.
         11    1    4    4    0    0 -0.13308541172E+02  0.55453621205E+02 -0.99862792619E+02  0.11499912488E+03  0.00000000000E+00 0. -1.
</event>
<event>
 7    1  0.7136454E-009  0.1209442E+03  0.7561462E-02  0.1241547E+00
          1   -1    0    0  501    0  0.00000000000E+00  0.00000000000E+00  0.90204488991E+02  0.90204488991E+02  0.00000000000E+00 0. -1.
         -1   -1    0    0    0  501 -0.00000000000E+00 -0.00000000000E+00 -0.20067043104E+03  0.20067043104E+03  0.00000000000E+00 0.  1.
         23    2    1    2    0    0  0.73246217789E+02 -0.17732138187E+02 -0.77452737934E+02  0.14106843418E+03  0.90674910324E+02 0.  0.
          5    1    1    2  502    0  0.93160846426E+01  0.39315554468E+02  0.23916567273E+02  0.47137849403E+02  0.41800000000E+01 0. -1.
         -5    1    1    2    0  502 -0.82562302431E+02 -0.21583416281E+02 -0.56929771393E+02  0.10266863646E+03  0.41800000000E+01 0. -1.
        -11    1    3    3    0    0  0.52158915125E+02  0.32427544068E+02 -0.27836476455E+02  0.67431205407E+02  0.00000000000E+00 0. -1.
         11    1    3    3    0    0  0.21087302664E+02 -0.50159682255E+02 -0.49616261479E+02  0.73637228768E+02  0.00000000000E+00 0.  1.
</event>
<event>
 8    1  0.7136454E-009  0.1230878E+03  0.7561462E-02  0.1238088E+00
          2   -1    0    0  501    0  0.00000000000E+00  0.00000000000E+00  0.85869381943E+03  0.85869381943E+03  0.00000000000E+00 0. -1.
         -2   -1    0    0    0  501 -0.00000000000E+00 -0.00000000000E+00 -0.18560996337E+02  0.18560996337E+02  0.00000000000E+00 0.  1.
         25    2    1    2    0    0  0.28825698646E+02 -0.52036348265E+02  0.42577010443E+03  0.44773499780E+03  0.12509094283E+03 0.  0.
         23    2    1    2    0    0 -0.28825698646E+02  0.52036348265E+02  0.41436271866E+03  0.42951981797E+03  0.96187883716E+02 0.  0.
          5    1    3    3  502    0  0.78415800783E+02 -0.29530263961E+02  0.25720769815E+03  0.27054453735E+03  0.41800000000E+01 0.  1.
         -5    1    3    3    0  502 -0.49590102137E+02 -0.22506084303E+02  0.16856240628E+03  0.17719046044E+03  0.41800000000E+01 0.  1.
        -11    1    4    4    0    0 -0.14330652887E+02 -0.25246721345E+02  0.61571271868E+02  0.68071918368E+02  0.00000000000E+00 0.  1.
         11    1    4    4    0    0 -0.14495045759E+02  0.77283069610E+02  0.35279144679E+03  0.36144789960E+03  0.00000000000E+00 0. -1.
</event>
<event>
 8    1  0.7136454E-009  0.9398971E+02  0.7561462E-02  0.1293468E+00
         -1   -1    0    0    0  501 -0.00000000000E+00  0.00000000000E+00  0.10496748290E+02  0.10496748290E+02  0.00000000000E+00 0.  1.
          1   -1    0    0  501    0  0.00000000000E+00 -0.00000000000E+00 -0.18736150850E+04  0.18736150850E+04  0.00000000000E+00 0. -1.
         25    2    1    2    0    0  0.39416995667E+01  0.47696641490E+01 -0.16052947431E+04  0.16101727574E+04  0.12508720769E+03 0.  0.
         23    2    1    2    0    0 -0.39416995667E+01 -0.47696641490E+01 -0.25782359362E+03  0.27393907597E+03  0.92365173229E+02 0.  0.
          5    1    3    3  502    0 -0.64849514709E+01 -0.44618230633E+02 -0.25919243328E+03  0.26311790318E+03  0.41800000000E+01 0.  1.
         -5    1    3    3    0  502  0.10426651038E+02  0.49387894782E+02 -0.13461023098E+04  0.13470548542E+04  0.41800000000E+01 0.  1.
        -11    1    4    4    0    0 -0.45872179191E+02  0.11134814010E+02 -0.14670487097E+03  0.15411216718E+03  0.00000000000E+00 0. -1.
         11    1    4    4    0    0  0.41930479624E+02 -0.15904478159E+02 -0.11111872265E+03  0.11982690879E+03  0.00000000000E+00 0.  1.
</event>
<event>
 8    1  0.7136454E-009  0.1471798E+03  0.7561462E-02  0.1203982E+00
          2   -1    0    0  501    0  0.00000000000E+00  0.00000000000E+00  0.49273484832E+03  0.49273484832E+03  0.00000000000E+00 0. -1.
         -2   -1    0    0    0  501 -0.00000000000E+00 -0.00000000000E+00 -0.55266671113E+02  0.55266671113E+02  0.00000000000E+00 0.  1.
         25    2    1    2    0    0  0.11312612047E+03  0.49744771635E+02  0.22324251742E+03  0.28417409391E+03  0.12508250329E+03 0.  0.
         23    2    1    2    0    0 -0.11312612047E+03 -0.49744771635E+02  0.21422565979E+03  0.26382742552E+03  0.91870646596E+02 0.  0.
          5    1    3    3  502    0 -0.16084882308E+01  0.49299714163E+02  0.11984392766E+03  0.12966529393E+03  0.41800000000E+01 0. -1.
         -5    1    3    3    0  502  0.11473460870E+03  0.44505747203E+00  0.10339858975E+03  0.15450879999E+03  0.41800000000E+01 0. -1.
        -11    1    4    4    0    0 -0.34662595724E+02  0.40695949598E+01  0.13673611352E+03  0.14111988480E+03  0.00000000000E+00 0. -1.
         11    1    4    4    0    0 -0.78463524748E+02 -0.53814366595E+02  0.77489546264E+02  0.12270754071E+03  0.00000000000E+00 0.  1.
</event>
<event>
 8    1  0.7136454E-009  0.1138775E+03  0.7561462E-02  0.1253553E+00
          1   -1    0    0  501    0  0.00000000000E+00  0.00000000000E+00  0.17880780369E+03  0.17880780369E+03  0.00000000000E+00 0. -1.
         -1   -1    0    0    0  501 -0.00000000000E+00 -0.00000000000E+00 -0.12234546838E+03  0.12234546838E+03  0.00000000000E+00 0.  1.
         25    2    1    2    0    0  0.88825775672E+01 -0.76459877595E+02  0.96141423107E+02  0.17554341762E+03  0.12508918885E+03 0.  0.
         23    2    1    2    0    0 -0.88825775672E+01  0.76459877595E+02 -0.39679087799E+02  0.12560985445E+03  0.90985671726E+02 0.  0.
          5    1    3    3  502    0  0.43485534878E+02 -0.96674763019E+02  0.75973397122E+02  0.13048536707E+03  0.41800000000E+01 0.  1.
         -5    1    3    3    0  502 -0.34602957310E+02  0.20214885424E+02  0.20168025985E+02  0.45058050551E+02  0.41800000000E+01 0.  1.
        -11    1    4    4    0    0 -0.96001699366E+01  0.69258440804E+01  0.26867963548E+02  0.29360143805E+02  0.00000000000E+00 0. -1.
         11    1    4    4    0    0  0.71759236943E+00  0.69534033514E+02 -0.66547051347E+02  0.96249710641E+02  0.00000000000E+00 0.  1.
</event>
<event>
 8    1  0.7136454E-009  0.1038310E+03  0.7561462E-02  0.1272440E+00
          4   -1    0    0  501    0  0.00000000000E+00  0.00000000000E+00  0.29341456344E+03  0.29341456344E+03  0.00000000000E+00 0. -1.
         -4   -1    0    0    0  501 -0.00000000000E+00 -0.00000000000E+00 -0.55067222193E+02  0.55067222193E+02  0.00000000000E+00 0.  1.
         25    2    1    2    0    0  0.27274174787E+01  0.58205672250E+02  0.17658160764E+03  0.22411477102E+03  0.12510406605E+03 0.  0.
         23    2    1    2    0    0 -0.27274174787E+01 -0.58205672250E+02  0.61765733600E+02  0.12436701461E+03  0.90866987339E+02 0.  0.
          5    1    3    3  502    0  0.17069980370E+02  0.76379374285E+02  0.44853321850E+02  0.90302192260E+02  0.41800000000E+01 0. -1.
         -5    1    3    3    0  502 -0.14342562892E+02 -0.18173702034E+02  0.13172828579E+03  0.13381257876E+03  0.41800000000E+01 0. -1.
        -11    1    4    4    0    0  0.28651497430E+02  0.10271193926E+02  0.69819665246E+01  0.31227449242E+02  0.00000000000E+00 0.  1.
         11    1    4    4    0    0 -0.31378914908E+02 -0.68476866177E+02  0.54783767076E+02  0.93139565369E+02  0.00000000000E+00 0. -1.
</event>
<event>
 8    1  0.7136454E-009  0.7915915E+02  0.7561462E-02  0.1331455E+00
         -2   -1    0    0    0  501 -0.00000000000E+00  0.00000000000E+00  0.10970047956E+03  0.10970047956E+03  0.00000000000E+00 0. -1.
          2   -1    0    0  501    0  0.00000000000E+00 -0.00000000000E+00 -0.12504976596E+03  0.12504976596E+03  0.00000000000E+00 0.  1.
         25    2    1    2    0    0  0.41650080316E+01 -0.46257739788E+02 -0.12650610530E+02  0.13403318359E+03  0.12509088925E+03 0.  0.
         23    2    1    2    0    0 -0.41650080316E+01  0.46257739788E+02 -0.26986758628E+01  0.10071706193E+03  0.89328147470E+02 0.  0.
          5    1    3    3  502    0 -0.14588150897E+02  0.92929266707E+01 -0.57440399000E+02  0.60133555274E+02  0.41800000000E+01 0. -1.
         -5    1    3    3    0  502  0.18753158929E+02 -0.55550666459E+02  0.44789788469E+02  0.73899628314E+02  0.41800000000E+01 0. -1.
        -11    1    4    4    0    0 -0.35618343905E+02  0.20548244842E+02 -0.30752505744E+02  0.51347963914E+02  0.00000000000E+00 0.  1.
         11    1    4    4    0    0  0.31453335874E+02  0.25709494946E+02  0.28053829881E+02  0.49369098016E+02  0.00000000000E+00 0. -1.
</event>
<event>
 7    1  0.7136454E-009  0.4101804E+03  0.7561462E-02  0.1040310E+00
          1   -1    0    0  501    0  0.00000000000E+00  0.00000000000E+00  0.53826486082E+03  0.53826486082E+03  0.00000000000E+00 0. -1.
         -1   -1    0    0    0  501 -0.00000000000E+00 -0.00000000000E+00 -0.40205089543E+03  0.40205089543E+03  0.00000000000E+00 0.  1.
         25    2    1    2    0    0  0.24422904292E+03  0.32059546071E+03 -0.24468451624E+02  0.42270412967E+03  0.12510316255E+03 0.  0.
          5    1    3    3  502    0  0.20404380937E+02  0.95470468111E+02  0.26283158830E+02  0.10118906009E+03  0.41800000000E+01 0. -1.
         -5    1    3    3    0  502  0.22382466199E+03  0.22512499260E+03 -0.50751610454E+02  0.32151506959E+03  0.41800000000E+01 0. -1.
        -11    1    1    2    0    0 -0.12134834382E+03 -0.19329015004E+03 -0.58813700560E+02  0.23568104299E+03  0.00000000000E+00 0.  1.
         11    1    1    2    0    0 -0.12288069910E+03 -0.12730531068E+03  0.21949611757E+03  0.28193058360E+03  0.00000000000E+00 0. -1.
</event>
<event>
 8    1  0.7136454E-009  0.1841440E+03  0.7561462E-02  0.1163852E+00
          1   -1    0    0  501    0  0.00000000000E+00  0.00000000000E+00  0.13257611417E+04  0.13257611417E+04  0.00000000000E+00 0. -1.
         -1   -1    0    0    0  501 -0.00000000000E+00 -0.00000000000E+00 -0.33472298315E+02  0.33472298315E+02  0.00000000000E+00 0.  1.
         25    2    1    2    0    0 -0.11299601453E+03  0.12308987924E+03  0.89159727182E+03  0.91570228583E+03  0.12508302640E+03 0.  0.
         23    2    1    2    0    0  0.11299601453E+03 -0.12308987924E+03  0.40069157159E+03  0.44353115420E+03  0.90812617716E+02 0.  0.
          5    1    3    3  502    0 -0.69456687387E+02  0.13830796460E+03  0.77362818548E+03  0.78896854581E+03  0.41800000000E+01 0.  1.
         -5    1    3    3    0  502 -0.43539327145E+02 -0.15218085365E+02  0.11796908633E+03  0.12673374002E+03  0.41800000000E+01 0.  1.
        -11    1    4    4    0    0  0.48620218342E+02 -0.49664322501E+02  0.27888322044E+03  0.28741315420E+03  0.00000000000E+00 0.  1.
         11    1    4    4    0    0  0.64375796190E+02 -0.73425556739E+02  0.12180835115E+03  0.15611800001E+03  0.00000000000E+00 0. -1.
</event>
<event>
 7    1  0.7136454E-009  0.2356965E+03  0.7561462E-02  0.1122693E+00
         -1   -1    0    0    0  501 -0.00000000000E+00  0.00000000000E+00  0.80484841926E+03  0.80484841926E+03  0.00000000000E+00 0.  1.
          1   -1    0    0  501    0  0.00000000000E+00 -0.00000000000E+00 -0.75690989243E+02  0.75690989243E+02  0.00000000000E+00 0. -1.
         25    2    1    2    0    0 -0.15368763276E+03  0.75752736298E+02  0.39029231908E+03  0.44422202102E+03  0.12508694618E+03 0.  0.
          5    1    3    3  502    0 -0.12456904853E+03  0.10151204736E+03  0.36160984932E+03  0.39572882020E+03  0.41800000000E+01 0. -1.
         -5    1    3    3    0  502 -0.29118584234E+02 -0.25759311060E+02  0.28682469753E+02  0.48493200814E+02  0.41800000000E+01 0. -1.
        -11    1    1    2    0    0  0.20621832862E+03 -0.73637757784E+02  0.29762764901E+03  0.36950065749E+03  0.00000000000E+00 0.  1.
         11    1    1    2    0    0 -0.52530695855E+02 -0.21149785137E+01  0.41237461930E+02  0.66816729998E+02  0.00000000000E+00 0. -1.
</event>
<event>
 8    1  0.7136454E-009  0.1615000E+03  0.7561462E-02  0.1187014E+00
          2   -1    0    0  501    0  0.00000000000E+00  0.00000000000E+00  0.18646357751E+03  0.18646357751E+03  0.00000000000E+00 0. -1.
         -2   -1    0    0    0  501 -0.00000000000E+00 -0.00000000000E+00 -0.16543581631E+03  0.16543581631E+03  0.00000000000E+00 0.  1.
         25    2    1    2    0    0  0.93460575062E+01  0.13386874197E+03  0.44145571226E+02  0.18869220121E+03  0.12509087286E+03 0.  0.
         23    2    1    2    0    0 -0.93460575062E+01 -0.13386874197E+03 -0.23117810024E+02  0.16320719261E+03  0.89966469934E+02 0.  0.
          5    1    3    3  502    0  0.61915386388E+02  0.10574108081E+03  0.19975447060E+02  0.12422230930E+03  0.41800000000E+01 0. -1.
         -5    1    3    3    0  502 -0.52569328881E+02  0.28127661158E+02  0.24170124166E+02  0.64469891914E+02  0.41800000000E+01 0. -1.
        -11    1    4    4    0    0  0.14559636051E+02 -0.84840798665E+02 -0.52924116579E+02  0.10104902887E+03  0.00000000000E+00 0. -1.
         11    1    4    4    0    0 -0.23905693557E+02 -0.49027943303E+02  0.29806306555E+02  0.62158163739E+02  0.00000000000E+00 0.  1.
</event>
<event>
 8    1  0.7136454E-009  0.1366405E+03  0.7561462E-02  0.1217922E+00
          1   -1    0    0  501    0  0.00000000000E+00  0.00000000000E+00  0.51751985296E+03  0.51751985296E+03  0.00000000000E+00 0. -1.
         -1   -1    0    0    0  501 -0.00000000000E+00 -0.00000000000E+00 -0.47083410734E+02  0.47083410734E+02  0.00000000000E+00 0.  1.
         25    2    1    2    0    0  0.42956055600E+02 -0.95102712659E+02  0.32641047146E+03  0.36480238407E+03  0.12508890790E+03 0.  0.
         23    2    1    2    0    0 -0.42956055600E+02  0.95102712659E+02  0.14402597077E+03  0.19980087962E+03  0.91033853999E+02 0.  0.
          5    1    3    3  502    0  0.65835041113E+02 -0.45855333819E+02  0.83548609287E+02  0.11590861397E+03  0.41800000000E+01 0.  1.
         -5    1    3    3    0  502 -0.22878985513E+02 -0.49247378839E+02  0.24286186217E+03  0.24889377011E+03  0.41800000000E+01 0.  1.
        -11    1    4    4    0    0 -0.58504659775E+02  0.20069783842E+02  0.63751522196E+02  0.88824816472E+02  0.00000000000E+00 0. -1.
         11    1    4    4    0    0  0.15548604175E+02  0.75032928817E+02  0.80274448577E+02  0.11097606315E+03  0.00000000000E+00 0.  1.
</event>
<event>
 8    1  0.7136454E-009  0.1385704E+03  0.7561462E-02  0.1215266E+00
          2   -1    0    0  501    0  0.00000000000E+00  0.00000000000E+00  0.37839739534E+03  0.37839739534E+03  0.00000000000E+00 0.  1.
         -2   -1    0    0    0  501 -0.00000000000E+00 -0.00000000000E+00 -0.85892288401E+02  0.85892288401E+02  0.00000000000E+00 0. -1.
         25    2    1    2    0    0 -0.11549906672E+03 -0.39805932426E+02  0.52180065163E+02  0.18246465157E+03  0.12508414449E+03 0.  0.
         23    2    1    2    0    0  0.11549906672E+03  0.39805932426E+02  0.24032504178E+03  0.28182503217E+03  0.82125978743E+02 0.  0.
          5    1    3    3  502    0 -0.97089783626E+02 -0.54641389788E+02 -0.13718101904E+02  0.11232883104E+03  0.41800000000E+01 0. -1.
         -5    1    3    3    0  502 -0.18409283090E+02  0.14835457362E+02  0.65898167067E+02  0.70135820532E+02  0.41800000000E+01 0. -1.
        -11    1    4    4    0    0  0.10573958905E+03  0.53974821292E+01  0.20896825139E+03  0.23425994876E+03  0.00000000000E+00 0.  1.
         11    1    4    4    0    0  0.97594776669E+01  0.34408450297E+02  0.31356790385E+02  0.47565083406E+02  0.00000000000E+00 0. -1.
</event>
<event>
 8    1  0.7136454E-009  0.1037216E+03  0.7561462E-02  0.1272659E+00
          2   -1    0    0  501    0  0.00000000000E+00  0.00000000000E+00  0.26520399641E+03  0.26520399641E+03  0.00000000000E+00 0. -1.
         -2   -1    0    0    0  501 -0.00000000000E+00 -0.00000000000E+00 -0.75424334436E+02  0.75424334436E+02  0.00000000000E+00 0.  1.
         25    2    1    2    0    0 -0.83776098780E+02  0.17494802210E+02  0.14637495092E+03  0.21070802903E+03  0.12509094455E+03 0.  0.
         23    2    1    2    0    0  0.83776098780E+02 -0.17494802210E+02  0.43404711051E+02  0.12992030182E+03  0.87583177904E+02 0.  0.
          5    1    3    3  502    0 -0.33303374794E+02  0.57799809087E+01 -0.17849639638E+02  0.38452633033E+02  0.41800000000E+01 0.  1.
         -5    1    3    3    0  502 -0.50472723986E+02  0.11714821301E+02  0.16422459056E+03  0.17225539599E+03  0.41800000000E+01 0.  1.
        -11    1    4    4    0    0 -0.10085440765E+02 -0.25280414051E+02  0.28175135617E+01  0.27363366618E+02  0.00000000000E+00 0.  1.
         11    1    4    4    0    0  0.93861539545E+02  0.77856118409E+01  0.40587197490E+02  0.10255693520E+03  0.00000000000E+00 0. -1.
</event>
<event>
 8    1  0.7136454E-009  0.1443158E+03  0.7561462E-02  0.1207637E+00
          2   -1    0    0  501    0  0.00000000000E+00  0.00000000000E+00  0.54550023097E+03  0.54550023097E+03  0.00000000000E+00 0. -1.
         -2   -1    0    0    0  501 -0.00000000000E+00 -0.00000000000E+00 -0.48111713812E+02  0.48111713812E+02  0.00000000000E+00 0.  1.
         25    2    1    2    0    0  0.11559643254E+03  0.96521797041E+01  0.21111709055E+03  0.27142814659E+03  0.12508842092E+03 0.  0.
         23    2    1    2    0    0 -0.11559643254E+03 -0.96521797041E+01  0.28627142660E+03  0.32218379819E+03  0.91626253535E+02 0.  0.
          5    1    3    3  502    0  0.75052872474E+02 -0.53603612438E+02  0.90635166247E+02  0.12937730363E+03  0.41800000000E+01 0. -1.
         -5    1    3    3    0  502  0.40543560066E+02  0.63255792143E+02  0.12048192431E+03  0.14205084296E+03  0.41800000000E+01 0. -1.
        -11    1    4    4    0    0 -0.30319931634E+02 -0.18184803155E+02  0.16292381926E+02  0.38928486085E+02  0.00000000000E+00 0.  1.
         11    1    4    4    0    0 -0.85276500906E+02  0.85326234511E+01  0.26997904468E+03  0.28325531210E+03  0.00000000000E+00 0. -1.
</event>
<event>
 8    1  0.7136454E-009  0.2119357E+03  0.7561462E-02  0.1140042E+00
         -2   -1    0    0    0  501 -0.00000000000E+00  0.00000000000E+00  0.44194264919E+02  0.44194264919E+02  0.00000000000E+00 0.  1.
          2   -1    0    0  501    0  0.00000000000E+00 -0.00000000000E+00 -0.10284985276E+04  0.10284985276E+04  0.00000000000E+00 0. -1.
         25    2    1    2    0    0 -0.35774922622E+02  0.17992917073E+03 -0.50794072383E+03  0.55435275642E+03  0.12509535583E+03 0.  0.
         23    2    1    2    0    0  0.35774922622E+02 -0.17992917073E+03 -0.47636353880E+03  0.51834003606E+03  0.89999001716E+02 0.  0.
          5    1    3    3  502    0  0.16235145015E+02  0.16633897616E+03 -0.36102059685E+03  0.39785120168E+03  0.41800000000E+01 0. -1.
         -5    1    3    3    0  502 -0.52010067636E+02  0.13590194570E+02 -0.14692012698E+03  0.15650155474E+03  0.41800000000E+01 0. -1.
        -11    1    4    4    0    0 -0.10731486981E+02 -0.14295697462E+03 -0.36449028573E+03  0.39166954157E+03  0.00000000000E+00 0. -1.
         11    1    4    4    0    0  0.46506409602E+02 -0.36972196111E+02 -0.11187325308E+03  0.12667049449E+03  0.00000000000E+00 0.  1.
</event>
<event>
 8    1  0.7136454E-009  0.1171216E+03  0.7561462E-02  0.1247922E+00
          1   -1    0    0  501    0  0.00000000000E+00  0.00000000000E+00  0.41135000310E+03  0.41135000310E+03  0.00000000000E+00 0. -1.
         -1   -1    0    0    0  501 -0.00000000000E+00 -0.00000000000E+00 -0.58321384662E+02  0.58321384662E+02  0.00000000000E+00 0.  1.
         25    2    1    2    0    0 -0.79191619329E+02  0.21123707446E+02  0.30231721682E+03  0.33728427332E+03  0.12508979916E+03 0.  0.
         23    2    1    2    0    0  0.79191619329E+02 -0.21123707446E+02  0.50711401621E+02  0.13238711444E+03  0.90758901648E+02 0.  0.
          5    1    3    3  502    0 -0.48796428486E+02  0.73768395198E+02  0.17395636197E+03  0.19519517369E+03  0.41800000000E+01 0.  1.
         -5    1    3    3    0  502 -0.30395190843E+02 -0.52644687753E+02  0.12836085485E+03  0.14208909962E+03  0.41800000000E+01 0.  1.
        -11    1    4    4    0    0  0.85367088780E+01 -0.10150255032E+02  0.58939463281E+02  0.60413271783E+02  0.00000000000E+00 0. -1.
         11    1    4    4    0    0  0.70654910451E+02 -0.10973452414E+02 -0.82280616601E+01  0.71973842661E+02  0.00000000000E+00 0.  1.
</event>
<event>
 8    1  0.7136454E-009  0.2680786E+03  0.7561462E-02  0.1102384E+00
         -1   -1    0    0    0  501 -0.00000000000E+00  0.00000000000E+00  0.18036808215E+03  0.18036808215E+03  0.00000000000E+00 0.  1.
          1   -1    0    0  501    0  0.00000000000E+00 -0.00000000000E+00 -0.44054925361E+03  0.44054925361E+03  0.00000000000E+00 0. -1.
         25    2    1    2    0    0  0.10696680142E+03 -0.22730394165E+03 -0.20682085445E+03  0.34861239048E+03  0.12508698761E+03 0.  0.
         23    2    1    2    0    0 -0.10696680142E+03  0.22730394165E+03 -0.53360317008E+02  0.27230494527E+03  0.90518955432E+02 0.  0.
          5    1    3    3  502    0  0.12028550628E+03 -0.23510010840E+03 -0.18967765685E+03  0.32517033982E+03  0.41800000000E+01 0.  1.
         -5    1    3    3    0  502 -0.13318704861E+02  0.77961667549E+01 -0.17143197599E+02  0.23442050660E+02  0.41800000000E+01 0.  1.
        -11    1    4    4    0    0 -0.66530010582E+02  0.18893937881E+03 -0.80507810179E+01  0.20047230794E+03  0.00000000000E+00 0.  1.
         11    1    4    4    0    0 -0.40436790835E+02  0.38364562836E+02 -0.45309535991E+02  0.71832637334E+02  0.00000000000E+00 0. -1.
</event>
<event>
 8    1  0.7136454E-009  0.1155559E+03  0.7561462E-02  0.1250614E+00
         -2   -1    0    0    0  501 -0.00000000000E+00  0.00000000000E+00  0.42527454549E+02  0.42527454549E+02  0.00000000000E+00 0.  1.
          2   -1    0    0  501    0  0.00000000000E+00 -0.00000000000E+00 -0.45534725290E+03  0.45534725290E+03  0.00000000000E+00 0. -1.
         25    2    1    2    0    0  0.64635015078E+02  0.15328267479E+02 -0.32121111581E+03  0.35105107513E+03  0.12509050912E+03 0.  0.
         23    2    1    2    0    0 -0.64635015078E+02 -0.15328267479E+02 -0.91608682547E+02  0.14682363232E+03  0.93554194630E+02 0.  0.
          5    1    3    3  502    0 -0.25526008726E+02 -0.19745917264E+01 -0.12206273692E+02  0.28669524786E+02  0.41800000000E+01 0.  1.
         -5    1    3    3    0  502  0.90161023804E+02  0.17302859205E+02 -0.30900484211E+03  0.32238155034E+03  0.41800000000E+01 0.  1.
        -11    1    4    4    0    0 -0.13954614862E+02  0.37529831343E+02 -0.21513010282E+02  0.45453593125E+02  0.00000000000E+00 0.  1.
         11    1    4    4    0    0 -0.50680400216E+02 -0.52858098821E+02 -0.70095672265E+02  0.10137003920E+03  0.00000000000E+00 0. -1.
</event>
<event>
 8    1  0.7136454E-009  0.1023068E+03  0.7561462E-02  0.1275519E+00
         -1   -1    0    0    0  501 -0.00000000000E+00  0.00000000000E+00  0.38635880451E+02  0.38635880451E+02  0.00000000000E+00 0.  1.
          1   -1    0    0  501    0  0.00000000000E+00 -0.00000000000E+00 -0.40628157752E+03  0.40628157752E+03  0.00000000000E+00 0. -1.
         25    2    1    2    0    0  0.16514497616E+02 -0.51913081438E+02 -0.15013015802E+03  0.20286514651E+03  0.12508999426E+03 0.  0.
         23    2    1    2    0    0 -0.16514497616E+02  0.51913081438E+02 -0.21751553905E+03  0.24205231146E+03  0.91151605034E+02 0.  0.
          5    1    3    3  502    0  0.37750790727E+02  0.11378931629E+02 -0.12545043074E+03  0.13156703712E+03  0.41800000000E+01 0.  1.
         -5    1    3    3    0  502 -0.21236293111E+02 -0.63292013067E+02 -0.24679727284E+02  0.71298109386E+02  0.41800000000E+01 0.  1.
        -11    1    4    4    0    0 -0.42919320714E+02  0.36682941543E+01 -0.51368579923E+02  0.67039208497E+02  0.00000000000E+00 0.  1.
         11    1    4    4    0    0  0.26404823097E+02  0.48244787284E+02 -0.16614695912E+03  0.17501310296E+03  0.00000000000E+00 0. -1.
</event>
<event>
 8    1  0.7136454E-009  0.1234720E+03  0.7561462E-02  0.1237477E+00
          2   -1    0    0  501    0  0.00000000000E+00  0.00000000000E+00  0.17697351345E+03  0.17697351345E+03  0.00000000000E+00 0. -1.
         -2   -1    0    0    0  501 -0.00000000000E+00 -0.00000000000E+00 -0.11382556293E+03  0.11382556293E+03  0.00000000000E+00 0.  1.
         25    2    1    2    0    0  0.68580696439E+02 -0.41034171142E+02  0.80434719339E+02  0.16882620730E+03  0.12508168959E+03 0.  0.
         23    2    1    2    0    0 -0.68580696439E+02  0.41034171142E+02 -0.17286768814E+02  0.12197286908E+03  0.90506537276E+02 0.  0.
          5    1    3    3  502    0  0.62412843239E+02 -0.80380610807E+02  0.78749042047E+02  0.12874505667E+03  0.41800000000E+01 0.  1.
         -5    1    3    3    0  502  0.61678532000E+01  0.39346439665E+02  0.16856772920E+01  0.40081150624E+02  0.41800000000E+01 0.  1.
        -11    1    4    4    0    0 -0.80827085435E+02  0.24476870889E+02  0.12898750838E+02  0.85431333372E+02  0.00000000000E+00 0. -1.
         11    1    4    4    0    0  0.12246388996E+02  0.16557300253E+02 -0.30185519652E+02  0.36541535706E+02  0.00000000000E+00 0.  1.
</event>
<event>
 8    1  0.7136454E-009  0.1071970E+03  0.7561462E-02  0.1265850E+00
         -2   -1    0    0    0  501 -0.00000000000E+00  0.00000000000E+00  0.35493723181E+02  0.35493723181E+02  0.00000000000E+00 0.  1.
          2   -1    0    0  501    0  0.00000000000E+00 -0.00000000000E+00 -0.40590240090E+03  0.40590240090E+03  0.00000000000E+00 0. -1.
         25    2    1    2    0    0  0.44648714722E+02  0.48722853616E+01 -0.23184192228E+03  0.26723713201E+03  0.12509101050E+03 0.  0.
         23    2    1    2    0    0 -0.44648714722E+02 -0.48722853616E+01 -0.13856675544E+03  0.17415899207E+03  0.95463929913E+02 0.  0.
          5    1    3    3  502    0  0.43056631088E+02  0.51225243512E+02 -0.19969648300E+03  0.21065150551E+03  0.41800000000E+01 0. -1.
         -5    1    3    3    0  502  0.15920836338E+01 -0.46352958150E+02 -0.32145439280E+02  0.56585626497E+02  0.41800000000E+01 0. -1.
        -11    1    4    4    0    0 -0.67471627936E+02 -0.23366032692E+02 -0.11927905661E+03  0.13901757229E+03  0.00000000000E+00 0. -1.
         11    1    4    4    0    0  0.22822913214E+02  0.18493747331E+02 -0.19287698834E+02  0.35141419781E+02  0.00000000000E+00 0.  1.
</event>
<event>
 8    1  0.7136454E-009  0.1567661E+03  0.7561462E-02  0.1192397E+00
         -3   -1    0    0    0  501 -0.00000000000E+00  0.00000000000E+00  0.25665452526E+03  0.25665452526E+03  0.00000000000E+00 0.  1.
          3   -1    0    0  501    0  0.00000000000E+00 -0.00000000000E+00 -0.10010093411E+03  0.10010093411E+03  0.00000000000E+00 0. -1.
         25    2    1    2    0    0 -0.10069756434E+03 -0.60944300037E+02  0.68143507723E+02  0.18478340289E+03  0.12508861326E+03 0.  0.
         23    2    1    2    0    0  0.10069756434E+03  0.60944300037E+02  0.88410083434E+02  0.17197205648E+03  0.88903533041E+02 0.  0.
          5    1    3    3  502    0 -0.65598571696E+01 -0.70897615019E+02  0.52924536525E+02  0.88814314769E+02  0.41800000000E+01 0.  1.
         -5    1    3    3    0  502 -0.94137707167E+02  0.99533149822E+01  0.15218971199E+02  0.95969088118E+02  0.41800000000E+01 0.  1.
        -11    1    4    4    0    0  0.55301892516E+02  0.80794662896E+02  0.60841764572E+02  0.11527270789E+03  0.00000000000E+00 0. -1.
         11    1    4    4    0    0  0.45395671821E+02 -0.19850362859E+02  0.27568318863E+02  0.56699348590E+02  0.00000000000E+00 0.  1.
</event>
<event>
 8    1  0.7136454E-009  0.1159384E+03  0.7561462E-02  0.1249952E+00
         -1   -1    0    0    0  501 -0.00000000000E+00  0.00000000000E+00  0.28234453617E+03  0.28234453617E+03  0.00000000000E+00 0.  1.
          1   -1    0    0  501    0  0.00000000000E+00 -0.00000000000E+00 -0.52969296676E+02  0.52969296676E+02  0.00000000000E+00 0. -1.
         25    2    1    2    0    0 -0.95126080223E+00  0.49199192343E+02  0.16171194950E+03  0.21028442731E+03  0.12508924948E+03 0.  0.
         23    2    1    2    0    0  0.95126080223E+00 -0.49199192343E+02  0.67663289993E+02  0.12502940553E+03  0.92911603202E+02 0.  0.
          5    1    3    3  502    0 -0.56622775947E+02  0.53992184217E+02  0.96686070172E+02  0.12444662823E+03  0.41800000000E+01 0.  1.
         -5    1    3    3    0  502  0.55671515145E+02 -0.47929918735E+01  0.65025879325E+02  0.85837799085E+02  0.41800000000E+01 0.  1.
        -11    1    4    4    0    0  0.42225605842E+02 -0.18744359039E+02  0.55686733447E+02  0.72355822616E+02  0.00000000000E+00 0. -1.
         11    1    4    4    0    0 -0.41274345040E+02 -0.30454833304E+02  0.11976556546E+02  0.52673582912E+02  0.00000000000E+00 0.  1.
</event>
<event>
 8    1  0.7136454E-009  0.8695607E+02  0.7561462E-02  0.1310395E+00
         -2   -1    0    0    0  501 -0.00000000000E+00  0.00000000000E+00  0.20317591801E+03  0.20317591801E+03  0.00000000000E+00 0. -1.
          2   -1    0    0  501    0  0.00000000000E+00 -0.00000000000E+00 -0.72579166733E+02  0.72579166733E+02  0.00000000000E+00 0.  1.
         25    2    1    2    0    0 -0.12059313737E+02 -0.54354870087E+02  0.75950608122E+02  0.15657656716E+03  0.12509135686E+03 0.  0.
         23    2    1    2    0    0  0.12059313737E+02  0.54354870087E+02  0.54646143150E+02  0.11917851758E+03  0.90096832021E+02 0.  0.
          5    1    3    3  502    0 -0.40218274624E+02 -0.73510480381E+02  0.86673444026E+02  0.12062776894E+03  0.41800000000E+01 0. -1.
         -5    1    3    3    0  502  0.28158960887E+02  0.19155610294E+02 -0.10722835904E+02  0.35948798225E+02  0.41800000000E+01 0. -1.
        -11    1    4    4    0    0  0.34535517756E+01  0.12275596589E+02  0.71804262501E+02  0.72927836968E+02  0.00000000000E+00 0. -1.
         11    1    4    4    0    0  0.86057619614E+01  0.42079273498E+02 -0.17158119351E+02  0.46250680608E+02  0.00000000000E+00 0.  1.
</event>
<event>
 8    1  0.7136454E-009  0.1069568E+03  0.7561462E-02  0.1266311E+00
          1   -1    0    0  501    0  0.00000000000E+00  0.00000000000E+00  0.18271167872E+02  0.18271167872E+02  0.00000000000E+00 0. -1.
         -1   -1    0    0    0  501 -0.00000000000E+00 -0.00000000000E+00 -0.82752319124E+03  0.82752319124E+03  0.00000000000E+00 0.  1.
         25    2    1    2    0    0 -0.17046657936E+01  0.43960195569E+02 -0.60207201334E+03  0.61650104320E+03  0.12508965721E+03 0.  0.
         23    2    1    2    0    0  0.17046657936E+01 -0.43960195569E+02 -0.20718001003E+03  0.22929331591E+03  0.87843403202E+02 0.  0.
          5    1    3    3  502    0  0.40324044601E+02  0.65034796799E+02 -0.25599473422E+03  0.26721962824E+03  0.41800000000E+01 0.  1.
         -5    1    3    3    0  502 -0.42028710395E+02 -0.21074601230E+02 -0.34607727912E+03  0.34928141496E+03  0.41800000000E+01 0.  1.
        -11    1    4    4    0    0 -0.36177921115E+02 -0.64193943260E+01 -0.13266224556E+03  0.13765653634E+03  0.00000000000E+00 0.  1.
         11    1    4    4    0    0  0.37882586909E+02 -0.37540801243E+02 -0.74517764461E+02  0.91636779565E+02  0.00000000000E+00 0. -1.
</event>
<event>
 8    1  0.7136454E-009  0.1154188E+03  0.7561462E-02  0.1250852E+00
          1   -1    0    0  501    0  0.00000000000E+00  0.00000000000E+00  0.52889052966E+03  0.52889052966E+03  0.00000000000E+00 0. -1.
         -1   -1    0    0    0  501 -0.00000000000E+00 -0.00000000000E+00 -0.27764043036E+02  0.27764043036E+02  0.00000000000E+00 0.  1.
         25    2    1    2    0    0  0.14657672986E+02 -0.52405931137E+02  0.30384223611E+03  0.33306034856E+03  0.12509141594E+03 0.  0.
         23    2    1    2    0    0 -0.14657672986E+02  0.52405931137E+02  0.19728425052E+03  0.22359422414E+03  0.90067044865E+02 0.  0.
          5    1    3    3  502    0  0.49647378152E+02  0.20810826582E+02  0.14310075139E+03  0.15294852111E+03  0.41800000000E+01 0. -1.
         -5    1    3    3    0  502 -0.34989705166E+02 -0.73216757719E+02  0.16074148471E+03  0.18011182745E+03  0.41800000000E+01 0. -1.
        -11    1    4    4    0    0  0.16675370902E+01  0.70899606663E+02  0.96032735724E+02  0.11938099194E+03  0.00000000000E+00 0.  1.
         11    1    4    4    0    0 -0.16325210076E+02 -0.18493675526E+02  0.10125151479E+03  0.10421323220E+03  0.00000000000E+00 0. -1.
</event>
<event>
 8    1  0.7136454E-009  0.9964890E+02  0.7561462E-02  0.1281036E+00
          2   -1    0    0  501    0  0.00000000000E+00  0.00000000000E+00  0.29575802741E+04  0.29575802741E+04  0.00000000000E+00 0.  1.
         -2   -1    0    0    0  501 -0.00000000000E+00 -0.00000000000E+00 -0.12352230779E+02  0.12352230779E+02  0.00000000000E+00 0. -1.
         25    2    1    2    0    0 -0.53625140287E+01  0.37700274887E+02  0.27416720026E+04  0.27447883799E+04  0.12509121904E+03 0.  0.
         23    2    1    2    0    0  0.53625140287E+01 -0.37700274887E+02  0.20355604071E+03  0.22514412501E+03  0.88344485020E+02 0.  0.
          5    1    3    3  502    0 -0.40548346730E+02  0.64541173821E+02  0.11698399352E+04  0.11723278884E+04  0.41800000000E+01 0.  1.
         -5    1    3    3    0  502  0.35185832702E+02 -0.26840898934E+02  0.15718320674E+04  0.15724604914E+04  0.41800000000E+01 0.  1.
        -11    1    4    4    0    0  0.34173850831E+02 -0.36017033618E+02  0.56207256125E+02  0.74995562751E+02  0.00000000000E+00 0. -1.
         11    1    4    4    0    0 -0.28811336803E+02 -0.16832412692E+01  0.14734878459E+03  0.15014856226E+03  0.00000000000E+00 0.  1.
</event>
<event>
 8    1  0.7136454E-009  0.9568938E+02  0.7561462E-02  0.1289631E+00
         -1   -1    0    0    0  501 -0.00000000000E+00  0.00000000000E+00  0.15625507946E+03  0.15625507946E+03  0.00000000000E+00 0.  1.
          1   -1    0    0  501    0  0.00000000000E+00 -0.00000000000E+00 -0.17530527456E+03  0.17530527456E+03  0.00000000000E+00 0. -1.
         25    2    1    2    0    0  0.87354100063E+02 -0.10377475147E+02 -0.97876098532E+02  0.18156341212E+03  0.12508841341E+03 0.  0.
         23    2    1    2    0    0 -0.87354100063E+02  0.10377475147E+02  0.78825903428E+02  0.14999694190E+03  0.92450682748E+02 0.  0.
          5    1    3    3  502    0 -0.32131602788E-01  0.12279668445E+02  0.25511572371E+02  0.28619993264E+02  0.41800000000E+01 0.  1.
         -5    1    3    3    0  502  0.87386231666E+02 -0.22657143592E+02 -0.12338767090E+03  0.15294341886E+03  0.41800000000E+01 0.  1.
        -11    1    4    4    0    0 -0.28648084365E+02  0.17903076228E+01 -0.19820949954E+02  0.34882488390E+02  0.00000000000E+00 0. -1.
         11    1    4    4    0    0 -0.58706015698E+02  0.85871675247E+01  0.98646853382E+02  0.11511445351E+03  0.00000000000E+00 0.  1.
</event>
<event>
 8    1  0.7136454E-009  0.1007764E+03  0.7561462E-02  0.1278672E+00
         -3   -1    0    0    0  501 -0.00000000000E+00  0.00000000000E+00  0.10978797752E+03  0.10978797752E+03  0.00000000000E+00 0. -1.
          3   -1    0    0  501    0  0.00000000000E+00 -0.00000000000E+00 -0.11249987937E+03  0.11249987937E+03  0.00000000000E+00 0.  1.
         25    2    1    2    0    0 -0.75573450882E+01 -0.21408427700E+02 -0.12816740550E+01  0.12713869158E+03  0.12508864843E+03 0.  0.
         23    2    1    2    0    0  0.75573450882E+01  0.21408427700E+02 -0.14302277963E+01  0.95149165317E+02  0.92389847210E+02 0.  0.
          5    1    3    3  502    0 -0.48509365904E+02 -0.54174231104E+02  0.94289306564E+01  0.73446463696E+02  0.41800000000E+01 0. -1.
         -5    1    3    3    0  502  0.40952020816E+02  0.32765803404E+02 -0.10710604711E+02  0.53692227881E+02  0.41800000000E+01 0. -1.
        -11    1    4    4    0    0 -0.31485696147E+02  0.19449998446E+02 -0.29247024811E+02  0.47170329251E+02  0.00000000000E+00 0.  1.
         11    1    4    4    0    0  0.39043041235E+02  0.19584292545E+01  0.27816797015E+02  0.47978836065E+02  0.00000000000E+00 0. -1.
</event>
<event>
 8    1  0.7136454E-009  0.1049601E+03  0.7561462E-02  0.1270198E+00
          2   -1    0    0  501    0  0.00000000000E+00  0.00000000000E+00  0.12118290440E+04  0.12118290440E+04  0.00000000000E+00 0. -1.
         -2   -1    0    0    0  501 -0.00000000000E+00 -0.00000000000E+00 -0.10632419542E+02  0.10632419542E+02  0.00000000000E+00 0.  1.
         25    2    1    2    0    0 -0.24748929731E+02  0.10927205121E+02  0.75313080364E+03  0.76392818037E+03  0.12509334134E+03 0.  0.
         23    2    1    2    0    0  0.24748929731E+02 -0.10927205121E+02  0.44806582081E+03  0.45853328316E+03  0.93583538350E+02 0.  0.
          5    1    3    3  502    0  0.38692269491E+02  0.29428157586E+02  0.16445939273E+03  0.17154437454E+03  0.41800000000E+01 0.  1.
         -5    1    3    3    0  502 -0.63441199222E+02 -0.18500952465E+02  0.58867141090E+03  0.59238380583E+03  0.41800000000E+01 0.  1.
        -11    1    4    4    0    0  0.20629309883E+02  0.39370083125E+02  0.15901466659E+03  0.16510976974E+03  0.00000000000E+00 0.  1.
         11    1    4    4    0    0  0.41196198482E+01 -0.50297288246E+02  0.28905115422E+03  0.29342351342E+03  0.00000000000E+00 0. -1.
</event>
<event>
 8    1  0.7136454E-009  0.1257281E+03  0.7561462E-02  0.1233936E+00
         -2   -1    0    0    0  501 -0.00000000000E+00  0.00000000000E+00  0.23930666568E+03  0.23930666568E+03  0.00000000000E+00 0. -1.
          2   -1    0    0  501    0  0.00000000000E+00 -0.00000000000E+00 -0.96134698323E+02  0.96134698323E+02  0.00000000000E+00 0.  1.
         25    2    1    2    0    0  0.81761142253E+00 -0.95703795810E+02  0.30900906732E+02  0.16048920021E+03  0.12506811075E+03 0.  0.
         23    2    1    2    0    0 -0.81761142253E+00  0.95703795810E+02  0.11227106062E+03  0.17495216379E+03  0.94040329332E+02 0.  0.
          5    1    3    3  502    0 -0.82592858189E+01  0.13035372435E+02 -0.31063083829E+02  0.34936003116E+02  0.41800000000E+01 0. -1.
         -5    1    3    3    0  502  0.90768972414E+01 -0.10873916824E+03  0.61963990562E+02  0.12555319709E+03  0.41800000000E+01 0. -1.
        -11    1    4    4    0    0  0.27784477016E+02  0.93549048752E+02  0.10864919839E+03  0.14604126128E+03  0.00000000000E+00 0. -1.
         11    1    4    4    0    0 -0.28602088438E+02  0.21547470577E+01  0.36218622322E+01  0.28910902510E+02  0.00000000000E+00 0.  1.
</event>
<event>
 8    1  0.7136454E-009  0.1311734E+03  0.7561462E-02  0.1225725E+00
         -1   -1    0    0    0  501 -0.00000000000E+00  0.00000000000E+00  0.82068625524E+02  0.82068625524E+02  0.00000000000E+00 0.  1.
          1   -1    0    0  501    0  0.00000000000E+00 -0.00000000000E+00 -0.57487121301E+03  0.57487121301E+03  0.00000000000E+00 0. -1.
         25    2    1    2    0    0  0.79965004459E+02 -0.55337937345E+02 -0.49840333434E+03  0.52298192628E+03  0.12509005671E+03 0.  0.
         23    2    1    2    0    0 -0.79965004459E+02  0.55337937345E+02  0.56007468572E+01  0.13395791225E+03  0.91960125278E+02 0.  0.
          5    1    3    3  502    0  0.10423753907E+03 -0.17511823374E+02 -0.26649105597E+03  0.28671777730E+03  0.41800000000E+01 0.  1.
         -5    1    3    3    0  502 -0.24272534609E+02 -0.37826113971E+02 -0.23191227837E+03  0.23626414898E+03  0.41800000000E+01 0.  1.
        -11    1    4    4    0    0 -0.46205249883E+02  0.61690630313E+02 -0.31618170620E+02  0.83308869267E+02  0.00000000000E+00 0. -1.
         11    1    4    4    0    0 -0.33759754576E+02 -0.63526929672E+01  0.37218917477E+02  0.50649042983E+02  0.00000000000E+00 0.  1.
</event>
<event>
 8    1  0.7136454E-009  0.2123111E+03  0.7561462E-02  0.1139749E+00
         -2   -1    0    0    0  501 -0.00000000000E+00  0.00000000000E+00  0.50787557673E+02  0.50787557673E+02  0.00000000000E+00 0.  1.
          2   -1    0    0  501    0  0.00000000000E+00 -0.00000000000E+00 -0.99865473374E+03  0.99865473374E+03  0.00000000000E+00 0. -1.
         25    2    1    2    0    0 -0.86878885581E+02  0.17310125476E+03 -0.56827090145E+03  0.61326308601E+03  0.12509120702E+03 0.  0.
         23    2    1    2    0    0  0.86878885581E+02 -0.17310125476E+03 -0.37959627462E+03  0.43617920540E+03  0.92989151836E+02 0.  0.
          5    1    3    3  502    0  0.18570181854E+02 -0.18810041532E+01 -0.10786115212E+03  0.10954401110E+03  0.41800000000E+01 0. -1.
         -5    1    3    3    0  502 -0.10544906743E+03  0.17498225892E+03 -0.46040974933E+03  0.50371907492E+03  0.41800000000E+01 0. -1.
        -11    1    4    4    0    0  0.54978575775E+02 -0.15502780026E+03 -0.23394070318E+03  0.28597992106E+03  0.00000000000E+00 0.  1.
         11    1    4    4    0    0  0.31900309806E+02 -0.18073454500E+02 -0.14565557144E+03  0.15019928434E+03  0.00000000000E+00 0. -1.
</event>
<event>
 8    1  0.7136454E-009  0.2449998E+03  0.7561462E-02  0.1116506E+00
         -1   -1    0    0    0  501 -0.00000000000E+00  0.00000000000E+00  0.22616197520E+03  0.22616197520E+03  0.00000000000E+00 0.  1.
          1   -1    0    0  501    0  0.00000000000E+00 -0.00000000000E+00 -0.27546391812E+03  0.27546391812E+03  0.00000000000E+00 0. -1.
         25    2    1    2    0    0  0.21634570906E+03 -0.69659526840E+02 -0.10646493343E+02  0.25965186229E+03  0.12509127173E+03 0.  0.
         23    2    1    2    0    0 -0.21634570906E+03  0.69659526840E+02 -0.38655449574E+02  0.24197403103E+03  0.73479741451E+02 0.  0.
          5    1    3    3  502    0  0.14142609148E+03  0.18950119565E+02  0.26860120198E+01  0.14277651573E+03  0.41800000000E+01 0.  1.
         -5    1    3    3    0  502  0.74919617572E+02 -0.88609646405E+02 -0.13332505363E+02  0.11687534656E+03  0.41800000000E+01 0.  1.
        -11    1    4    4    0    0 -0.91732665579E+02  0.79393679659E+01 -0.45583296076E+02  0.10274119125E+03  0.00000000000E+00 0. -1.
         11    1    4    4    0    0 -0.12461304348E+03  0.61720158875E+02  0.69278465017E+01  0.13923283978E+03  0.00000000000E+00 0.  1.
</event>
<event>
 8    1  0.7136454E-009  0.1271468E+03  0.7561462E-02  0.1231752E+00
         -2   -1    0    0    0  501 -0.00000000000E+00  0.00000000000E+00  0.20609268091E+03  0.20609268091E+03  0.00000000000E+00 0.  1.
          2   -1    0    0  501    0  0.00000000000E+00 -0.00000000000E+00 -0.14351496257E+03  0.14351496257E+03  0.00000000000E+00 0. -1.
         25    2    1    2    0    0 -0.37048377903E+01 -0.11664390080E+03 -0.32145553229E+02  0.17407893836E+03  0.12510241713E+03 0.  0.
         23    2    1    2    0    0  0.37048377903E+01  0.11664390080E+03  0.94723271566E+02  0.17552870511E+03  0.90654854949E+02 0.  0.
          5    1    3    3  502    0 -0.48616635475E+01 -0.31403560764E+02 -0.72797964768E+02  0.79541407301E+02  0.41800000000E+01 0.  1.
         -5    1    3    3    0  502  0.11568257572E+01 -0.85240340037E+02  0.40652411539E+02  0.94537531063E+02  0.41800000000E+01 0.  1.
        -11    1    4    4    0    0  0.37315818404E+02  0.70986029307E+02  0.86977132551E+02  0.11830683939E+03  0.00000000000E+00 0.  1.
         11    1    4    4    0    0 -0.33610980614E+02  0.45657871494E+02  0.77461390148E+01  0.57221865723E+02  0.00000000000E+00 0. -1.
</event>
<event>
 8    1  0.7136454E-009  0.1499269E+03  0.7561462E-02  0.1200563E+00
          1   -1    0    0  501    0  0.00000000000E+00  0.00000000000E+00  0.32897227273E+03  0.32897227273E+03  0.00000000000E+00 0. -1.
         -1   -1    0    0    0  501 -0.00000000000E+00 -0.00000000000E+00 -0.11460925832E+03  0.11460925832E+03  0.00000000000E+00 0.  1.
         25    2    1    2    0    0  0.83133241844E+02  0.12414098743E+03  0.46246414083E+02  0.20026846499E+03  0.12508639651E+03 0.  0.
         23    2    1    2    0    0 -0.83133241844E+02 -0.12414098743E+03  0.16811660033E+03  0.24331306606E+03  0.92822067148E+02 0.  0.
          5    1    3    3  502    0  0.39903963012E+02  0.67049200980E+02  0.87667295475E+02  0.11743487009E+03  0.41800000000E+01 0. -1.
         -5    1    3    3    0  502  0.43229278832E+02  0.57091786454E+02 -0.41420881392E+02  0.82833594900E+02  0.41800000000E+01 0. -1.
        -11    1    4    4    0    0 -0.70337086617E+02 -0.95436612866E+02  0.17477188104E+03  0.21118869106E+03  0.00000000000E+00 0. -1.
         11    1    4    4    0    0 -0.12796155228E+02 -0.28704374568E+02 -0.66552807115E+01  0.32124375002E+02  0.00000000000E+00 0.  1.
</event>
<event>
 8    1  0.7136454E-009  0.1388077E+03  0.7561462E-02  0.1214942E+00
         -3   -1    0    0    0  501 -0.00000000000E+00  0.00000000000E+00  0.18730703008E+03  0.18730703008E+03  0.00000000000E+00 0.  1.
          3   -1    0    0  501    0  0.00000000000E+00 -0.00000000000E+00 -0.14541800419E+03  0.14541800419E+03  0.00000000000E+00 0. -1.
         25    2    1    2    0    0  0.93910114883E+02 -0.49481492122E+02  0.85580475360E+02  0.18503822652E+03  0.12509036642E+03 0.  0.
         23    2    1    2    0    0 -0.93910114883E+02  0.49481492122E+02 -0.43691449473E+02  0.14768680775E+03  0.92924284700E+02 0.  0.
          5    1    3    3  502    0 -0.15801314744E+02  0.20164995626E+02 -0.51882076199E+01  0.26470710125E+02  0.41800000000E+01 0. -1.
         -5    1    3    3    0  502  0.10971142963E+03 -0.69646487748E+02  0.90768682980E+02  0.15856751640E+03  0.41800000000E+01 0. -1.
        -11    1    4    4    0    0 -0.44032154909E+02  0.56109109783E+02  0.12335371667E+02  0.72382485871E+02  0.00000000000E+00 0.  1.
         11    1    4    4    0    0 -0.49877959973E+02 -0.66276176613E+01 -0.56026821140E+02  0.75304321881E+02  0.00000000000E+00 0. -1.
</event>
<event>
 8    1  0.7136454E-009  0.9256090E+02  0.7561462E-02  0.1296766E+00
         -3   -1    0    0    0  501 -0.00000000000E+00  0.00000000000E+00  0.11091865170E+03  0.11091865170E+03  0.00000000000E+00 0.  1.
          3   -1    0    0  501    0  0.00000000000E+00 -0.00000000000E+00 -0.11221008832E+03  0.11221008832E+03  0.00000000000E+00 0. -1.
         25    2    1    2    0    0 -0.11381284017E+02  0.52338945461E+01 -0.17544759489E+02  0.12693481525E+03  0.12509077288E+03 0.  0.
         23    2    1    2    0    0  0.11381284017E+02 -0.52338945461E+01  0.16253322863E+02  0.96193924770E+02  0.93979643437E+02 0.  0.
          5    1    3    3  502    0  0.45476774140E+02  0.38476365283E+02 -0.77756589423E+01  0.60220436261E+02  0.41800000000E+01 0. -1.
         -5    1    3    3    0  502 -0.56858058157E+02 -0.33242470737E+02 -0.97691005470E+01  0.66714378987E+02  0.41800000000E+01 0. -1.
        -11    1    4    4    0    0 -0.21266589857E+02  0.98610773403E+01  0.44608440321E+02  0.50392674451E+02  0.00000000000E+00 0.  1.
         11    1    4    4    0    0  0.32647873874E+02 -0.15094971886E+02 -0.28355117458E+02  0.45801250319E+02  0.00000000000E+00 0. -1.
</event>
<event>
 8    1  0.7136454E-009  0.1241142E+03  0.7561462E-02  0.1236460E+00
         -1   -1    0    0    0  501 -0.00000000000E+00  0.00000000000E+00  0.37266748650E+03  0.37266748650E+03  0.00000000000E+00 0.  1.
          1   -1    0    0  501    0  0.00000000000E+00 -0.00000000000E+00 -0.65932162671E+02  0.65932162671E+02  0.00000000000E+00 0. -1.
         25    2    1    2    0    0  0.68060215539E+02  0.37969423443E+02  0.27691223178E+03  0.31369142677E+03  0.12509219425E+03 0.  0.
         23    2    1    2    0    0 -0.68060215539E+02 -0.37969423443E+02  0.29823092050E+02  0.12490822241E+03  0.92945022187E+02 0.  0.
          5    1    3    3  502    0  0.21768021944E+02  0.80558094049E+02  0.17368234029E+03  0.19273422380E+03  0.41800000000E+01 0. -1.
         -5    1    3    3    0  502  0.46292193595E+02 -0.42588670606E+02  0.10322989149E+03  0.12095720297E+03  0.41800000000E+01 0. -1.
        -11    1    4    4    0    0 -0.74323765958E+01  0.17780322418E+02 -0.20701154330E+02  0.28282819480E+02  0.00000000000E+00 0. -1.
         11    1    4    4    0    0 -0.60627838943E+02 -0.55749745861E+02  0.50524246379E+02  0.96625402926E+02  0.00000000000E+00 0.  1.
</event>
<event>
 8    1  0.7136454E-009  0.3524275E+03  0.7561462E-02  0.1061623E+00
         -1   -1    0    0    0  501 -0.00000000000E+00  0.00000000000E+00  0.24437524225E+03  0.24437524225E+03  0.00000000000E+00 0. -1.
          1   -1    0    0  501    0  0.00000000000E+00 -0.00000000000E+00 -0.55188901427E+03  0.55188901427E+03  0.00000000000E+00 0.  1.
         25    2    1    2    0    0  0.31513242979E+03 -0.15349956352E+03 -0.16726242967E+03  0.40803813161E+03  0.12509129529E+03 0.  0.
         23    2    1    2    0    0 -0.31513242979E+03  0.15349956352E+03 -0.14025134236E+03  0.38822612491E+03  0.90435174144E+02 0.  0.
          5    1    3    3  502    0  0.92584703462E+02 -0.50336009270E+02  0.91529105335E+01  0.10586259640E+03  0.41800000000E+01 0. -1.
         -5    1    3    3    0  502  0.22254772633E+03 -0.10316355425E+03 -0.17641534020E+03  0.30217553521E+03  0.41800000000E+01 0. -1.
        -11    1    4    4    0    0 -0.15537488040E+03  0.48046751134E+02 -0.24342311712E+02  0.16444571108E+03  0.00000000000E+00 0. -1.
         11    1    4    4    0    0 -0.15975754939E+03  0.10545281239E+03 -0.11590903065E+03  0.22378041383E+03  0.00000000000E+00 0.  1.
</event>
<event>
 8    1  0.7136454E-009  0.1198232E+03  0.7561462E-02  0.1243389E+00
          2   -1    0    0  501    0  0.00000000000E+00  0.00000000000E+00  0.59737843792E+03  0.59737843792E+03  0.00000000000E+00 0. -1.
         -2   -1    0    0    0  501 -0.00000000000E+00 -0.00000000000E+00 -0.31633592796E+02  0.31633592796E+02  0.00000000000E+00 0.  1.
         25    2    1    2    0    0  0.27784573457E+02  0.52129428004E+02  0.44163260096E+03  0.46279253834E+03  0.12509244392E+03 0.  0.
         23    2    1    2    0    0 -0.27784573457E+02 -0.52129428004E+02  0.12411224417E+03  0.16621949238E+03  0.93464489025E+02 0.  0.
          5    1    3    3  502    0  0.58721637198E+02 -0.14471762228E+02  0.14471581911E+03  0.15690061592E+03  0.41800000000E+01 0. -1.
         -5    1    3    3    0  502 -0.30937063741E+02  0.66601190233E+02  0.29691678185E+03  0.30589192242E+03  0.41800000000E+01 0. -1.
        -11    1    4    4    0    0 -0.39603299106E+02  0.11111823851E+02  0.74024045571E+02  0.84684433352E+02  0.00000000000E+00 0. -1.
         11    1    4    4    0    0  0.11818725649E+02 -0.63241251855E+02  0.50088198595E+02  0.81535059028E+02  0.00000000000E+00 0.  1.
</event>
<event>
 8    1  0.7136454E-009  0.1119533E+03  0.7561462E-02  0.1256995E+00
         -1   -1    0    0    0  501 -0.00000000000E+00  0.00000000000E+00  0.22646973963E+02  0.22646973963E+02  0.00000000000E+00 0.  1.
          1   -1    0    0  501    0  0.00000000000E+00 -0.00000000000E+00 -0.66202116340E+03  0.66202116340E+03  0.00000000000E+00 0. -1.
         25    2    1    2    0    0 -0.47103186061E+02 -0.28685722135E+02 -0.34428200957E+03  0.37044881653E+03  0.12514248981E+03 0.  0.
         23    2    1    2    0    0  0.47103186061E+02  0.28685722135E+02 -0.29509217987E+03  0.31421932084E+03  0.92805205569E+02 0.  0.
          5    1    3    3  502    0 -0.59786272757E+02 -0.58962310490E+02 -0.13848042845E+03  0.16200387012E+03  0.41800000000E+01 0.  1.
         -5    1    3    3    0  502  0.12683086696E+02  0.30276588355E+02 -0.20580158112E+03  0.20844494641E+03  0.41800000000E+01 0.  1.
        -11    1    4    4    0    0  0.10234817311E+02 -0.33180386156E+02 -0.11919249108E+03  0.12414724902E+03  0.00000000000E+00 0. -1.
         11    1    4    4    0    0  0.36868368750E+02  0.61866108292E+02 -0.17589968879E+03  0.19007207182E+03  0.00000000000E+00 0.  1.
</event>
<event>
 8    1  0.7136454E-009  0.6549004E+02  0.7561462E-02  0.1376138E+00
          2   -1    0    0  501    0  0.00000000000E+00  0.00000000000E+00  0.33140783370E+03  0.33140783370E+03  0.00000000000E+00 0. -1.
         -2   -1    0    0    0  501 -0.00000000000E+00 -0.00000000000E+00 -0.39968374155E+02  0.39968374155E+02  0.00000000000E+00 0.  1.
         25    2    1    2    0    0 -0.14128289903E+02 -0.27988281336E+02  0.19438024157E+03  0.23326832254E+03  0.12508988577E+03 0.  0.
         23    2    1    2    0    0  0.14128289903E+02  0.27988281336E+02  0.97059217983E+02  0.13810788532E+03  0.93114680493E+02 0.  0.
          5    1    3    3  502    0 -0.11858133588E+02 -0.74967254921E+01  0.20780064979E+03  0.20831562274E+03  0.41800000000E+01 0.  1.
         -5    1    3    3    0  502 -0.22701563149E+01 -0.20491555844E+02 -0.13420408222E+02  0.24952699802E+02  0.41800000000E+01 0.  1.
        -11    1    4    4    0    0  0.19457470562E+02 -0.30715554102E+02  0.21374522579E+02  0.42177110379E+02  0.00000000000E+00 0.  1.
         11    1    4    4    0    0 -0.53291806590E+01  0.58703835438E+02  0.75684695404E+02  0.95930774937E+02  0.00000000000E+00 0. -1.
</event>
<event>
 8    1  0.7136454E-009  0.1176525E+03  0.7561462E-02  0.1247021E+00
         -1   -1    0    0    0  501 -0.00000000000E+00  0.00000000000E+00  0.64749669495E+02  0.64749669495E+02  0.00000000000E+00 0.  1.
          1   -1    0    0  501    0  0.00000000000E+00 -0.00000000000E+00 -0.33159648334E+03  0.33159648334E+03  0.00000000000E+00 0. -1.
         25    2    1    2    0    0 -0.44470660859E+02  0.59193212173E+02 -0.23310393179E+03  0.27471631356E+03  0.12510049510E+03 0.  0.
         23    2    1    2    0    0  0.44470660859E+02 -0.59193212173E+02 -0.33742882050E+02  0.12162983927E+03  0.90408847289E+02 0.  0.
          5    1    3    3  502    0 -0.27822528200E+02  0.93393675332E+02 -0.20568554049E+03  0.22764113344E+03  0.41800000000E+01 0.  1.
         -5    1    3    3    0  502 -0.16648132659E+02 -0.34200463159E+02 -0.27418391298E+02  0.47075180113E+02  0.41800000000E+01 0.  1.
        -11    1    4    4    0    0  0.59236062636E+02 -0.60506605449E+02  0.10777894102E+00  0.84675687396E+02  0.00000000000E+00 0.  1.
         11    1    4    4    0    0 -0.14765401777E+02  0.13133932758E+01 -0.33850660991E+02  0.36954151878E+02  0.00000000000E+00 0. -1.
</event>
<event>
 8    1  0.7136454E-009  0.1922003E+03  0.7561462E-02  0.1156492E+00
          1   -1    0    0  501    0  0.00000000000E+00  0.00000000000E+00  0.82954819013E+03  0.82954819013E+03  0.00000000000E+00 0. -1.
         -1   -1    0    0    0  501 -0.00000000000E+00 -0.00000000000E+00 -0.58945530128E+02  0.58945530128E+02  0.00000000000E+00 0.  1.
         25    2    1    2    0    0 -0.15448566999E+03  0.11388330361E+03  0.31267144668E+03  0.38761617149E+03  0.12509050227E+03 0.  0.
         23    2    1    2    0    0  0.15448566999E+03 -0.11388330361E+03  0.45793121332E+03  0.50087754877E+03  0.65894564713E+02 0.  0.
          5    1    3    3  502    0 -0.81266098368E+02  0.52615421899E+02  0.51985069793E+02  0.10996581854E+03  0.41800000000E+01 0.  1.
         -5    1    3    3    0  502 -0.73219571617E+02  0.61267881709E+02  0.26068637689E+03  0.27765035295E+03  0.41800000000E+01 0.  1.
        -11    1    4    4    0    0  0.78934730164E+02 -0.59416854572E+02  0.15375079411E+03  0.18275765626E+03  0.00000000000E+00 0.  1.
         11    1    4    4    0    0  0.75550939821E+02 -0.54466449036E+02  0.30418041921E+03  0.31811989251E+03  0.00000000000E+00 0. -1.
</event>
<event>
 8    1  0.7136454E-009  0.1244150E+03  0.7561462E-02  0.1235986E+00
         -1   -1    0    0    0  501 -0.00000000000E+00  0.00000000000E+00  0.17545699974E+03  0.17545699974E+03  0.00000000000E+00 0.  1.
          1   -1    0    0  501    0  0.00000000000E+00 -0.00000000000E+00 -0.13222530650E+03  0.13222530650E+03  0.00000000000E+00 0. -1.
         25    2    1    2    0    0 -0.42580598457E+02 -0.78051824834E+02  0.83785397311E+02  0.17485193623E+03  0.12509201443E+03 0.  0.
         23    2    1    2    0    0  0.42580598457E+02  0.78051824834E+02 -0.40553704072E+02  0.13283037001E+03  0.89967269365E+02 0.  0.
          5    1    3    3  502    0 -0.86762760811E+02 -0.59941396826E+02  0.57773425276E+02  0.12031620334E+03  0.41800000000E+01 0. -1.
         -5    1    3    3    0  502  0.44182162354E+02 -0.18110428007E+02  0.26011972035E+02  0.54535732892E+02  0.41800000000E+01 0. -1.
        -11    1    4    4    0    0 -0.55823917685E+01  0.15085758729E+02  0.25158991776E+02  0.29861649008E+02  0.00000000000E+00 0.  1.
         11    1    4    4    0    0  0.48162990225E+02  0.62966066104E+02 -0.65712695848E+02  0.10296872100E+03  0.00000000000E+00 0. -1.
</event>
<event>
 8    1  0.7136454E-009  0.1087249E+03  0.7561462E-02  0.1262950E+00
         -2   -1    0    0    0  501 -0.00000000000E+00  0.00000000000E+00  0.59477000154E+02  0.59477000154E+02  0.00000000000E+00 0.  1.
          2   -1    0    0  501    0  0.00000000000E+00 -0.00000000000E+00 -0.22663327093E+03  0.22663327093E+03  0.00000000000E+00 0. -1.
         25    2    1    2    0    0 -0.38745444920E+02 -0.11883470086E+02 -0.90563258607E+02  0.15966264510E+03  0.12509208636E+03 0.  0.
         23    2    1    2    0    0  0.38745444920E+02  0.11883470086E+02 -0.76593012168E+02  0.12644762598E+03  0.92087383715E+02 0.  0.
          5    1    3    3  502    0  0.43447243923E+02  0.57943228201E+01 -0.48691871583E+02  0.65647604219E+02  0.41800000000E+01 0. -1.
         -5    1    3    3    0  502 -0.82192688843E+02 -0.17677792906E+02 -0.41871387024E+02  0.94015040885E+02  0.41800000000E+01 0. -1.
        -11    1    4    4    0    0  0.48595674222E+02  0.37768679686E+02 -0.77217051745E+02  0.98744548196E+02  0.00000000000E+00 0.  1.
         11    1    4    4    0    0 -0.98502293018E+01 -0.25885209599E+02  0.62403957649E+00  0.27703077784E+02  0.00000000000E+00 0. -1.
</event>
<event>
 8    1  0.7136454E-009  0.1439803E+03  0.7561462E-02  0.1208071E+00
          1   -1    0    0  501    0  0.00000000000E+00  0.00000000000E+00  0.66031112045E+02  0.66031112045E+02  0.00000000000E+00 0. -1.
         -1   -1    0    0    0  501 -0.00000000000E+00 -0.00000000000E+00 -0.40675353826E+03  0.40675353826E+03  0.00000000000E+00 0.  1.
         25    2    1    2    0    0  0.10593289676E+03 -0.13606383647E+02 -0.26945713113E+03  0.31569290532E+03  0.12509177695E+03 0.  0.
         23    2    1    2    0    0 -0.10593289676E+03  0.13606383647E+02 -0.71265295090E+02  0.15709174499E+03  0.90510561644E+02 0.  0.
          5    1    3    3  502    0  0.11410478203E+03  0.31350185846E+02 -0.20091714914E+03  0.23321215374E+03  0.41800000000E+01 0. -1.
         -5    1    3    3    0  502 -0.81718852700E+01 -0.44956569493E+02 -0.68539981987E+02  0.82480751574E+02  0.41800000000E+01 0. -1.
        -11    1    4    4    0    0 -0.10984066464E+03  0.34167296452E+00 -0.30429711734E+02  0.11397831243E+03  0.00000000000E+00 0. -1.
         11    1    4    4    0    0  0.39077678792E+01  0.13264710683E+02 -0.40835583356E+02  0.43113432562E+02  0.00000000000E+00 0.  1.
</event>
<event>
 8    1  0.7136454E-009  0.1223867E+03  0.7561462E-02  0.1239211E+00
         -2   -1    0    0    0  501 -0.00000000000E+00  0.00000000000E+00  0.33870554708E+02  0.33870554708E+02  0.00000000000E+00 0. -1.
          2   -1    0    0  501    0  0.00000000000E+00 -0.00000000000E+00 -0.57897382127E+03  0.57897382127E+03  0.00000000000E+00 0.  1.
         25    2    1    2    0    0 -0.70123923438E+01  0.84009571247E+02 -0.35515385325E+03  0.38586016409E+03  0.12508806917E+03 0.  0.
         23    2    1    2    0    0  0.70123923438E+01 -0.84009571247E+02 -0.18994941331E+03  0.22698421188E+03  0.91292229241E+02 0.  0.
          5    1    3    3  502    0 -0.61152942892E+02  0.68045352186E+02 -0.18293380606E+03  0.20457786336E+03  0.41800000000E+01 0. -1.
         -5    1    3    3    0  502  0.54140550549E+02  0.15964219060E+02 -0.17222004719E+03  0.18128230073E+03  0.41800000000E+01 0. -1.
        -11    1    4    4    0    0  0.27174141964E+02 -0.42507659867E+02 -0.16889158729E+03  0.17626600181E+03  0.00000000000E+00 0.  1.
         11    1    4    4    0    0 -0.20161749620E+02 -0.41501911380E+02 -0.21057826024E+02  0.50718210070E+02  0.00000000000E+00 0. -1.
</event>
<event>
 8    1  0.7136454E-009  0.7982354E+02  0.7561462E-02  0.1329553E+00
          2   -1    0    0  501    0  0.00000000000E+00  0.00000000000E+00  0.17795681787E+04  0.17795681787E+04  0.00000000000E+00 0. -1.
         -2   -1    0    0    0  501 -0.00000000000E+00 -0.00000000000E+00 -0.12884135323E+02  0.12884135323E+02  0.00000000000E+00 0.  1.
         25    2    1    2    0    0  0.52057388524E+01 -0.59581154535E+02  0.13994336405E+04  0.14062855635E+04  0.12509020004E+03 0.  0.
         23    2    1    2    0    0 -0.52057388524E+01  0.59581154535E+02  0.36725040282E+03  0.38616675050E+03  0.10331934538E+03 0.  0.
          5    1    3    3  502    0  0.45955852926E+01 -0.67052515690E+02  0.13950014916E+04  0.13966258601E+04  0.41800000000E+01 0. -1.
         -5    1    3    3    0  502  0.61015355980E+00  0.74713611554E+01  0.44321489588E+01  0.96597033740E+01  0.41800000000E+01 0. -1.
        -11    1    4    4    0    0  0.16605079293E+02 -0.35080152832E+01  0.48234878719E+01  0.17643720266E+02  0.00000000000E+00 0.  1.
         11    1    4    4    0    0 -0.21810818146E+02  0.63089169818E+02  0.36242691495E+03  0.36852303024E+03  0.00000000000E+00 0. -1.
</event>
<event>
 7    1  0.7136454E-009  0.2442914E+03  0.7561462E-02  0.1116967E+00
          2   -1    0    0  501    0  0.00000000000E+00  0.00000000000E+00  0.19407277637E+04  0.19407277637E+04  0.00000000000E+00 0. -1.
         -2   -1    0    0    0  501 -0.00000000000E+00 -0.00000000000E+00 -0.49053548110E+02  0.49053548110E+02  0.00000000000E+00 0.  1.
         25    2    1    2    0    0 -0.20245355137E+03 -0.13329617611E+03  0.15118068864E+04  0.15362170492E+04  0.12508976587E+03 0.  0.
          5    1    3    3  502    0 -0.13599243126E+03 -0.10978303822E+03  0.70608895285E+03  0.72741002095E+03  0.41800000000E+01 0. -1.
         -5    1    3    3    0  502 -0.66461120114E+02 -0.23513137892E+02  0.80571793355E+03  0.80880702827E+03  0.41800000000E+01 0. -1.
        -11    1    1    2    0    0  0.48130717677E+02  0.22321337972E+02  0.50294284903E+02  0.73104878133E+02  0.00000000000E+00 0.  1.
         11    1    1    2    0    0  0.15432283370E+03  0.11097483814E+03  0.32957304431E+03  0.38045938447E+03  0.00000000000E+00 0. -1.
</event>
<event>
 8    1  0.7136454E-009  0.8211897E+02  0.7561462E-02  0.1323143E+00
         -1   -1    0    0    0  501 -0.00000000000E+00  0.00000000000E+00  0.39711314564E+02  0.39711314564E+02  0.00000000000E+00 0.  1.
          1   -1    0    0  501    0  0.00000000000E+00 -0.00000000000E+00 -0.46071675595E+03  0.46071675595E+03  0.00000000000E+00 0. -1.
         25    2    1    2    0    0 -0.21544273587E+02  0.34285649815E+02 -0.36347229423E+03  0.38652213645E+03  0.12509033450E+03 0.  0.
         23    2    1    2    0    0  0.21544273587E+02 -0.34285649815E+02 -0.57533147159E+02  0.11390593407E+03  0.89581456150E+02 0.  0.
          5    1    3    3  502    0  0.34829260619E+02  0.40900093022E+02 -0.74179737652E+02  0.91684245553E+02  0.41800000000E+01 0.  1.
         -5    1    3    3    0  502 -0.56373534206E+02 -0.66144432066E+01 -0.28929255658E+03  0.29483789090E+03  0.41800000000E+01 0.  1.
        -11    1    4    4    0    0 -0.83945687218E+01 -0.16773004897E+02 -0.73404132143E+02  0.75762583727E+02  0.00000000000E+00 0. -1.
         11    1    4    4    0    0  0.29938842309E+02 -0.17512644918E+02  0.15870984984E+02  0.38143350340E+02  0.00000000000E+00 0.  1.
</event>
<event>
 8    1  0.7136454E-009  0.9482405E+02  0.7561462E-02  0.1291573E+00
          2   -1    0    0  501    0  0.00000000000E+00  0.00000000000E+00  0.32531479180E+03  0.32531479180E+03  0.00000000000E+00 0. -1.
         -2   -1    0    0    0  501 -0.00000000000E+00 -0.00000000000E+00 -0.39127548529E+02  0.39127548529E+02  0.00000000000E+00 0.  1.
         25    2    1    2    0    0 -0.64296209698E+00 -0.27610794915E+02  0.12669584436E+03  0.18016978334E+03  0.12508614814E+03 0.  0.
         23    2    1    2    0    0  0.64296209698E+00  0.27610794915E+02  0.15949139891E+03  0.18427255699E+03  0.88068720529E+02 0.  0.
          5    1    3    3  502    0 -0.51841819710E+02 -0.17149693323E+02  0.14997260031E+02  0.56780951562E+02  0.41800000000E+01 0.  1.
         -5    1    3    3    0  502  0.51198857613E+02 -0.10461101592E+02  0.11169858433E+03  0.12338883178E+03  0.41800000000E+01 0.  1.
        -11    1    4    4    0    0  0.38760225520E+02  0.19901416250E+02  0.12469736909E+03  0.13209033012E+03  0.00000000000E+00 0. -1.
         11    1    4    4    0    0 -0.38117263423E+02  0.77093786654E+01  0.34794029820E+02  0.52182226873E+02  0.00000000000E+00 0.  1.
</event>
<event>
 8    1  0.7136454E-009  0.1068759E+03  0.7561462E-02  0.1266467E+00
         -2   -1    0    0    0  501 -0.00000000000E+00  0.00000000000E+00  0.97532395026E+02  0.97532395026E+02  0.00000000000E+00 0.  1.
          2   -1    0    0  501    0  0.00000000000E+00 -0.00000000000E+00 -0.12488221720E+03  0.12488221720E+03  0.00000000000E+00 0. -1.
         25    2    1    2    0    0 -0.11487199417E+02  0.17130106238E+02 -0.14812912064E+02  0.12764310357E+03  0.12509173927E+03 0.  0.
         23    2    1    2    0    0  0.11487199417E+02 -0.17130106238E+02 -0.12536910107E+02  0.94771508655E+02  0.91646431722E+02 0.  0.
          5    1    3    3  502    0 -0.17254904042E+02 -0.49613192516E+02  0.14116024214E+02  0.54552132174E+02  0.41800000000E+01 0.  1.
         -5    1    3    3    0  502  0.57677046247E+01  0.66743298754E+02 -0.28928936278E+02  0.73090971394E+02  0.41800000000E+01 0.  1.
        -11    1    4    4    0    0  0.33518701924E+01  0.38030590916E+02 -0.54808801813E+01  0.38569429952E+02  0.00000000000E+00 0.  1.
         11    1    4    4    0    0  0.81353292251E+01 -0.55160697155E+02 -0.70560299261E+01  0.56202078703E+02  0.00000000000E+00 0. -1.
</event>
<event>
 8    1  0.7136454E-009  0.8396811E+02  0.7561462E-02  0.1318153E+00
          1   -1    0    0  501    0  0.00000000000E+00  0.00000000000E+00  0.10046673198E+04  0.10046673198E+04  0.00000000000E+00 0. -1.
         -1   -1    0    0    0  501 -0.00000000000E+00 -0.00000000000E+00 -0.13338982752E+02  0.13338982752E+02  0.00000000000E+00 0.  1.
         25    2    1    2    0    0 -0.32400165073E+02  0.10196967544E+02  0.67350479783E+03  0.68586559347E+03  0.12509656577E+03 0.  0.
         23    2    1    2    0    0  0.32400165073E+02 -0.10196967544E+02  0.31782353920E+03  0.33214070906E+03  0.90287871287E+02 0.  0.
          5    1    3    3  502    0  0.71646707413E+01 -0.20345177527E+02  0.57413355521E+03  0.57455380111E+03  0.41800000000E+01 0.  1.
         -5    1    3    3    0  502 -0.39564835814E+02  0.30542145071E+02  0.99371242622E+02  0.11131179236E+03  0.41800000000E+01 0.  1.
        -11    1    4    4    0    0  0.30424118804E+00 -0.46985828652E+02  0.13656133116E+03  0.14441868932E+03  0.00000000000E+00 0.  1.
         11    1    4    4    0    0  0.32095923885E+02  0.36788861108E+02  0.18126220804E+03  0.18772201974E+03  0.00000000000E+00 0. -1.
</event>
<event>
 8    1  0.7136454E-009  0.3906782E+03  0.7561462E-02  0.1047056E+00
         -2   -1    0    0    0  501 -0.00000000000E+00  0.00000000000E+00  0.81803386455E+02  0.81803386455E+02  0.00000000000E+00 0.  1.
          2   -1    0    0  501    0  0.00000000000E+00 -0.00000000000E+00 -0.19384220506E+04  0.19384220506E+04  0.00000000000E+00 0. -1.
         25    2    1    2    0    0  0.34667399369E+03 -0.15947729638E+03 -0.10110757517E+04  0.10879052273E+04  0.12509093501E+03 0.  0.
         23    2    1    2    0    0 -0.34667399369E+03  0.15947729638E+03 -0.84554291250E+03  0.93232020977E+03  0.93071427983E+02 0.  0.
          5    1    3    3  502    0  0.24924688971E+03 -0.61502525629E+02 -0.74603647956E+03  0.78898318989E+03  0.41800000000E+01 0.  1.
         -5    1    3    3    0  502  0.97427103984E+02 -0.97974770753E+02 -0.26503927209E+03  0.29892203740E+03  0.41800000000E+01 0.  1.
        -11    1    4    4    0    0 -0.13773774845E+03  0.31311542132E+02 -0.39373641018E+03  0.41830665870E+03  0.00000000000E+00 0. -1.
         11    1    4    4    0    0 -0.20893624524E+03  0.12816575425E+03 -0.45180650232E+03  0.51401355106E+03  0.00000000000E+00 0.  1.
</event>
<event>
 8    1  0.7136454E-009  0.1073195E+03  0.7561462E-02  0.1265616E+00
         -2   -1    0    0    0  501 -0.00000000000E+00  0.00000000000E+00  0.61525936204E+03  0.61525936204E+03  0.00000000000E+00 0.  1.
          2   -1    0    0  501    0  0.00000000000E+00 -0.00000000000E+00 -0.58137475352E+02  0.58137475352E+02  0.00000000000E+00 0. -1.
         25    2    1    2    0    0 -0.74497667217E+02  0.39989594233E+02  0.51935517625E+03  0.54085490343E+03  0.12508060362E+03 0.  0.
         23    2    1    2    0    0  0.74497667217E+02 -0.39989594233E+02  0.37766710443E+02  0.13254193396E+03  0.94825997351E+02 0.  0.
          5    1    3    3  502    0 -0.76108897366E+01 -0.15201531162E+02  0.35096547852E+03  0.35140183793E+03  0.41800000000E+01 0.  1.
         -5    1    3    3    0  502 -0.66886777481E+02  0.55191125394E+02  0.16838969773E+03  0.18945306549E+03  0.41800000000E+01 0.  1.
        -11    1    4    4    0    0  0.88081247323E+02 -0.28661849581E+02  0.55100704807E+02  0.10777706352E+03  0.00000000000E+00 0.  1.
         11    1    4    4    0    0 -0.13583580105E+02 -0.11327744651E+02 -0.17333994364E+02  0.24764870441E+02  0.00000000000E+00 0. -1.
</event>
<event>
 8    1  0.7136454E-009  0.5636825E+02  0.7561462E-02  0.1413737E+00
         -4   -1    0    0    0  501 -0.00000000000E+00  0.00000000000E+00  0.96305324067E+02  0.96305324067E+02  0.00000000000E+00 0.  1.
          4   -1    0    0  501    0  0.00000000000E+00 -0.00000000000E+00 -0.17913364768E+03  0.17913364768E+03  0.00000000000E+00 0. -1.
         25    2    1    2    0    0  0.27819361659E+02 -0.10794108361E+02 -0.11671293437E+03  0.17365814669E+03  0.12507922770E+03 0.  0.
         23    2    1    2    0    0 -0.27819361659E+02  0.10794108361E+02  0.33884610761E+02  0.10178082506E+03  0.91218089462E+02 0.  0.
          5    1    3    3  502    0  0.46193522273E+01 -0.27507632739E+01  0.26978046912E+02  0.27824315423E+02  0.41800000000E+01 0.  1.
         -5    1    3    3    0  502  0.23200009432E+02 -0.80433450873E+01 -0.14369098129E+03  0.14583383126E+03  0.41800000000E+01 0.  1.
        -11    1    4    4    0    0 -0.30307000702E+02 -0.28525650213E+02 -0.10000985242E+02  0.42804751108E+02  0.00000000000E+00 0. -1.
         11    1    4    4    0    0  0.24876390431E+01  0.39319758574E+02  0.43885596003E+02  0.58976073952E+02  0.00000000000E+00 0.  1.
</event>
<event>
 8    1  0.7136454E-009  0.1204832E+03  0.7561462E-02  0.1242302E+00
         -1   -1    0    0    0  501 -0.00000000000E+00  0.00000000000E+00  0.99335328994E+02  0.99335328994E+02  0.00000000000E+00 0.  1.
          1   -1    0    0  501    0  0.00000000000E+00 -0.00000000000E+00 -0.20968040540E+03  0.20968040540E+03  0.00000000000E+00 0. -1.
         25    2    1    2    0    0 -0.19983340112E+01 -0.63357154632E+02 -0.12599419870E+03  0.18852301487E+03  0.12509303197E+03 0.  0.
         23    2    1    2    0    0  0.19983340112E+01  0.63357154632E+02  0.15649122293E+02  0.12049271952E+03  0.10126933419E+03 0.  0.
          5    1    3    3  502    0 -0.22028819271E+02 -0.88108417790E+02 -0.45101438137E+02  0.10148878897E+03  0.41800000000E+01 0. -1.
         -5    1    3    3    0  502  0.20030485259E+02  0.24751263158E+02 -0.80892760561E+02  0.87034225904E+02  0.41800000000E+01 0. -1.
        -11    1    4    4    0    0  0.49294109893E+02  0.18207412816E+02 -0.25807697675E+01  0.52612541510E+02  0.00000000000E+00 0.  1.
         11    1    4    4    0    0 -0.47295775881E+02  0.45149741817E+02  0.18229892061E+02  0.67880178012E+02  0.00000000000E+00 0. -1.
</event>
<event>
 8    1  0.7136454E-009  0.8920524E+02  0.7561462E-02  0.1304788E+00
         -1   -1    0    0    0  501 -0.00000000000E+00  0.00000000000E+00  0.40233145005E+02  0.40233145005E+02  0.00000000000E+00 0.  1.
          1   -1    0    0  501    0  0.00000000000E+00 -0.00000000000E+00 -0.34927583844E+03  0.34927583844E+03  0.00000000000E+00 0. -1.
         25    2    1    2    0    0  0.13379877051E+02  0.12960590163E+02 -0.10370424677E+03  0.16355145811E+03  0.12509001017E+03 0.  0.
         23    2    1    2    0    0 -0.13379877051E+02 -0.12960590163E+02 -0.20533844667E+03  0.22595752534E+03  0.92444186240E+02 0.  0.
          5    1    3    3  502    0  0.43453612714E+02  0.28418357029E+02  0.23664875132E+01  0.52142997011E+02  0.41800000000E+01 0. -1.
         -5    1    3    3    0  502 -0.30073735663E+02 -0.15457766866E+02 -0.10607073429E+03  0.11140846110E+03  0.41800000000E+01 0. -1.
        -11    1    4    4    0    0  0.32222789797E+02 -0.29552758211E+02 -0.12096355135E+03  0.12862291575E+03  0.00000000000E+00 0. -1.
         11    1    4    4    0    0 -0.45602666848E+02  0.16592168049E+02 -0.84374895317E+02  0.97334609590E+02  0.00000000000E+00 0.  1.
</event>
<event>
 8    1  0.7136454E-009  0.7717615E+02  0.7561462E-02  0.1337262E+00
         -2   -1    0    0    0  501 -0.00000000000E+00  0.00000000000E+00  0.12831400754E+03  0.12831400754E+03  0.00000000000E+00 0. -1.
          2   -1    0    0  501    0  0.00000000000E+00 -0.00000000000E+00 -0.19059357265E+03  0.19059357265E+03  0.00000000000E+00 0.  1.
         25    2    1    2    0    0 -0.51386011401E+02  0.48678408267E+02 -0.12156409139E+03  0.18824335625E+03  0.12509046030E+03 0.  0.
         23    2    1    2    0    0  0.51386011401E+02 -0.48678408267E+02  0.59284526285E+02  0.13066422394E+03  0.92457421341E+02 0.  0.
          5    1    3    3  502    0 -0.48774803139E+02  0.18385998499E+02  0.99198653933E+01  0.53225017534E+02  0.41800000000E+01 0.  1.
         -5    1    3    3    0  502 -0.26112082624E+01  0.30292409768E+02 -0.13148395678E+03  0.13501833872E+03  0.41800000000E+01 0.  1.
        -11    1    4    4    0    0  0.10941331098E+02 -0.56408971753E+01  0.69626469537E+02  0.70706277708E+02  0.00000000000E+00 0. -1.
         11    1    4    4    0    0  0.40444680303E+02 -0.43037511091E+02 -0.10341943252E+02  0.59957946229E+02  0.00000000000E+00 0.  1.
</event>
<event>
 8    1  0.7136454E-009  0.1004715E+03  0.7561462E-02  0.1279308E+00
          2   -1    0    0  501    0  0.00000000000E+00  0.00000000000E+00  0.65162328481E+03  0.65162328481E+03  0.00000000000E+00 0.  1.
         -2   -1    0    0    0  501 -0.00000000000E+00 -0.00000000000E+00 -0.30502789387E+02  0.30502789387E+02  0.00000000000E+00 0. -1.
         25    2    1    2    0    0 -0.55080890044E+02 -0.53521741639E+02  0.45116975834E+03  0.47443958721E+03  0.12506114421E+03 0.  0.
         23    2    1    2    0    0  0.55080890044E+02  0.53521741639E+02  0.16995073708E+03  0.20768648699E+03  0.91388963054E+02 0.  0.
          5    1    3    3  502    0 -0.58458455810E+02 -0.39893090233E+02  0.45401401863E+03  0.45951610550E+03  0.41800000000E+01 0. -1.
         -5    1    3    3    0  502  0.33775657660E+01 -0.13628651406E+02 -0.28442602852E+01  0.14923481706E+02  0.41800000000E+01 0. -1.
        -11    1    4    4    0    0  0.52336247663E+02  0.76260983994E+02  0.11125804803E+03  0.14468301127E+03  0.00000000000E+00 0. -1.
         11    1    4    4    0    0  0.27446423806E+01 -0.22739242355E+02  0.58692689049E+02  0.63003475718E+02  0.00000000000E+00 0.  1.
</event>
<event>
 8    1  0.7136454E-009  0.8195467E+02  0.7561462E-02  0.1323594E+00
          2   -1    0    0  501    0  0.00000000000E+00  0.00000000000E+00  0.14695743202E+03  0.14695743202E+03  0.00000000000E+00 0. -1.
         -2   -1    0    0    0  501 -0.00000000000E+00 -0.00000000000E+00 -0.96962026494E+02  0.96962026494E+02  0.00000000000E+00 0.  1.
         25    2    1    2    0    0 -0.22835513700E+02 -0.30567558076E+02 -0.34794477453E+01  0.13082606123E+03  0.12509002936E+03 0.  0.
         23    2    1    2    0    0  0.22835513700E+02  0.30567558076E+02  0.53474853271E+02  0.11309339729E+03  0.92058243983E+02 0.  0.
          5    1    3    3  502    0  0.33590975614E+02  0.20745880537E+02  0.27609233041E+02  0.48357908878E+02  0.41800000000E+01 0.  1.
         -5    1    3    3    0  502 -0.56426489314E+02 -0.51313438613E+02 -0.31088680786E+02  0.82468152347E+02  0.41800000000E+01 0.  1.
        -11    1    4    4    0    0 -0.61615645065E+01  0.11716497790E+02 -0.24469167955E+02  0.27820520808E+02  0.00000000000E+00 0.  1.
         11    1    4    4    0    0  0.28997078206E+02  0.18851060287E+02  0.77944021226E+02  0.85272876480E+02  0.00000000000E+00 0. -1.
</event>
<event>
 7    1  0.7136454E-009  0.2256380E+03  0.7561462E-02  0.1129748E+00
         -2   -1    0    0    0  501 -0.00000000000E+00  0.00000000000E+00  0.18886854906E+03  0.18886854906E+03  0.00000000000E+00 0. -1.
          2   -1    0    0  501    0  0.00000000000E+00 -0.00000000000E+00 -0.29529473755E+03  0.29529473755E+03  0.00000000000E+00 0.  1.
         23    2    1    2    0    0  0.19471537498E+03  0.76538166401E+02 -0.63365539156E+02  0.23658276881E+03  0.90465721561E+02 0.  0.
          5    1    1    2  502    0  0.14713041088E+02  0.66438947585E+01  0.44196660679E+01  0.17251688723E+02  0.41800000000E+01 0. -1.
         -5    1    1    2    0  502 -0.20942841606E+03 -0.83182061160E+02 -0.47480315393E+02  0.23032882908E+03  0.41800000000E+01 0. -1.
        -11    1    3    3    0    0  0.72022329878E+02  0.28150019240E+02 -0.70304724054E+02  0.10451025695E+03  0.00000000000E+00 0.  1.
         11    1    3    3    0    0  0.12269304510E+03  0.48388147161E+02  0.69391848977E+01  0.13207251186E+03  0.00000000000E+00 0. -1.
</event>
<event>
 8    1  0.7136454E-009  0.1502705E+03  0.7561462E-02  0.1200141E+00
         -1   -1    0    0    0  501 -0.00000000000E+00  0.00000000000E+00  0.31917526700E+03  0.31917526700E+03  0.00000000000E+00 0.  1.
          1   -1    0    0  501    0  0.00000000000E+00 -0.00000000000E+00 -0.72860480597E+02  0.72860480597E+02  0.00000000000E+00 0. -1.
         25    2    1    2    0    0 -0.45802869182E+02 -0.96008047805E+02  0.13772955471E+03  0.21431815531E+03  0.12508954147E+03 0.  0.
         23    2    1    2    0    0  0.45802869182E+02  0.96008047805E+02  0.10858523169E+03  0.17771759229E+03  0.92072482315E+02 0.  0.
          5    1    3    3  502    0 -0.72877849966E+02 -0.15083724508E+02  0.88520450910E+02  0.11572399228E+03  0.41800000000E+01 0. -1.
         -5    1    3    3    0  502  0.27074980783E+02 -0.80924323296E+02  0.49209103804E+02  0.98594163025E+02  0.41800000000E+01 0. -1.
        -11    1    4    4    0    0  0.69291687115E+02  0.40421584081E+02  0.65609235435E+02  0.10363307453E+03  0.00000000000E+00 0.  1.
         11    1    4    4    0    0 -0.23488817933E+02  0.55586463724E+02  0.42975996255E+02  0.74084517757E+02  0.00000000000E+00 0. -1.
</event>
<event>
 8    1  0.7136454E-009  0.1494073E+03  0.7561462E-02  0.1201203E+00
          3   -1    0    0  501    0  0.00000000000E+00  0.00000000000E+00  0.52562416616E+03  0.52562416616E+03  0.00000000000E+00 0. -1.
         -3   -1    0    0    0  501 -0.00000000000E+00 -0.00000000000E+00 -0.61203095062E+02  0.61203095062E+02  0.00000000000E+00 0.  1.
         25    2    1    2    0    0 -0.34285914065E+02  0.13131236113E+03  0.17529501487E+03  0.25454642018E+03  0.12508827962E+03 0.  0.
         23    2    1    2    0    0  0.34285914065E+02 -0.13131236113E+03  0.28912605623E+03  0.33228084105E+03  0.91641807299E+02 0.  0.
          5    1    3    3  502    0  0.22398444319E+02  0.74676838586E+02  0.15218892375E+03  0.17104754147E+03  0.41800000000E+01 0. -1.
         -5    1    3    3    0  502 -0.56684358384E+02  0.56635522543E+02  0.23106091112E+02  0.83498878708E+02  0.41800000000E+01 0. -1.
        -11    1    4    4    0    0 -0.62729267371E+01 -0.41287597164E+02  0.18141862388E+03  0.18616318750E+03  0.00000000000E+00 0.  1.
         11    1    4    4    0    0  0.40558840802E+02 -0.90024763966E+02  0.10770743236E+03  0.14611765355E+03  0.00000000000E+00 0. -1.
</event>
<event>
 8    1  0.7136454E-009  0.9696748E+02  0.7561462E-02  0.1286805E+00
         -1   -1    0    0    0  501 -0.00000000000E+00  0.00000000000E+00  0.50974404735E+02  0.50974404735E+02  0.00000000000E+00 0.  1.
          1   -1    0    0  501    0  0.00000000000E+00 -0.00000000000E+00 -0.31098960021E+03  0.31098960021E+03  0.00000000000E+00 0. -1.
         25    2    1    2    0    0 -0.27618241471E+02 -0.50576418028E+02 -0.19108860641E+03  0.23554885199E+03  0.12509062656E+03 0.  0.
         23    2    1    2    0    0  0.27618241471E+02  0.50576418028E+02 -0.68926589066E+02  0.12641515295E+03  0.88933541998E+02 0.  0.
          5    1    3    3  502    0 -0.39003820968E+02 -0.88310729012E+02 -0.11909891645E+03  0.15336918598E+03  0.41800000000E+01 0.  1.
         -5    1    3    3    0  502  0.11385579496E+02  0.37734310984E+02 -0.71989689960E+02  0.82179666016E+02  0.41800000000E+01 0.  1.
        -11    1    4    4    0    0  0.84003983522E+01  0.13327262878E+02  0.21554129780E+02  0.26697624217E+02  0.00000000000E+00 0.  1.
         11    1    4    4    0    0  0.19217843119E+02  0.37249155150E+02 -0.90480718846E+02  0.99717528732E+02  0.00000000000E+00 0. -1.
</event>
<event>
 8    1  0.7136454E-009  0.1185838E+03  0.7561462E-02  0.1245452E+00
         -3   -1    0    0    0  501 -0.00000000000E+00  0.00000000000E+00  0.38009077638E+03  0.38009077638E+03  0.00000000000E+00 0.  1.
          3   -1    0    0  501    0  0.00000000000E+00 -0.00000000000E+00 -0.45415905042E+02  0.45415905042E+02  0.00000000000E+00 0. -1.
         25    2    1    2    0    0  0.63055297127E+02  0.21945687695E+02  0.23300934277E+03  0.27276194104E+03  0.12509252159E+03 0.  0.
         23    2    1    2    0    0 -0.63055297127E+02 -0.21945687695E+02  0.10166552856E+03  0.15274474038E+03  0.92398551453E+02 0.  0.
          5    1    3    3  502    0  0.70209456677E+02  0.65484017297E+02  0.14099108777E+03  0.17062673752E+03  0.41800000000E+01 0. -1.
         -5    1    3    3    0  502 -0.71541595503E+01 -0.43538329602E+02  0.92018255008E+02  0.10213520352E+03  0.41800000000E+01 0. -1.
        -11    1    4    4    0    0 -0.70211466965E+02  0.35171861935E+01  0.10471098913E+03  0.12612062455E+03  0.00000000000E+00 0.  1.
         11    1    4    4    0    0  0.71561698378E+01 -0.25462873888E+02 -0.30454605708E+01  0.26624115825E+02  0.00000000000E+00 0. -1.
</event>
<event>
 8    1  0.7136454E-009  0.7747807E+02  0.7561462E-02  0.1336365E+00
         -1   -1    0    0    0  501 -0.00000000000E+00  0.00000000000E+00  0.11399217184E+03  0.11399217184E+03  0.00000000000E+00 0.  1.
          1   -1    0    0  501    0  0.00000000000E+00 -0.00000000000E+00 -0.11819497698E+03  0.11819497698E+03  0.00000000000E+00 0. -1.
         25    2    1    2    0    0 -0.26064137753E+02 -0.28146435696E+01  0.33981984715E+02  0.13224789430E+03  0.12508984277E+03 0.  0.
         23    2    1    2    0    0  0.26064137753E+02  0.28146435696E+01 -0.38184789856E+02  0.99939254527E+02  0.88557974931E+02 0.  0.
          5    1    3    3  502    0  0.34895839497E+02  0.17620415324E+02 -0.23585095226E+02  0.45846785789E+02  0.41800000000E+01 0.  1.
         -5    1    3    3    0  502 -0.60959977250E+02 -0.20435058893E+02  0.57567079941E+02  0.86401108507E+02  0.41800000000E+01 0.  1.
        -11    1    4    4    0    0  0.35928423011E+02 -0.77529062655E+01 -0.62002258801E+02  0.72078007964E+02  0.00000000000E+00 0. -1.
         11    1    4    4    0    0 -0.98642852577E+01  0.10567549835E+02  0.23817468945E+02  0.27861246564E+02  0.00000000000E+00 0.  1.
</event>
<event>
 8    1  0.7136454E-009  0.1476186E+03  0.7561462E-02  0.1203430E+00
          1   -1    0    0  501    0  0.00000000000E+00  0.00000000000E+00  0.73619245765E+03  0.73619245765E+03  0.00000000000E+00 0. -1.
         -1   -1    0    0    0  501 -0.00000000000E+00 -0.00000000000E+00 -0.47359854832E+02  0.47359854832E+02  0.00000000000E+00 0.  1.
         25    2    1    2    0    0 -0.10489279589E+03  0.72000085795E+02  0.53557104840E+03  0.56450510816E+03  0.12507261196E+03 0.  0.
         23    2    1    2    0    0  0.10489279589E+03 -0.72000085795E+02  0.15326155442E+03  0.21904720433E+03  0.91137602989E+02 0.  0.
          5    1    3    3  502    0 -0.12184336336E+03  0.53686420339E+02  0.51484008393E+03  0.53179490534E+03  0.41800000000E+01 0. -1.
         -5    1    3    3    0  502  0.16950567477E+02  0.18313665456E+02  0.20730964471E+02  0.32710202814E+02  0.41800000000E+01 0. -1.
        -11    1    4    4    0    0  0.40712814735E+02 -0.59951916544E+00  0.31221033646E+01  0.40836751050E+02  0.00000000000E+00 0.  1.
         11    1    4    4    0    0  0.64179981150E+02 -0.71400566630E+02  0.15013945105E+03  0.17821045328E+03  0.00000000000E+00 0. -1.
</event>
<event>
 8    1  0.7136454E-009  0.1688027E+03  0.7561462E-02  0.1179102E+00
          1   -1    0    0  501    0  0.00000000000E+00  0.00000000000E+00  0.14388031085E+04  0.14388031085E+04  0.00000000000E+00 0. -1.
         -1   -1    0    0    0  501 -0.00000000000E+00 -0.00000000000E+00 -0.20368994777E+02  0.20368994777E+02  0.00000000000E+00 0.  1.
         25    2    1    2    0    0 -0.41414346124E+02  0.12366048718E+03  0.79373949559E+03  0.81404971532E+03  0.12508991964E+03 0.  0.
         23    2    1    2    0    0  0.41414346124E+02 -0.12366048718E+03  0.62469461818E+03  0.64512238801E+03  0.94511720810E+02 0.  0.
          5    1    3    3  502    0 -0.40102300268E+02 -0.11148896863E+02  0.12409058652E+03  0.13095204638E+03  0.41800000000E+01 0.  1.
         -5    1    3    3    0  502 -0.13120458557E+01  0.13480938404E+03  0.66964890907E+03  0.68309766894E+03  0.41800000000E+01 0.  1.
        -11    1    4    4    0    0  0.46811567219E+02 -0.10979284879E+02  0.17356766888E+03  0.18010442305E+03  0.00000000000E+00 0.  1.
         11    1    4    4    0    0 -0.53972210959E+01 -0.11268120230E+03  0.45112694930E+03  0.46501796496E+03  0.00000000000E+00 0. -1.
</event>
<event>
 8    1  0.7136454E-009  0.1914172E+03  0.7561462E-02  0.1157189E+00
          2   -1    0    0  501    0  0.00000000000E+00  0.00000000000E+00  0.14556838368E+04  0.14556838368E+04  0.00000000000E+00 0. -1.
         -2   -1    0    0    0  501 -0.00000000000E+00 -0.00000000000E+00 -0.32164704154E+02  0.32164704154E+02  0.00000000000E+00 0.  1.
         25    2    1    2    0    0 -0.16064668886E+03 -0.19232326301E+01  0.10679123814E+04  0.10871499407E+04  0.12508829636E+03 0.  0.
         23    2    1    2    0    0  0.16064668886E+03  0.19232326301E+01  0.35560675124E+03  0.40069860019E+03  0.91061238715E+02 0.  0.
          5    1    3    3  502    0 -0.71761291355E+02  0.59342150657E+02  0.41315045576E+03  0.42353505791E+03  0.41800000000E+01 0. -1.
         -5    1    3    3    0  502 -0.88885397507E+02 -0.61265383287E+02  0.65476192562E+03  0.66361488283E+03  0.41800000000E+01 0. -1.
        -11    1    4    4    0    0  0.14671475106E+03  0.30448344261E+02  0.31764027996E+03  0.35120886563E+03  0.00000000000E+00 0. -1.
         11    1    4    4    0    0  0.13931937804E+02 -0.28525111631E+02  0.37966471284E+02  0.49489734555E+02  0.00000000000E+00 0.  1.
</event>
<event>
 8    1  0.7136454E-009  0.9827364E+02  0.7561462E-02  0.1283969E+00
         -2   -1    0    0    0  501 -0.00000000000E+00  0.00000000000E+00  0.76250991779E+02  0.76250991779E+02  0.00000000000E+00 0.  1.
          2   -1    0    0  501    0  0.00000000000E+00 -0.00000000000E+00 -0.15420360396E+03  0.15420360396E+03  0.00000000000E+00 0. -1.
         25    2    1    2    0    0  0.12990673473E+02  0.88762891927E+01 -0.33003215393E+02  0.13032324478E+03  0.12508952713E+03 0.  0.
         23    2    1    2    0    0 -0.12990673473E+02 -0.88762891927E+01 -0.44949396788E+02  0.10013135096E+03  0.88081173161E+02 0.  0.
          5    1    3    3  502    0  0.17928422423E+02 -0.55901031169E+02 -0.27586282603E+02  0.64998684634E+02  0.41800000000E+01 0. -1.
         -5    1    3    3    0  502 -0.49377489495E+01  0.64777320362E+02 -0.54169327902E+01  0.65324560150E+02  0.41800000000E+01 0. -1.
        -11    1    4    4    0    0 -0.41085986998E+02 -0.15178307435E+02 -0.54386601281E+02  0.69830807980E+02  0.00000000000E+00 0. -1.
         11    1    4    4    0    0  0.28095313525E+02  0.63020182423E+01  0.94372044924E+01  0.30300542976E+02  0.00000000000E+00 0.  1.
</event>
<event>
 8    1  0.7136454E-009  0.1728004E+03  0.7561462E-02  0.1174959E+00
         -2   -1    0    0    0  501 -0.00000000000E+00  0.00000000000E+00  0.39830490098E+02  0.39830490098E+02  0.00000000000E+00 0.  1.
          2   -1    0    0  501    0  0.00000000000E+00 -0.00000000000E+00 -0.11503871828E+04  0.11503871828E+04  0.00000000000E+00 0. -1.
         25    2    1    2    0    0 -0.12504805277E+03  0.69207422060E+02 -0.90243759614E+03  0.92220792785E+03  0.12508862653E+03 0.  0.
         23    2    1    2    0    0  0.12504805277E+03 -0.69207422060E+02 -0.20811909658E+03  0.26800974507E+03  0.89938769854E+02 0.  0.
          5    1    3    3  502    0 -0.91775246407E+02  0.96829024587E+02 -0.79813114880E+03  0.80921527355E+03  0.41800000000E+01 0. -1.
         -5    1    3    3    0  502 -0.33272806358E+02 -0.27621602526E+02 -0.10430644734E+03  0.11299265430E+03  0.41800000000E+01 0. -1.
        -11    1    4    4    0    0  0.12381559744E+03 -0.86693525236E+02 -0.19016509383E+03  0.24291733656E+03  0.00000000000E+00 0.  1.
         11    1    4    4    0    0  0.12324553242E+01  0.17486103175E+02 -0.17954002750E+02  0.25092408516E+02  0.00000000000E+00 0. -1.
</event>
<event>
 8    1  0.7136454E-009  0.1070789E+03  0.7561462E-02  0.1266077E+00
         -2   -1    0    0    0  501 -0.00000000000E+00  0.00000000000E+00  0.17524735646E+02  0.17524735646E+02  0.00000000000E+00 0.  1.
          2   -1    0    0  501    0  0.00000000000E+00 -0.00000000000E+00 -0.76081944197E+03  0.76081944197E+03  0.00000000000E+00 0. -1.
         25    2    1    2    0    0 -0.29557731261E+01 -0.38976852406E+02 -0.42745844361E+03  0.44709961423E+03  0.12509761152E+03 0.  0.
         23    2    1    2    0    0  0.29557731261E+01  0.38976852406E+02 -0.31583626271E+03  0.33124456339E+03  0.91882992509E+02 0.  0.
          5    1    3    3  502    0 -0.57971085515E+02  0.78993230116E+01 -0.18886328680E+03  0.19776212873E+03  0.41800000000E+01 0. -1.
         -5    1    3    3    0  502  0.55015312389E+02 -0.46876175418E+02 -0.23859515682E+03  0.24933748550E+03  0.41800000000E+01 0. -1.
        -11    1    4    4    0    0  0.27780626940E+02 -0.89014540037E+01 -0.36378724639E+02  0.46630577124E+02  0.00000000000E+00 0.  1.
         11    1    4    4    0    0 -0.24824853814E+02  0.47878306410E+02 -0.27945753807E+03  0.28461398626E+03  0.00000000000E+00 0. -1.
</event>
<event>
 8    1  0.7136454E-009  0.1698116E+03  0.7561462E-02  0.1178044E+00
          1   -1    0    0  501    0  0.00000000000E+00  0.00000000000E+00  0.13497031610E+04  0.13497031610E+04  0.00000000000E+00 0. -1.
         -1   -1    0    0    0  501 -0.00000000000E+00 -0.00000000000E+00 -0.28650468180E+02  0.28650468180E+02  0.00000000000E+00 0.  1.
         25    2    1    2    0    0 -0.14240774362E+03  0.68076523125E+02  0.86770747668E+03  0.89077528936E+03  0.12509985052E+03 0.  0.
         23    2    1    2    0    0  0.14240774362E+03 -0.68076523125E+02  0.45334521614E+03  0.48757833982E+03  0.85418815392E+02 0.  0.
          5    1    3    3  502    0 -0.90849623162E+02  0.84099780295E+02  0.76201916587E+03  0.77202144312E+03  0.41800000000E+01 0. -1.
         -5    1    3    3    0  502 -0.51558120461E+02 -0.16023257170E+02  0.10568831081E+03  0.11875384624E+03  0.41800000000E+01 0. -1.
        -11    1    4    4    0    0  0.12851128370E+03 -0.47998233512E+02  0.43741763330E+03  0.45842465726E+03  0.00000000000E+00 0. -1.
         11    1    4    4    0    0  0.13896459919E+02 -0.20078289613E+02  0.15927582842E+02  0.29153682568E+02  0.00000000000E+00 0.  1.
</event>
<event>
 8    1  0.7136454E-009  0.9993044E+02  0.7561462E-02  0.1280442E+00
          1   -1    0    0  501    0  0.00000000000E+00  0.00000000000E+00  0.32128097218E+02  0.32128097218E+02  0.00000000000E+00 0. -1.
         -1   -1    0    0    0  501 -0.00000000000E+00 -0.00000000000E+00 -0.51057087024E+03  0.51057087024E+03  0.00000000000E+00 0.  1.
         25    2    1    2    0    0 -0.66590363301E+02  0.86438035939E+01 -0.26939248038E+03  0.30451892198E+03  0.12510185265E+03 0.  0.
         23    2    1    2    0    0  0.66590363301E+02 -0.86438035939E+01 -0.20905029264E+03  0.23818004547E+03  0.92296898017E+02 0.  0.
          5    1    3    3  502    0 -0.74319142329E+02 -0.36993451970E+01 -0.27750070859E+03  0.28733453628E+03  0.41800000000E+01 0. -1.
         -5    1    3    3    0  502  0.77287790277E+01  0.12343148791E+02  0.81082282090E+01  0.17184385704E+02  0.41800000000E+01 0. -1.
        -11    1    4    4    0    0  0.28914491381E+02 -0.47785861870E+02 -0.13695872387E+03  0.14790952793E+03  0.00000000000E+00 0. -1.
         11    1    4    4    0    0  0.37675871920E+02  0.39142058276E+02 -0.72091568769E+02  0.90270517549E+02  0.00000000000E+00 0.  1.
</event>
<event>
 8    1  0.7136454E-009  0.1226808E+03  0.7561462E-02  0.1238739E+00
          2   -1    0    0  501    0  0.00000000000E+00  0.00000000000E+00  0.13675537866E+03  0.13675537866E+03  0.00000000000E+00 0. -1.
         -2   -1    0    0    0  501 -0.00000000000E+00 -0.00000000000E+00 -0.16612460522E+03  0.16612460522E+03  0.00000000000E+00 0.  1.
         25    2    1    2    0    0  0.58784081696E+02 -0.76254016760E+02 -0.56756083405E+02  0.16774561575E+03  0.12508834984E+03 0.  0.
         23    2    1    2    0    0 -0.58784081696E+02  0.76254016760E+02  0.27386856847E+02  0.13513436813E+03  0.90780031883E+02 0.  0.
          5    1    3    3  502    0  0.12503101378E+02  0.10730310194E+02  0.31246615545E+02  0.35570921888E+02  0.41800000000E+01 0.  1.
         -5    1    3    3    0  502  0.46280980317E+02 -0.86984326954E+02 -0.88002698950E+02  0.13217469386E+03  0.41800000000E+01 0.  1.
        -11    1    4    4    0    0 -0.31175583999E+02 -0.14862599805E+02 -0.42738913436E+01  0.34800575539E+02  0.00000000000E+00 0.  1.
         11    1    4    4    0    0 -0.27608497696E+02  0.91116616566E+02  0.31660748191E+02  0.10033379259E+03  0.00000000000E+00 0. -1.
</event>
