<event>
 7    1  0.2384639E-009  0.1268086E+03  0.7561462E-02  0.1232269E+00
          2   -1    0    0  501    0  0.00000000000E+00  0.00000000000E+00  0.67688355315E+03  0.67688355315E+03  0.00000000000E+00 0. -1.
         -2   -1    0    0    0  501 -0.00000000000E+00 -0.00000000000E+00 -0.36905245380E+02  0.36905245380E+02  0.00000000000E+00 0.  1.
         25    2    1    2    0    0  0.85609057036E+02  0.48287640265E+02  0.47480223410E+03  0.50074462816E+03  0.12508962494E+03 0.  0.
          5    1    3    3  502    0  0.10666112961E+03  0.33503920577E+02  0.24341686046E+03  0.26789615455E+03  0.41800000000E+01 0.  1.
         -5    1    3    3    0  502 -0.21052072573E+02  0.14783719687E+02  0.23138537364E+03  0.23284847361E+03  0.41800000000E+01 0.  1.
        -11    1    1    2    0    0 -0.60418002426E+02 -0.62355601139E+02  0.64079319396E+02  0.10791068151E+03  0.00000000000E+00 0.  1.
         11    1    1    2    0    0 -0.25191054610E+02  0.14067960875E+02  0.10109675427E+03  0.10513348886E+03  0.00000000000E+00 0. -1.
</event>
<event>
 7    1  0.2384639E-009  0.7129196E+02  0.7561462E-02  0.1355754E+00
          2   -1    0    0  501    0  0.00000000000E+00  0.00000000000E+00  0.23159880731E+03  0.23159880731E+03  0.00000000000E+00 0. -1.
         -2   -1    0    0    0  501 -0.00000000000E+00 -0.00000000000E+00 -0.64742367462E+02  0.64742367462E+02  0.00000000000E+00 0.  1.
         25    2    1    2    0    0  0.54976185152E+02  0.94099896137E-02  0.11442815770E+03  0.17822212447E+03  0.12508773463E+03 0.  0.
          5    1    3    3  502    0  0.33660221166E+02 -0.21786742694E+02  0.13520878331E+03  0.14109060965E+03  0.41800000000E+01 0. -1.
         -5    1    3    3    0  502  0.21315963987E+02  0.21796152684E+02 -0.20780625611E+02  0.37131514826E+02  0.41800000000E+01 0. -1.
        -11    1    1    2    0    0 -0.12598010226E+02  0.20776453266E+02  0.64898891451E+02  0.69298174460E+02  0.00000000000E+00 0. -1.
         11    1    1    2    0    0 -0.42378174927E+02 -0.20785863256E+02 -0.12470609302E+02  0.48820875840E+02  0.00000000000E+00 0.  1.
</event>
<event>
 7    1  0.2384639E-009  0.2289263E+03  0.7561462E-02  0.1127398E+00
          2   -1    0    0  501    0  0.00000000000E+00  0.00000000000E+00  0.23320599652E+04  0.23320599652E+04  0.00000000000E+00 0.  1.
         -2   -1    0    0    0  501 -0.00000000000E+00 -0.00000000000E+00 -0.24430714957E+02  0.24430714957E+02  0.00000000000E+00 0. -1.
         25    2    1    2    0    0  0.88557190209E+02  0.18011423000E+03  0.15212979861E+04  0.15395710178E+04  0.12509134515E+03 0.  0.
          5    1    3    3  502    0  0.12066417318E+03  0.13891212536E+03  0.11968275037E+04  0.12108963486E+04  0.41800000000E+01 0.  1.
         -5    1    3    3    0  502 -0.32106982969E+02  0.41202104636E+02  0.32447048244E+03  0.32867466917E+03  0.41800000000E+01 0.  1.
        -11    1    1    2    0    0 -0.31808112564E+02 -0.15689496298E+03  0.56076124920E+03  0.58316461144E+03  0.00000000000E+00 0.  1.
         11    1    1    2    0    0 -0.56749077645E+02 -0.23219267016E+02  0.22557001493E+03  0.23375505088E+03  0.00000000000E+00 0. -1.
</event>
<event>
 7    1  0.2384639E-009  0.1107622E+03  0.7561462E-02  0.1259165E+00
         -3   -1    0    0    0  501 -0.00000000000E+00  0.00000000000E+00  0.69127087878E+02  0.69127087878E+02  0.00000000000E+00 0.  1.
          3   -1    0    0  501    0  0.00000000000E+00 -0.00000000000E+00 -0.31397621251E+03  0.31397621251E+03  0.00000000000E+00 0. -1.
         25    2    1    2    0    0 -0.98516852556E+02  0.23397415695E+02 -0.11662891417E+03  0.19874068652E+03  0.12507017054E+03 0.  0.
          5    1    3    3  502    0 -0.51051659484E+01  0.24348421761E+02 -0.10078968400E+03  0.10389870626E+03  0.41800000000E+01 0.  1.
         -5    1    3    3    0  502 -0.93411686608E+02 -0.95100606590E+00 -0.15839230171E+02  0.94841980261E+02  0.41800000000E+01 0.  1.
        -11    1    1    2    0    0  0.63505454348E+02 -0.23676155652E+02 -0.13275760635E+03  0.14905732160E+03  0.00000000000E+00 0. -1.
         11    1    1    2    0    0  0.35011398208E+02  0.27873995756E+00  0.45373958927E+01  0.35305292265E+02  0.00000000000E+00 0.  1.
</event>
<event>
 7    1  0.2384639E-009  0.1199837E+03  0.7561462E-02  0.1243124E+00
         -1   -1    0    0    0  501 -0.00000000000E+00  0.00000000000E+00  0.90780562480E+02  0.90780562480E+02  0.00000000000E+00 0.  1.
          1   -1    0    0  501    0  0.00000000000E+00 -0.00000000000E+00 -0.22362617775E+03  0.22362617775E+03  0.00000000000E+00 0. -1.
         25    2    1    2    0    0  0.22550587732E+02 -0.74034411155E+02 -0.12771980936E+03  0.19479449467E+03  0.12507166908E+03 0.  0.
          5    1    3    3  502    0  0.18552269916E+02 -0.10925267067E+03 -0.10326087303E+03  0.15152759837E+03  0.41800000000E+01 0.  1.
         -5    1    3    3    0  502  0.39983178164E+01  0.35218259519E+02 -0.24458936330E+02  0.43266896298E+02  0.41800000000E+01 0.  1.
        -11    1    1    2    0    0 -0.73006380545E+01 -0.74805184549E+01 -0.31020556075E+02  0.32734269070E+02  0.00000000000E+00 0. -1.
         11    1    1    2    0    0 -0.15249949678E+02  0.81514929610E+02  0.25894750159E+02  0.86877976498E+02  0.00000000000E+00 0.  1.
</event>
<event>
 7    1  0.2384639E-009  0.1491089E+03  0.7561462E-02  0.1201572E+00
         -2   -1    0    0    0  501 -0.00000000000E+00  0.00000000000E+00  0.71341653459E+02  0.71341653459E+02  0.00000000000E+00 0.  1.
          2   -1    0    0  501    0  0.00000000000E+00 -0.00000000000E+00 -0.58135708120E+03  0.58135708120E+03  0.00000000000E+00 0. -1.
         25    2    1    2    0    0  0.11933950812E+03 -0.48848293376E+02 -0.84277544756E+02  0.19844258089E+03  0.12509468173E+03 0.  0.
          5    1    3    3  502    0 -0.81733340210E+01 -0.27481474133E+01 -0.59842215025E+02  0.60604610405E+02  0.41800000000E+01 0. -1.
         -5    1    3    3    0  502  0.12751284214E+03 -0.46100145962E+02 -0.24435329731E+02  0.13783797049E+03  0.41800000000E+01 0. -1.
        -11    1    1    2    0    0 -0.77054076780E+02 -0.12914752988E+02 -0.27610087493E+03  0.28694218012E+03  0.00000000000E+00 0. -1.
         11    1    1    2    0    0 -0.42285431340E+02  0.61763046363E+02 -0.14963700806E+03  0.16731397365E+03  0.00000000000E+00 0.  1.
</event>
<event>
 7    1  0.2384639E-009  0.1595921E+03  0.7561462E-02  0.1189158E+00
         -1   -1    0    0    0  501 -0.00000000000E+00  0.00000000000E+00  0.42480231174E+03  0.42480231174E+03  0.00000000000E+00 0.  1.
          1   -1    0    0  501    0  0.00000000000E+00 -0.00000000000E+00 -0.17694569543E+03  0.17694569543E+03  0.00000000000E+00 0. -1.
         25    2    1    2    0    0 -0.11447776961E+03 -0.43969677703E+02 -0.11395596923E+03  0.20897820632E+03  0.12508970981E+03 0.  0.
          5    1    3    3  502    0 -0.23180706398E+02  0.40940622332E+02 -0.50029599841E+02  0.68803437169E+02  0.41800000000E+01 0. -1.
         -5    1    3    3    0  502 -0.91297063210E+02 -0.84910300036E+02 -0.63926369390E+02  0.14017476915E+03  0.41800000000E+01 0. -1.
        -11    1    1    2    0    0 -0.75641717510E+01  0.21914352495E+02  0.26244092977E+02  0.35017252259E+02  0.00000000000E+00 0. -1.
         11    1    1    2    0    0  0.12204194136E+03  0.22055325209E+02  0.33556849256E+03  0.35775254859E+03  0.00000000000E+00 0.  1.
</event>
<event>
 7    1  0.2384639E-009  0.9213374E+02  0.7561462E-02  0.1297765E+00
         -2   -1    0    0    0  501 -0.00000000000E+00  0.00000000000E+00  0.23573013686E+02  0.23573013686E+02  0.00000000000E+00 0.  1.
          2   -1    0    0  501    0  0.00000000000E+00 -0.00000000000E+00 -0.66845262426E+03  0.66845262426E+03  0.00000000000E+00 0. -1.
         25    2    1    2    0    0 -0.47270544835E+02  0.29367862153E+02 -0.45216252882E+03  0.47243288161E+03  0.12507957236E+03 0.  0.
          5    1    3    3  502    0 -0.37784525282E+01 -0.17703932649E+02 -0.35783412375E+03  0.35831611526E+03  0.41800000000E+01 0. -1.
         -5    1    3    3    0  502 -0.43492092307E+02  0.47071794802E+02 -0.94328405066E+02  0.11411676635E+03  0.41800000000E+01 0. -1.
        -11    1    1    2    0    0 -0.22976212376E+02 -0.20253178299E+02 -0.33855727372E+02  0.45654220420E+02  0.00000000000E+00 0.  1.
         11    1    1    2    0    0  0.70246757211E+02 -0.91146838543E+01 -0.15886135438E+03  0.17393853591E+03  0.00000000000E+00 0. -1.
</event>
<event>
 7    1  0.2384639E-009  0.9953820E+02  0.7561462E-02  0.1281270E+00
         -1   -1    0    0    0  501 -0.00000000000E+00  0.00000000000E+00  0.86657168935E+02  0.86657168935E+02  0.00000000000E+00 0.  1.
          1   -1    0    0  501    0  0.00000000000E+00 -0.00000000000E+00 -0.14769588497E+03  0.14769588497E+03  0.00000000000E+00 0. -1.
         25    2    1    2    0    0  0.19645024628E+02  0.75001549107E+01 -0.11927952568E+02  0.12740682292E+03  0.12509213867E+03 0.  0.
          5    1    3    3  502    0 -0.45854025028E+02 -0.14635193220E+02  0.18524373890E+02  0.51743650044E+02  0.41800000000E+01 0.  1.
         -5    1    3    3    0  502  0.65499049657E+02  0.22135348131E+02 -0.30452326459E+02  0.75663172875E+02  0.41800000000E+01 0.  1.
        -11    1    1    2    0    0  0.30487699580E+02 -0.73658637794E+01 -0.47333066012E+02  0.56781818508E+02  0.00000000000E+00 0. -1.
         11    1    1    2    0    0 -0.50132724209E+02 -0.13429113130E+00 -0.17776974515E+01  0.50164412475E+02  0.00000000000E+00 0.  1.
</event>
<event>
 7    1  0.2384639E-009  0.1072193E+03  0.7561462E-02  0.1265808E+00
          2   -1    0    0  501    0  0.00000000000E+00  0.00000000000E+00  0.28096047994E+03  0.28096047994E+03  0.00000000000E+00 0. -1.
         -2   -1    0    0    0  501 -0.00000000000E+00 -0.00000000000E+00 -0.42265334247E+02  0.42265334247E+02  0.00000000000E+00 0.  1.
         25    2    1    2    0    0  0.58323919646E+00 -0.18033537813E+02  0.14040445223E+03  0.18890550734E+03  0.12508529828E+03 0.  0.
          5    1    3    3  502    0  0.32897154682E+02  0.44626636899E+02  0.57213498889E+02  0.79778545752E+02  0.41800000000E+01 0.  1.
         -5    1    3    3    0  502 -0.32313915486E+02 -0.62660174712E+02  0.83190953339E+02  0.10912696159E+03  0.41800000000E+01 0.  1.
        -11    1    1    2    0    0  0.36161471307E+02 -0.14670075039E+02  0.61731781757E+02  0.73032020290E+02  0.00000000000E+00 0. -1.
         11    1    1    2    0    0 -0.36744710503E+02  0.32703612852E+02  0.36558911710E+02  0.61288286556E+02  0.00000000000E+00 0.  1.
</event>
<event>
 7    1  0.2384639E-009  0.1461444E+03  0.7561462E-02  0.1205292E+00
         -2   -1    0    0    0  501 -0.00000000000E+00  0.00000000000E+00  0.11774526072E+03  0.11774526072E+03  0.00000000000E+00 0. -1.
          2   -1    0    0  501    0  0.00000000000E+00 -0.00000000000E+00 -0.26201829200E+03  0.26201829200E+03  0.00000000000E+00 0.  1.
         25    2    1    2    0    0  0.12049009431E+03 -0.32737850721E+02 -0.13677967470E+03  0.22348503023E+03  0.12508896686E+03 0.  0.
          5    1    3    3  502    0  0.12708225008E+03 -0.58595724102E+02 -0.13781742805E+03  0.19645476080E+03  0.41800000000E+01 0. -1.
         -5    1    3    3    0  502 -0.65921557642E+01  0.25857873380E+02  0.10377533552E+01  0.27030269429E+02  0.41800000000E+01 0. -1.
        -11    1    1    2    0    0 -0.10232217338E+03  0.23920573052E+02  0.33740491844E+02  0.11036503872E+03  0.00000000000E+00 0. -1.
         11    1    1    2    0    0 -0.18167920928E+02  0.88172776694E+01 -0.41233848420E+02  0.45913483770E+02  0.00000000000E+00 0.  1.
</event>
<event>
 7    1  0.2384639E-009  0.1131162E+03  0.7561462E-02  0.1254906E+00
         -1   -1    0    0    0  501 -0.00000000000E+00  0.00000000000E+00  0.51199679182E+03  0.51199679182E+03  0.00000000000E+00 0.  1.
          1   -1    0    0  501    0  0.00000000000E+00 -0.00000000000E+00 -0.34768419749E+02  0.34768419749E+02  0.00000000000E+00 0. -1.
         25    2    1    2    0    0  0.55560118076E+02  0.32122115621E+02  0.17718741453E+03  0.22618549287E+03  0.12508293362E+03 0.  0.
          5    1    3    3  502    0 -0.26597679866E+02 -0.12700357567E+02  0.50330302584E+01  0.30191711614E+02  0.41800000000E+01 0. -1.
         -5    1    3    3    0  502  0.82157797942E+02  0.44822473188E+02  0.17215438428E+03  0.19599378126E+03  0.41800000000E+01 0. -1.
        -11    1    1    2    0    0 -0.73918308285E+02 -0.10896431233E+02  0.14605083998E+03  0.16405333392E+03  0.00000000000E+00 0. -1.
         11    1    1    2    0    0  0.18358190208E+02 -0.21225684388E+02  0.15399011756E+03  0.15652638478E+03  0.00000000000E+00 0.  1.
</event>
<event>
 7    1  0.2384639E-009  0.1452823E+03  0.7561462E-02  0.1206393E+00
          2   -1    0    0  501    0  0.00000000000E+00  0.00000000000E+00  0.56925005289E+03  0.56925005289E+03  0.00000000000E+00 0. -1.
         -2   -1    0    0    0  501 -0.00000000000E+00 -0.00000000000E+00 -0.58106182674E+02  0.58106182674E+02  0.00000000000E+00 0.  1.
         25    2    1    2    0    0  0.16287834295E+02  0.11016982838E+03  0.43255639630E+03  0.46385054945E+03  0.12509840770E+03 0.  0.
          5    1    3    3  502    0  0.45985326603E+02  0.15020960425E+02  0.26030090108E+03  0.26479107051E+03  0.41800000000E+01 0.  1.
         -5    1    3    3    0  502 -0.29697492308E+02  0.95148867958E+02  0.17225549522E+03  0.19905947894E+03  0.41800000000E+01 0.  1.
        -11    1    1    2    0    0 -0.49730951857E+02 -0.37618903063E+02  0.24331589066E+02  0.66935608362E+02  0.00000000000E+00 0.  1.
         11    1    1    2    0    0  0.33443117562E+02 -0.72550925320E+02  0.54255884849E+02  0.96570077756E+02  0.00000000000E+00 0. -1.
</event>
<event>
 7    1  0.2384639E-009  0.1176746E+03  0.7561462E-02  0.1246983E+00
         -1   -1    0    0    0  501 -0.00000000000E+00  0.00000000000E+00  0.65520188066E+01  0.65520188066E+01  0.00000000000E+00 0.  1.
          1   -1    0    0  501    0  0.00000000000E+00 -0.00000000000E+00 -0.25852006093E+04  0.25852006093E+04  0.00000000000E+00 0. -1.
         25    2    1    2    0    0  0.40435491934E+02  0.26360674280E+01 -0.19625782748E+04  0.19669783240E+04  0.12509302464E+03 0.  0.
          5    1    3    3  502    0  0.51750663315E+02 -0.53179294529E+02 -0.10785371165E+04  0.10810947936E+04  0.41800000000E+01 0. -1.
         -5    1    3    3    0  502 -0.11315171381E+02  0.55815361957E+02 -0.88404115823E+03  0.88588353049E+03  0.41800000000E+01 0. -1.
        -11    1    1    2    0    0  0.17258338591E+02  0.32196680772E+02 -0.21736543598E+03  0.22041372294E+03  0.00000000000E+00 0. -1.
         11    1    1    2    0    0 -0.57693830525E+02 -0.34832748200E+02 -0.39870487972E+03  0.40436058109E+03  0.00000000000E+00 0.  1.
</event>
<event>
 7    1  0.2384639E-009  0.1349108E+03  0.7561462E-02  0.1220346E+00
         -2   -1    0    0    0  501 -0.00000000000E+00  0.00000000000E+00  0.22997620407E+02  0.22997620407E+02  0.00000000000E+00 0. -1.
          2   -1    0    0  501    0  0.00000000000E+00 -0.00000000000E+00 -0.94458062663E+03  0.94458062663E+03  0.00000000000E+00 0.  1.
         25    2    1    2    0    0 -0.15014730370E+02  0.87258814891E+02 -0.68006355180E+03  0.69711836177E+03  0.12509209773E+03 0.  0.
          5    1    3    3  502    0 -0.63613869021E+02  0.23721641145E+02 -0.22494876843E+03  0.23500821562E+03  0.41800000000E+01 0.  1.
         -5    1    3    3    0  502  0.48599138651E+02  0.63537173746E+02 -0.45511478337E+03  0.46211014614E+03  0.41800000000E+01 0.  1.
        -11    1    1    2    0    0  0.42681185152E+01  0.16673842397E+02 -0.36161121648E+02  0.40048228110E+02  0.00000000000E+00 0. -1.
         11    1    1    2    0    0  0.10746611854E+02 -0.10393265729E+03 -0.20535833277E+03  0.23041165716E+03  0.00000000000E+00 0.  1.
</event>
<event>
 7    1  0.2384639E-009  0.8804157E+02  0.7561462E-02  0.1307665E+00
          1   -1    0    0  501    0  0.00000000000E+00  0.00000000000E+00  0.15433621585E+03  0.15433621585E+03  0.00000000000E+00 0. -1.
         -1   -1    0    0    0  501 -0.00000000000E+00 -0.00000000000E+00 -0.96671959658E+02  0.96671959658E+02  0.00000000000E+00 0.  1.
         25    2    1    2    0    0 -0.36312564752E+02  0.34833226803E+01  0.65072768914E+02  0.14564845402E+03  0.12509304940E+03 0.  0.
          5    1    3    3  502    0  0.42056230991E+02  0.21428249013E+02  0.10928976273E+02  0.48629325960E+02  0.41800000000E+01 0.  1.
         -5    1    3    3    0  502 -0.78368795743E+02 -0.17944926332E+02  0.54143792641E+02  0.97019128057E+02  0.41800000000E+01 0.  1.
        -11    1    1    2    0    0  0.30669995417E+01 -0.13203278548E+02  0.42500083051E+02  0.44609305195E+02  0.00000000000E+00 0. -1.
         11    1    1    2    0    0  0.33245565211E+02  0.97199558674E+01 -0.49908595773E+02  0.60750416297E+02  0.00000000000E+00 0.  1.
</event>
<event>
 7    1  0.2384639E-009  0.1069613E+03  0.7561462E-02  0.1266303E+00
          2   -1    0    0  501    0  0.00000000000E+00  0.00000000000E+00  0.24956243521E+03  0.24956243521E+03  0.00000000000E+00 0. -1.
         -2   -1    0    0    0  501 -0.00000000000E+00 -0.00000000000E+00 -0.46871414539E+02  0.46871414539E+02  0.00000000000E+00 0.  1.
         25    2    1    2    0    0 -0.25536027206E+02  0.30606749730E+01  0.12110266359E+03  0.17600145240E+03  0.12509676136E+03 0.  0.
          5    1    3    3  502    0  0.48185880685E+02  0.19031757740E+02  0.54094207128E+02  0.75018281404E+02  0.41800000000E+01 0.  1.
         -5    1    3    3    0  502 -0.73721907890E+02 -0.15971082767E+02  0.67008456458E+02  0.10098317100E+03  0.41800000000E+01 0.  1.
        -11    1    1    2    0    0  0.44336707427E+02  0.26288059092E+02  0.61348742372E+02  0.80127859493E+02  0.00000000000E+00 0.  1.
         11    1    1    2    0    0 -0.18800680221E+02 -0.29348734065E+02  0.20239614715E+02  0.40304537856E+02  0.00000000000E+00 0. -1.
</event>
<event>
 7    1  0.2384639E-009  0.1112644E+03  0.7561462E-02  0.1258246E+00
         -2   -1    0    0    0  501 -0.00000000000E+00  0.00000000000E+00  0.20560879498E+02  0.20560879498E+02  0.00000000000E+00 0.  1.
          2   -1    0    0  501    0  0.00000000000E+00 -0.00000000000E+00 -0.98712703390E+03  0.98712703390E+03  0.00000000000E+00 0. -1.
         25    2    1    2    0    0 -0.10324482927E+03  0.28219674022E+02 -0.46540880632E+03  0.49366981678E+03  0.12509470902E+03 0.  0.
          5    1    3    3  502    0 -0.96395132842E+02  0.34381969644E+02 -0.17273224716E+03  0.20081843312E+03  0.41800000000E+01 0.  1.
         -5    1    3    3    0  502 -0.68496964276E+01 -0.61622956227E+01 -0.29267655916E+03  0.29285138365E+03  0.41800000000E+01 0.  1.
        -11    1    1    2    0    0  0.21051468021E+02  0.44811832200E+01 -0.52811572922E+02  0.57029006158E+02  0.00000000000E+00 0.  1.
         11    1    1    2    0    0  0.82193361249E+02 -0.32700857242E+02 -0.44834577516E+03  0.45698909047E+03  0.00000000000E+00 0. -1.
</event>
<event>
 7    1  0.2384639E-009  0.1494858E+03  0.7561462E-02  0.1201106E+00
          2   -1    0    0  501    0  0.00000000000E+00  0.00000000000E+00  0.46672338305E+03  0.46672338305E+03  0.00000000000E+00 0. -1.
         -2   -1    0    0    0  501 -0.00000000000E+00 -0.00000000000E+00 -0.52466131175E+02  0.52466131175E+02  0.00000000000E+00 0.  1.
         25    2    1    2    0    0 -0.20800138009E+01  0.11072134629E+03  0.18660889793E+03  0.25047134603E+03  0.12509784737E+03 0.  0.
          5    1    3    3  502    0  0.57224467992E+02  0.84185365074E+02  0.11779883036E+03  0.15574290438E+03  0.41800000000E+01 0.  1.
         -5    1    3    3    0  502 -0.59304481793E+02  0.26535981213E+02  0.68810067567E+02  0.94728441654E+02  0.41800000000E+01 0.  1.
        -11    1    1    2    0    0  0.32675665200E+02 -0.88022079866E+02  0.10777726808E+03  0.14293888608E+03  0.00000000000E+00 0.  1.
         11    1    1    2    0    0 -0.30595651399E+02 -0.22699266421E+02  0.11987108587E+03  0.12577928211E+03  0.00000000000E+00 0. -1.
</event>
<event>
 7    1  0.2384639E-009  0.3088667E+03  0.7561462E-02  0.1080890E+00
         -1   -1    0    0    0  501 -0.00000000000E+00  0.00000000000E+00  0.61803606360E+03  0.61803606360E+03  0.00000000000E+00 0.  1.
          1   -1    0    0  501    0  0.00000000000E+00 -0.00000000000E+00 -0.20758856159E+03  0.20758856159E+03  0.00000000000E+00 0. -1.
         25    2    1    2    0    0  0.23699432960E+03 -0.18659853056E+03  0.39292956019E+03  0.51090937141E+03  0.12509765247E+03 0.  0.
          5    1    3    3  502    0  0.18680516390E+03 -0.11336813297E+03  0.34895879418E+03  0.41175018551E+03  0.41800000000E+01 0. -1.
         -5    1    3    3    0  502  0.50189165694E+02 -0.73230397589E+02  0.43970766012E+02  0.99159185897E+02  0.41800000000E+01 0. -1.
        -11    1    1    2    0    0 -0.64496546707E+02  0.95465423173E+02  0.30540061613E+02  0.11918954200E+03  0.00000000000E+00 0.  1.
         11    1    1    2    0    0 -0.17249778289E+03  0.91133107388E+02 -0.13022119795E+02  0.19552571178E+03  0.00000000000E+00 0. -1.
</event>
<event>
 7    1  0.2384639E-009  0.1030874E+03  0.7561462E-02  0.1273934E+00
          3   -1    0    0  501    0  0.00000000000E+00  0.00000000000E+00  0.23830632538E+02  0.23830632538E+02  0.00000000000E+00 0. -1.
         -3   -1    0    0    0  501 -0.00000000000E+00 -0.00000000000E+00 -0.95621001327E+03  0.95621001327E+03  0.00000000000E+00 0.  1.
         25    2    1    2    0    0  0.17005599733E+02 -0.76677909479E+02 -0.72781645761E+03  0.74265228460E+03  0.12508767976E+03 0.  0.
          5    1    3    3  502    0 -0.37663575299E+02 -0.12165097836E+02 -0.80276459219E+02  0.89600875076E+02  0.41800000000E+01 0.  1.
         -5    1    3    3    0  502  0.54669175032E+02 -0.64512811643E+02 -0.64753999839E+03  0.65305140952E+03  0.41800000000E+01 0.  1.
        -11    1    1    2    0    0 -0.10494208344E+01  0.53843018517E+02 -0.20240586803E+03  0.20944762434E+03  0.00000000000E+00 0.  1.
         11    1    1    2    0    0 -0.15956178899E+02  0.22834890962E+02 -0.21570550927E+01  0.27940736872E+02  0.00000000000E+00 0. -1.
</event>
<event>
 7    1  0.3256132E-009  0.1270524E+03  0.7561462E-02  0.1231896E+00
         -1   -1    0    0    0  501 -0.00000000000E+00  0.00000000000E+00  0.32774485125E+02  0.32774485125E+02  0.00000000000E+00 0.  1.
          1   -1    0    0  501    0  0.00000000000E+00 -0.00000000000E+00 -0.69866567572E+03  0.69866567572E+03  0.00000000000E+00 0. -1.
         25    2    1    2    0    0  0.23316158860E+02  0.87162567965E+02 -0.22832547642E+03  0.27553735431E+03  0.12508938373E+03 0.  0.
          5    1    3    3  502    0 -0.50569153548E+02  0.21767580873E+02 -0.74262683281E+02  0.92539101983E+02  0.41800000000E+01 0. -1.
         -5    1    3    3    0  502  0.73885312409E+02  0.65394987092E+02 -0.15406279314E+03  0.18299825233E+03  0.41800000000E+01 0. -1.
        -11    1    1    2    0    0 -0.35886177083E+02 -0.55771181407E+02 -0.39958230251E+03  0.40504846483E+03  0.00000000000E+00 0. -1.
         11    1    1    2    0    0  0.12570018223E+02 -0.31391386558E+02 -0.37983411664E+02  0.50854341700E+02  0.00000000000E+00 0.  1.
</event>
<event>
 7    1  0.2384639E-009  0.8320510E+02  0.7561462E-02  0.1320194E+00
         -1   -1    0    0    0  501 -0.00000000000E+00  0.00000000000E+00  0.45064988262E+02  0.45064988262E+02  0.00000000000E+00 0.  1.
          1   -1    0    0  501    0  0.00000000000E+00 -0.00000000000E+00 -0.37543269138E+03  0.37543269138E+03  0.00000000000E+00 0. -1.
         25    2    1    2    0    0  0.61762939012E+02 -0.26985909109E+02 -0.22446268881E+03  0.26565068146E+03  0.12507552106E+03 0.  0.
          5    1    3    3  502    0  0.50959801024E+02 -0.42139418701E+02 -0.23479042002E+03  0.24396033625E+03  0.41800000000E+01 0. -1.
         -5    1    3    3    0  502  0.10803137989E+02  0.15153509592E+02  0.10327731216E+02  0.21690345212E+02  0.41800000000E+01 0. -1.
        -11    1    1    2    0    0 -0.45547453252E+02  0.39741000789E+02 -0.11680085005E+03  0.13151561206E+03  0.00000000000E+00 0. -1.
         11    1    1    2    0    0 -0.16215485760E+02 -0.12755091680E+02  0.10895835737E+02  0.23331386127E+02  0.00000000000E+00 0.  1.
</event>
<event>
 7    1  0.2384639E-009  0.2146706E+03  0.7561462E-02  0.1137920E+00
         -2   -1    0    0    0  501 -0.00000000000E+00  0.00000000000E+00  0.15511489393E+03  0.15511489393E+03  0.00000000000E+00 0.  1.
          2   -1    0    0  501    0  0.00000000000E+00 -0.00000000000E+00 -0.37485185433E+03  0.37485185433E+03  0.00000000000E+00 0. -1.
         25    2    1    2    0    0  0.10998502430E+03  0.17288679149E+03 -0.18516126167E+03  0.30318052390E+03  0.12508872454E+03 0.  0.
          5    1    3    3  502    0  0.58063322279E+02  0.48992661815E+02 -0.21447700421E+01  0.76116376322E+02  0.41800000000E+01 0.  1.
         -5    1    3    3    0  502  0.51921702024E+02  0.12389412968E+03 -0.18301649162E+03  0.22706414758E+03  0.41800000000E+01 0.  1.
        -11    1    1    2    0    0 -0.84777488883E+02 -0.61713432181E+02  0.78450364447E+01  0.10515376802E+03  0.00000000000E+00 0.  1.
         11    1    1    2    0    0 -0.25207535420E+02 -0.11117335931E+03 -0.42420735176E+02  0.12163245634E+03  0.00000000000E+00 0. -1.
</event>
<event>
 7    1  0.2384639E-009  0.1013594E+03  0.7561462E-02  0.1277463E+00
         -2   -1    0    0    0  501 -0.00000000000E+00  0.00000000000E+00  0.35412787615E+02  0.35412787615E+02  0.00000000000E+00 0. -1.
          2   -1    0    0  501    0  0.00000000000E+00 -0.00000000000E+00 -0.39346454874E+03  0.39346454874E+03  0.00000000000E+00 0.  1.
         25    2    1    2    0    0 -0.13971223116E+02  0.43559286208E+02 -0.22432755716E+03  0.26089120366E+03  0.12509500692E+03 0.  0.
          5    1    3    3  502    0  0.22268070134E+02  0.70923377443E+02 -0.78909046573E+02  0.10849010299E+03  0.41800000000E+01 0.  1.
         -5    1    3    3    0  502 -0.36239293250E+02 -0.27364091235E+02 -0.14541851059E+03  0.15240110067E+03  0.41800000000E+01 0.  1.
        -11    1    1    2    0    0 -0.27767345561E+02 -0.11598802768E+02 -0.71515493938E+01  0.30930605618E+02  0.00000000000E+00 0.  1.
         11    1    1    2    0    0  0.41738568678E+02 -0.31960483439E+02 -0.12657265457E+03  0.13705552707E+03  0.00000000000E+00 0. -1.
</event>
<event>
 7    1  0.2384639E-009  0.9352196E+02  0.7561462E-02  0.1294540E+00
         -4   -1    0    0    0  501 -0.00000000000E+00  0.00000000000E+00  0.12390358059E+04  0.12390358059E+04  0.00000000000E+00 0.  1.
          4   -1    0    0  501    0  0.00000000000E+00 -0.00000000000E+00 -0.14015801772E+02  0.14015801772E+02  0.00000000000E+00 0. -1.
         25    2    1    2    0    0  0.40943329651E+02  0.60706379746E+02  0.76569300276E+03  0.77929062415E+03  0.12508589699E+03 0.  0.
          5    1    3    3  502    0  0.33166523546E+02  0.54550300244E+02  0.14480010941E+03  0.15830444601E+03  0.41800000000E+01 0.  1.
         -5    1    3    3    0  502  0.77768061052E+01  0.61560795014E+01  0.62089289335E+03  0.62098617814E+03  0.41800000000E+01 0.  1.
        -11    1    1    2    0    0 -0.59885820331E+02 -0.13431454749E+02  0.19017624682E+03  0.19983423207E+03  0.00000000000E+00 0. -1.
         11    1    1    2    0    0  0.18942490681E+02 -0.47274924997E+02  0.26915075458E+03  0.27392675148E+03  0.00000000000E+00 0.  1.
</event>
<event>
 7    1  0.2384639E-009  0.1058353E+03  0.7561462E-02  0.1268483E+00
          4   -1    0    0  501    0  0.00000000000E+00  0.00000000000E+00  0.10131966445E+03  0.10131966445E+03  0.00000000000E+00 0. -1.
         -4   -1    0    0    0  501 -0.00000000000E+00 -0.00000000000E+00 -0.12201714275E+03  0.12201714275E+03  0.00000000000E+00 0.  1.
         25    2    1    2    0    0 -0.16329459651E+02 -0.11843886028E+02 -0.27360147934E+02  0.12962705877E+03  0.12509063826E+03 0.  0.
          5    1    3    3  502    0  0.44531686225E+01 -0.62761187466E+02 -0.37763215991E+02  0.73500545882E+02  0.41800000000E+01 0. -1.
         -5    1    3    3    0  502 -0.20782628274E+02  0.50917301438E+02  0.10403068057E+02  0.56126512886E+02  0.41800000000E+01 0. -1.
        -11    1    1    2    0    0  0.45730209100E+02  0.33715253514E+02  0.32679039345E+01  0.56909134064E+02  0.00000000000E+00 0.  1.
         11    1    1    2    0    0 -0.29400749448E+02 -0.21871367486E+02  0.33947657020E+01  0.36800614370E+02  0.00000000000E+00 0. -1.
</event>
<event>
 7    1  0.2384639E-009  0.1553681E+03  0.7561462E-02  0.1194028E+00
          2   -1    0    0  501    0  0.00000000000E+00  0.00000000000E+00  0.10791364467E+04  0.10791364467E+04  0.00000000000E+00 0. -1.
         -2   -1    0    0    0  501 -0.00000000000E+00 -0.00000000000E+00 -0.25387474088E+02  0.25387474088E+02  0.00000000000E+00 0.  1.
         25    2    1    2    0    0  0.10362267696E+03 -0.55077816259E+02  0.42735804157E+03  0.46049103573E+03  0.12508346523E+03 0.  0.
          5    1    3    3  502    0 -0.16599194508E+02  0.14272216389E+02  0.19390938001E+02  0.29541670493E+02  0.41800000000E+01 0. -1.
         -5    1    3    3    0  502  0.12022187147E+03 -0.69350032649E+02  0.40796710357E+03  0.43094936524E+03  0.41800000000E+01 0. -1.
        -11    1    1    2    0    0 -0.63728198314E+02  0.80210550019E+02  0.44039224496E+03  0.45215079898E+03  0.00000000000E+00 0.  1.
         11    1    1    2    0    0 -0.39894478645E+02 -0.25132733759E+02  0.18599868604E+03  0.19188208604E+03  0.00000000000E+00 0. -1.
</event>
<event>
 7    1  0.2384639E-009  0.1022686E+03  0.7561462E-02  0.1275596E+00
         -2   -1    0    0    0  501 -0.00000000000E+00  0.00000000000E+00  0.17342540970E+03  0.17342540970E+03  0.00000000000E+00 0. -1.
          2   -1    0    0  501    0  0.00000000000E+00 -0.00000000000E+00 -0.81149168027E+02  0.81149168027E+02  0.00000000000E+00 0.  1.
         25    2    1    2    0    0  0.16745428493E+02  0.52297773756E+02  0.47744187488E+02  0.14471877255E+03  0.12509416124E+03 0.  0.
          5    1    3    3  502    0 -0.24464704520E+02 -0.32501786597E+02  0.52939057024E+01  0.41235733738E+02  0.41800000000E+01 0. -1.
         -5    1    3    3    0  502  0.41210133013E+02  0.84799560354E+02  0.42450281786E+02  0.10348303882E+03  0.41800000000E+01 0. -1.
        -11    1    1    2    0    0  0.20796982642E+01 -0.50292757089E+02 -0.10707670784E+02  0.51462032355E+02  0.00000000000E+00 0.  1.
         11    1    1    2    0    0 -0.18825126757E+02 -0.20050166672E+01  0.55239724964E+02  0.58393772813E+02  0.00000000000E+00 0. -1.
</event>
<event>
 7    1  0.2384639E-009  0.1447406E+03  0.7561462E-02  0.1207089E+00
         -3   -1    0    0    0  501 -0.00000000000E+00  0.00000000000E+00  0.54164553303E+03  0.54164553303E+03  0.00000000000E+00 0.  1.
          3   -1    0    0  501    0  0.00000000000E+00 -0.00000000000E+00 -0.40616474588E+02  0.40616474588E+02  0.00000000000E+00 0. -1.
         25    2    1    2    0    0  0.25505027612E+02  0.10174942516E+03  0.27667281656E+03  0.32123927905E+03  0.12507347851E+03 0.  0.
          5    1    3    3  502    0 -0.24783827424E+02 -0.18298322745E+02  0.74866464164E+02  0.81064952806E+02  0.41800000000E+01 0. -1.
         -5    1    3    3    0  502  0.50288855036E+02  0.12004774791E+03  0.20180635240E+03  0.24017432625E+03  0.41800000000E+01 0. -1.
        -11    1    1    2    0    0 -0.32126239944E+02 -0.11169392953E+03  0.21900251386E+03  0.24793089816E+03  0.00000000000E+00 0.  1.
         11    1    1    2    0    0  0.66212123320E+01  0.99445043628E+01  0.53537280270E+01  0.13091830413E+02  0.00000000000E+00 0. -1.
</event>
<event>
 7    1  0.2384639E-009  0.1720735E+03  0.7561462E-02  0.1175703E+00
         -2   -1    0    0    0  501 -0.00000000000E+00  0.00000000000E+00  0.88612231005E+02  0.88612231005E+02  0.00000000000E+00 0.  1.
          2   -1    0    0  501    0  0.00000000000E+00 -0.00000000000E+00 -0.42873684408E+03  0.42873684408E+03  0.00000000000E+00 0. -1.
         25    2    1    2    0    0 -0.15553113191E+03 -0.21462691444E+02 -0.22441789754E+03  0.30109993365E+03  0.12508875726E+03 0.  0.
          5    1    3    3  502    0 -0.16485064406E+03 -0.30372126593E+02 -0.23146971855E+03  0.28582145463E+03  0.41800000000E+01 0. -1.
         -5    1    3    3    0  502  0.93195121536E+01  0.89094351492E+01  0.70518210149E+01  0.15278479017E+02  0.41800000000E+01 0. -1.
        -11    1    1    2    0    0  0.71332828160E+02 -0.11956476943E+02 -0.40148049509E+01  0.72439273692E+02  0.00000000000E+00 0.  1.
         11    1    1    2    0    0  0.84198303749E+02  0.33419168386E+02 -0.11169191059E+03  0.14380986774E+03  0.00000000000E+00 0. -1.
</event>
<event>
 7    1  0.2384639E-009  0.1199577E+03  0.7561462E-02  0.1243167E+00
          2   -1    0    0  501    0  0.00000000000E+00  0.00000000000E+00  0.25190478059E+03  0.25190478059E+03  0.00000000000E+00 0. -1.
         -2   -1    0    0    0  501 -0.00000000000E+00 -0.00000000000E+00 -0.90947414593E+02  0.90947414593E+02  0.00000000000E+00 0.  1.
         25    2    1    2    0    0 -0.54661337142E+02 -0.83860085215E+02  0.38110632940E+02  0.16468278616E+03  0.12509046344E+03 0.  0.
          5    1    3    3  502    0 -0.44493937019E+02  0.56839854062E+01  0.56855229324E+02  0.72539696877E+02  0.41800000000E+01 0.  1.
         -5    1    3    3    0  502 -0.10167400124E+02 -0.89544070621E+02 -0.18744596384E+02  0.92143089281E+02  0.41800000000E+01 0.  1.
        -11    1    1    2    0    0  0.18119647296E+02  0.55531056002E+02  0.11801652762E+03  0.13168113225E+03  0.00000000000E+00 0. -1.
         11    1    1    2    0    0  0.36541689847E+02  0.28329029212E+02  0.48302054366E+01  0.46488276775E+02  0.00000000000E+00 0.  1.
</event>
<event>
 7    1  0.2384639E-009  0.1062082E+03  0.7561462E-02  0.1267757E+00
         -2   -1    0    0    0  501 -0.00000000000E+00  0.00000000000E+00  0.45617229548E+02  0.45617229548E+02  0.00000000000E+00 0.  1.
          2   -1    0    0  501    0  0.00000000000E+00 -0.00000000000E+00 -0.33578352287E+03  0.33578352287E+03  0.00000000000E+00 0. -1.
         25    2    1    2    0    0 -0.48882299609E+02  0.18904914880E+02 -0.11714823946E+03  0.17921588794E+03  0.12509096474E+03 0.  0.
          5    1    3    3  502    0 -0.22380283959E+02 -0.38788460723E+02  0.10405981030E+01  0.44988632340E+02  0.41800000000E+01 0.  1.
         -5    1    3    3    0  502 -0.26502015650E+02  0.57693375604E+02 -0.11818883756E+03  0.13422725560E+03  0.41800000000E+01 0.  1.
        -11    1    1    2    0    0  0.39357451369E+02  0.32803093822E+02 -0.72946578200E+02  0.89141770308E+02  0.00000000000E+00 0.  1.
         11    1    1    2    0    0  0.95248482398E+01 -0.51708008702E+02 -0.10007147567E+03  0.11304309417E+03  0.00000000000E+00 0. -1.
</event>
<event>
 7    1  0.2384639E-009  0.7255146E+02  0.7561462E-02  0.1351626E+00
          1   -1    0    0  501    0  0.00000000000E+00  0.00000000000E+00  0.52005094980E+03  0.52005094980E+03  0.00000000000E+00 0. -1.
         -1   -1    0    0    0  501 -0.00000000000E+00 -0.00000000000E+00 -0.23014898506E+02  0.23014898506E+02  0.00000000000E+00 0.  1.
         25    2    1    2    0    0 -0.73709301592E+01  0.21509762034E+01  0.25816050329E+03  0.28697337207E+03  0.12509162045E+03 0.  0.
          5    1    3    3  502    0 -0.21622513057E+02  0.28118792839E+02  0.25431663018E+03  0.25681242254E+03  0.41800000000E+01 0. -1.
         -5    1    3    3    0  502  0.14251582898E+02 -0.25967816636E+02  0.38438731043E+01  0.30160949527E+02  0.41800000000E+01 0. -1.
        -11    1    1    2    0    0 -0.25527044222E+02 -0.27810444900E+02  0.49924072859E+02  0.62589646772E+02  0.00000000000E+00 0.  1.
         11    1    1    2    0    0  0.32897974381E+02  0.25659468697E+02  0.18895147514E+03  0.19350282946E+03  0.00000000000E+00 0. -1.
</event>
<event>
 7    1  0.2384639E-009  0.1075508E+03  0.7561462E-02  0.1265174E+00
          1   -1    0    0  501    0  0.00000000000E+00  0.00000000000E+00  0.14981315928E+03  0.14981315928E+03  0.00000000000E+00 0. -1.
         -1   -1    0    0    0  501 -0.00000000000E+00 -0.00000000000E+00 -0.11513514109E+03  0.11513514109E+03  0.00000000000E+00 0.  1.
         25    2    1    2    0    0 -0.59748671671E+02  0.12428728812E+02 -0.23853007297E+02  0.14121831436E+03  0.12509703949E+03 0.  0.
          5    1    3    3  502    0 -0.82119300072E+02  0.58214046953E+01 -0.57182209624E+02  0.10032320616E+03  0.41800000000E+01 0. -1.
         -5    1    3    3    0  502  0.22370628401E+02  0.66073241165E+01  0.33329202327E+02  0.40895108202E+02  0.41800000000E+01 0. -1.
        -11    1    1    2    0    0  0.42709999882E+02  0.37113494950E+02  0.28767280653E+02  0.63475286793E+02  0.00000000000E+00 0.  1.
         11    1    1    2    0    0  0.17038671789E+02 -0.49542223762E+02  0.29763744836E+02  0.60254699221E+02  0.00000000000E+00 0. -1.
</event>
<event>
 7    1  0.2384639E-009  0.1187200E+03  0.7561462E-02  0.1245224E+00
         -1   -1    0    0    0  501 -0.00000000000E+00  0.00000000000E+00  0.18727218294E+02  0.18727218294E+02  0.00000000000E+00 0.  1.
          1   -1    0    0  501    0  0.00000000000E+00 -0.00000000000E+00 -0.83181477715E+03  0.83181477715E+03  0.00000000000E+00 0. -1.
         25    2    1    2    0    0 -0.31971384301E+02 -0.17803417696E+02 -0.47942959295E+03  0.49683003504E+03  0.12509283763E+03 0.  0.
          5    1    3    3  502    0 -0.19036565773E+02 -0.71572200000E+02 -0.29934036773E+03  0.30839438841E+03  0.41800000000E+01 0. -1.
         -5    1    3    3    0  502 -0.12934818528E+02  0.53768782303E+02 -0.18008922522E+03  0.18843564663E+03  0.41800000000E+01 0. -1.
        -11    1    1    2    0    0  0.13259061070E+02  0.60102550793E+02 -0.25625072864E+03  0.26353852705E+03  0.00000000000E+00 0. -1.
         11    1    1    2    0    0  0.18712323231E+02 -0.42299133097E+02 -0.77407237266E+02  0.90173433352E+02  0.00000000000E+00 0.  1.
</event>
<event>
 7    1  0.2384639E-009  0.1028985E+03  0.7561462E-02  0.1274316E+00
         -1   -1    0    0    0  501 -0.00000000000E+00  0.00000000000E+00  0.36824816459E+03  0.36824816459E+03  0.00000000000E+00 0.  1.
          1   -1    0    0  501    0  0.00000000000E+00 -0.00000000000E+00 -0.34164342673E+02  0.34164342673E+02  0.00000000000E+00 0. -1.
         25    2    1    2    0    0  0.11127321991E+02  0.20778871968E+02  0.16077749997E+03  0.20506759631E+03  0.12509090991E+03 0.  0.
          5    1    3    3  502    0  0.39813781318E+01  0.73599986187E+02  0.93036439399E+02  0.11876893868E+03  0.41800000000E+01 0.  1.
         -5    1    3    3    0  502  0.71459438587E+01 -0.52821114220E+02  0.67741060573E+02  0.86298657629E+02  0.41800000000E+01 0.  1.
        -11    1    1    2    0    0 -0.17928777861E+02  0.25807893029E+02  0.12872810228E+03  0.13250816101E+03  0.00000000000E+00 0.  1.
         11    1    1    2    0    0  0.68014558708E+01 -0.46586764997E+02  0.44578219666E+02  0.64836749945E+02  0.00000000000E+00 0. -1.
</event>
<event>
 7    1  0.2384639E-009  0.1114415E+03  0.7561462E-02  0.1257923E+00
          1   -1    0    0  501    0  0.00000000000E+00  0.00000000000E+00  0.16471321553E+03  0.16471321553E+03  0.00000000000E+00 0. -1.
         -1   -1    0    0    0  501 -0.00000000000E+00 -0.00000000000E+00 -0.85878212058E+02  0.85878212058E+02  0.00000000000E+00 0.  1.
         25    2    1    2    0    0  0.39355717865E+02 -0.11526447633E+02  0.75961679374E+02  0.15198401475E+03  0.12508889832E+03 0.  0.
          5    1    3    3  502    0  0.79770199686E+02  0.17329208681E+02  0.49542339177E+02  0.95579820059E+02  0.41800000000E+01 0. -1.
         -5    1    3    3    0  502 -0.40414481821E+02 -0.28855656314E+02  0.26419340197E+02  0.56404194690E+02  0.41800000000E+01 0. -1.
        -11    1    1    2    0    0 -0.45443411463E+02 -0.26630501746E+02 -0.16749747094E+02  0.55270618744E+02  0.00000000000E+00 0.  1.
         11    1    1    2    0    0  0.60876935979E+01  0.38156949379E+02  0.19623071188E+02  0.43336794091E+02  0.00000000000E+00 0. -1.
</event>
<event>
 7    1  0.2384639E-009  0.1008257E+03  0.7561462E-02  0.1278569E+00
          2   -1    0    0  501    0  0.00000000000E+00  0.00000000000E+00  0.76800766226E+02  0.76800766226E+02  0.00000000000E+00 0. -1.
         -2   -1    0    0    0  501 -0.00000000000E+00 -0.00000000000E+00 -0.17205709643E+03  0.17205709643E+03  0.00000000000E+00 0.  1.
         25    2    1    2    0    0  0.18516087711E+02  0.19808278849E+02 -0.71238981642E+02  0.14648426708E+03  0.12508970614E+03 0.  0.
          5    1    3    3  502    0 -0.63811712108E+01  0.64572531020E+02 -0.69339583375E+02  0.95056726911E+02  0.41800000000E+01 0.  1.
         -5    1    3    3    0  502  0.24897258921E+02 -0.44764252171E+02 -0.18993982670E+01  0.51427540171E+02  0.41800000000E+01 0.  1.
        -11    1    1    2    0    0 -0.16373371001E+02  0.30641740695E+02  0.15704954219E+02  0.38126750946E+02  0.00000000000E+00 0. -1.
         11    1    1    2    0    0 -0.21427167099E+01 -0.50450019543E+02 -0.39722302785E+02  0.64246844633E+02  0.00000000000E+00 0.  1.
</event>
<event>
 7    1  0.2511552E-009  0.1404114E+03  0.7561462E-02  0.1212776E+00
         -2   -1    0    0    0  501 -0.00000000000E+00  0.00000000000E+00  0.35555887248E+02  0.35555887248E+02  0.00000000000E+00 0.  1.
          2   -1    0    0  501    0  0.00000000000E+00 -0.00000000000E+00 -0.61480097350E+03  0.61480097350E+03  0.00000000000E+00 0. -1.
         25    2    1    2    0    0  0.35350699259E+02 -0.89496045167E+02 -0.37231079485E+03  0.40437962785E+03  0.12509333084E+03 0.  0.
          5    1    3    3  502    0  0.76450216395E+02 -0.58667322680E+02 -0.16853632621E+03  0.19418665245E+03  0.41800000000E+01 0. -1.
         -5    1    3    3    0  502 -0.41099517137E+02 -0.30828722487E+02 -0.20377446864E+03  0.21019297540E+03  0.41800000000E+01 0. -1.
        -11    1    1    2    0    0 -0.66262361505E+02  0.69376820611E+02 -0.14398553066E+03  0.17301929612E+03  0.00000000000E+00 0.  1.
         11    1    1    2    0    0  0.30911662246E+02  0.20119224556E+02 -0.62948760741E+02  0.72957936774E+02  0.00000000000E+00 0. -1.
</event>
<event>
 7    1  0.2384639E-009  0.1065126E+03  0.7561462E-02  0.1267168E+00
          1   -1    0    0  501    0  0.00000000000E+00  0.00000000000E+00  0.58303876216E+03  0.58303876216E+03  0.00000000000E+00 0. -1.
         -1   -1    0    0    0  501 -0.00000000000E+00 -0.00000000000E+00 -0.27189983469E+02  0.27189983469E+02  0.00000000000E+00 0.  1.
         25    2    1    2    0    0 -0.27492850701E+02 -0.31954332675E+02  0.20646057517E+03  0.24505354300E+03  0.12509329967E+03 0.  0.
          5    1    3    3  502    0  0.35995748464E+02  0.96158784396E+01  0.17487660127E+02  0.41369671045E+02  0.41800000000E+01 0. -1.
         -5    1    3    3    0  502 -0.63488599166E+02 -0.41570211115E+02  0.18897291504E+03  0.20368387196E+03  0.41800000000E+01 0. -1.
        -11    1    1    2    0    0 -0.22418790624E+02  0.42926118862E+02  0.23428105460E+03  0.23923391565E+03  0.00000000000E+00 0. -1.
         11    1    1    2    0    0  0.49911641326E+02 -0.10971786186E+02  0.11510714892E+03  0.12594128697E+03  0.00000000000E+00 0.  1.
</event>
<event>
 7    1  0.2384639E-009  0.9233931E+02  0.7561462E-02  0.1297284E+00
         -1   -1    0    0    0  501 -0.00000000000E+00  0.00000000000E+00  0.87126188625E+02  0.87126188625E+02  0.00000000000E+00 0.  1.
          1   -1    0    0  501    0  0.00000000000E+00 -0.00000000000E+00 -0.25490779488E+03  0.25490779488E+03  0.00000000000E+00 0. -1.
         25    2    1    2    0    0  0.47117626783E+02  0.41491054137E+02 -0.18339508949E+03  0.23069933563E+03  0.12508735461E+03 0.  0.
          5    1    3    3  502    0 -0.25926043886E+01 -0.27647768078E+02  0.40878316061E+00  0.28084874593E+02  0.41800000000E+01 0. -1.
         -5    1    3    3    0  502  0.49710231172E+02  0.69138822215E+02 -0.18380387265E+03  0.20261446104E+03  0.41800000000E+01 0. -1.
        -11    1    1    2    0    0 -0.32456701195E+02 -0.45730845126E+02 -0.29744305242E+02  0.63478117039E+02  0.00000000000E+00 0. -1.
         11    1    1    2    0    0 -0.14660925588E+02  0.42397909890E+01  0.45357788485E+02  0.47856530829E+02  0.00000000000E+00 0.  1.
</event>
<event>
 7    1  0.2384639E-009  0.1648293E+03  0.7561462E-02  0.1183350E+00
         -1   -1    0    0    0  501 -0.00000000000E+00  0.00000000000E+00  0.64936355995E+03  0.64936355995E+03  0.00000000000E+00 0. -1.
          1   -1    0    0  501    0  0.00000000000E+00 -0.00000000000E+00 -0.54540366821E+02  0.54540366821E+02  0.00000000000E+00 0.  1.
         25    2    1    2    0    0  0.53612923699E+02 -0.14228010998E+03  0.29675966987E+03  0.35613428280E+03  0.12508936983E+03 0.  0.
          5    1    3    3  502    0  0.38511269311E+02 -0.14764108711E+03  0.17069920023E+03  0.22899060641E+03  0.41800000000E+01 0. -1.
         -5    1    3    3    0  502  0.15101654388E+02  0.53609771278E+01  0.12606046964E+03  0.12714367639E+03  0.41800000000E+01 0. -1.
        -11    1    1    2    0    0  0.73099708730E+01  0.45617035692E+02  0.16989744448E+03  0.17606672388E+03  0.00000000000E+00 0. -1.
         11    1    1    2    0    0 -0.60922894572E+02  0.96663074289E+02  0.12816607879E+03  0.17170292009E+03  0.00000000000E+00 0.  1.
</event>
<event>
 7    1  0.2384639E-009  0.1454218E+03  0.7561462E-02  0.1206214E+00
         -1   -1    0    0    0  501 -0.00000000000E+00  0.00000000000E+00  0.78738639312E+02  0.78738639312E+02  0.00000000000E+00 0.  1.
          1   -1    0    0  501    0  0.00000000000E+00 -0.00000000000E+00 -0.43705961163E+03  0.43705961163E+03  0.00000000000E+00 0. -1.
         25    2    1    2    0    0 -0.82807914430E+02 -0.10400391701E+03 -0.28538627196E+03  0.33877193364E+03  0.12508850209E+03 0.  0.
          5    1    3    3  502    0 -0.56284955192E+02 -0.68820384734E+02 -0.56001531904E+02  0.10515648107E+03  0.41800000000E+01 0.  1.
         -5    1    3    3    0  502 -0.26522959238E+02 -0.35183532277E+02 -0.22938474005E+03  0.23361545257E+03  0.41800000000E+01 0.  1.
        -11    1    1    2    0    0  0.23482016374E+02  0.94653443122E+02 -0.26352590043E+02  0.10102048500E+03  0.00000000000E+00 0.  1.
         11    1    1    2    0    0  0.59325898056E+02  0.93504738891E+01 -0.46582110322E+02  0.76005832303E+02  0.00000000000E+00 0. -1.
</event>
<event>
 7    1  0.2384639E-009  0.1104533E+03  0.7561462E-02  0.1259733E+00
         -1   -1    0    0    0  501 -0.00000000000E+00  0.00000000000E+00  0.37912428248E+02  0.37912428248E+02  0.00000000000E+00 0.  1.
          1   -1    0    0  501    0  0.00000000000E+00 -0.00000000000E+00 -0.47290423311E+03  0.47290423311E+03  0.00000000000E+00 0. -1.
         25    2    1    2    0    0 -0.39234707537E+02  0.26504942402E+02 -0.35489860218E+03  0.37926513738E+03  0.12508857803E+03 0.  0.
          5    1    3    3  502    0 -0.13998215351E+02 -0.42563538877E+02 -0.58240181253E+02  0.73600244477E+02  0.41800000000E+01 0. -1.
         -5    1    3    3    0  502 -0.25236492186E+02  0.69068481279E+02 -0.29665842093E+03  0.30566489290E+03  0.41800000000E+01 0. -1.
        -11    1    1    2    0    0  0.64413129673E+02  0.17109869554E+01 -0.62770711733E+02  0.89956328305E+02  0.00000000000E+00 0.  1.
         11    1    1    2    0    0 -0.25178422136E+02 -0.28215929357E+02 -0.17322490948E+02  0.41595195677E+02  0.00000000000E+00 0. -1.
</event>
<event>
 7    1  0.2384639E-009  0.2109628E+03  0.7561462E-02  0.1140806E+00
          2   -1    0    0  501    0  0.00000000000E+00  0.00000000000E+00  0.80416906419E+03  0.80416906419E+03  0.00000000000E+00 0. -1.
         -2   -1    0    0    0  501 -0.00000000000E+00 -0.00000000000E+00 -0.58481034847E+02  0.58481034847E+02  0.00000000000E+00 0.  1.
         25    2    1    2    0    0 -0.18736362544E+03  0.47052791893E+01  0.42903484509E+03  0.48460858855E+03  0.12508924016E+03 0.  0.
          5    1    3    3  502    0 -0.45910495877E+02 -0.46032237951E+02  0.20255826537E+03  0.21277702844E+03  0.41800000000E+01 0.  1.
         -5    1    3    3    0  502 -0.14145312957E+03  0.50737517140E+02  0.22647657972E+03  0.27183156011E+03  0.41800000000E+01 0.  1.
        -11    1    1    2    0    0  0.16916702582E+03 -0.33430661800E+02  0.26799698940E+03  0.31868084050E+03  0.00000000000E+00 0. -1.
         11    1    1    2    0    0  0.18196599622E+02  0.28725382611E+02  0.48656194851E+02  0.59360669987E+02  0.00000000000E+00 0.  1.
</event>
<event>
 7    1  0.2384639E-009  0.1148931E+03  0.7561462E-02  0.1251768E+00
          3   -1    0    0  501    0  0.00000000000E+00  0.00000000000E+00  0.63719639204E+02  0.63719639204E+02  0.00000000000E+00 0. -1.
         -3   -1    0    0    0  501 -0.00000000000E+00 -0.00000000000E+00 -0.27123107062E+03  0.27123107062E+03  0.00000000000E+00 0.  1.
         25    2    1    2    0    0 -0.26976272321E+01  0.62531615376E+02 -0.15955711016E+03  0.21218947942E+03  0.12509365955E+03 0.  0.
          5    1    3    3  502    0  0.44005206725E+02  0.78483847992E+02 -0.96511095955E+02  0.13201528948E+03  0.41800000000E+01 0.  1.
         -5    1    3    3    0  502 -0.46702833957E+02 -0.15952232615E+02 -0.63046014206E+02  0.80174189938E+02  0.41800000000E+01 0.  1.
        -11    1    1    2    0    0  0.29152813100E+02 -0.90676986563E+01 -0.54787563647E+02  0.62719907533E+02  0.00000000000E+00 0. -1.
         11    1    1    2    0    0 -0.26455185868E+02 -0.53463916720E+02  0.68332423919E+01  0.60041322870E+02  0.00000000000E+00 0.  1.
</event>
<event>
 7    1  0.2384639E-009  0.1197586E+03  0.7561462E-02  0.1243496E+00
          1   -1    0    0  501    0  0.00000000000E+00  0.00000000000E+00  0.20768877773E+03  0.20768877773E+03  0.00000000000E+00 0. -1.
         -1   -1    0    0    0  501 -0.00000000000E+00 -0.00000000000E+00 -0.20070255049E+03  0.20070255049E+03  0.00000000000E+00 0.  1.
         25    2    1    2    0    0 -0.10842284621E+03 -0.25144455341E+01 -0.12854679601E+03  0.20960395007E+03  0.12509077147E+03 0.  0.
          5    1    3    3  502    0 -0.87542170716E+02 -0.71734002936E+01 -0.15323242726E+03  0.17667127240E+03  0.41800000000E+01 0.  1.
         -5    1    3    3    0  502 -0.20880675496E+02  0.46589547596E+01  0.24685631255E+02  0.32932677678E+02  0.41800000000E+01 0.  1.
        -11    1    1    2    0    0  0.21200179821E+02  0.31413609676E+02  0.86946430534E+02  0.94846951874E+02  0.00000000000E+00 0. -1.
         11    1    1    2    0    0  0.87222666391E+02 -0.28899164141E+02  0.48586592717E+02  0.10394042627E+03  0.00000000000E+00 0.  1.
</event>
<event>
 7    1  0.2384639E-009  0.1870637E+03  0.7561462E-02  0.1161137E+00
         -3   -1    0    0    0  501 -0.00000000000E+00  0.00000000000E+00  0.63288890822E+02  0.63288890822E+02  0.00000000000E+00 0.  1.
          3   -1    0    0  501    0  0.00000000000E+00 -0.00000000000E+00 -0.62362580078E+03  0.62362580078E+03  0.00000000000E+00 0. -1.
         25    2    1    2    0    0 -0.99771150764E+02  0.12880043884E+03 -0.36796139477E+03  0.42140783876E+03  0.12508054586E+03 0.  0.
          5    1    3    3  502    0  0.19026238557E+02  0.67242739183E+02 -0.15158820915E+03  0.16697317533E+03  0.41800000000E+01 0. -1.
         -5    1    3    3    0  502 -0.11879738932E+03  0.61557699661E+02 -0.21637318562E+03  0.25443466342E+03  0.41800000000E+01 0. -1.
        -11    1    1    2    0    0  0.11172411980E+02  0.28855432840E+01  0.47055873384E+01  0.12461609114E+02  0.00000000000E+00 0.  1.
         11    1    1    2    0    0  0.88598738784E+02 -0.13168598213E+03 -0.19708110253E+03  0.25304524374E+03  0.00000000000E+00 0. -1.
</event>
<event>
 7    1  0.2384639E-009  0.1150884E+03  0.7561462E-02  0.1251427E+00
         -4   -1    0    0    0  501 -0.00000000000E+00  0.00000000000E+00  0.12588620630E+02  0.12588620630E+02  0.00000000000E+00 0.  1.
          4   -1    0    0  501    0  0.00000000000E+00 -0.00000000000E+00 -0.12054414634E+04  0.12054414634E+04  0.00000000000E+00 0. -1.
         25    2    1    2    0    0 -0.87407205493E+01 -0.39290952876E+02 -0.87329912613E+03  0.88313038421E+03  0.12509089751E+03 0.  0.
          5    1    3    3  502    0 -0.52846922345E+02  0.19713806642E+02 -0.32431495047E+03  0.32920979765E+03  0.41800000000E+01 0.  1.
         -5    1    3    3    0  502  0.44106201795E+02 -0.59004759518E+02 -0.54898417566E+03  0.55392058656E+03  0.41800000000E+01 0.  1.
        -11    1    1    2    0    0  0.46738295848E+02  0.22886740871E+01 -0.16447838086E+03  0.17100539201E+03  0.00000000000E+00 0.  1.
         11    1    1    2    0    0 -0.37997575299E+02  0.37002278789E+02 -0.15507533579E+03  0.16389430782E+03  0.00000000000E+00 0. -1.
</event>
<event>
 7    1  0.2384639E-009  0.1014867E+03  0.7561462E-02  0.1277200E+00
         -2   -1    0    0    0  501 -0.00000000000E+00  0.00000000000E+00  0.18871866495E+02  0.18871866495E+02  0.00000000000E+00 0.  1.
          2   -1    0    0  501    0  0.00000000000E+00 -0.00000000000E+00 -0.73934150467E+03  0.73934150467E+03  0.00000000000E+00 0. -1.
         25    2    1    2    0    0  0.12696768045E+02  0.44522348613E+02 -0.48777799664E+03  0.50568603427E+03  0.12509014272E+03 0.  0.
          5    1    3    3  502    0 -0.40745827036E+02  0.24034341253E+02 -0.73870393950E+02  0.87819015496E+02  0.41800000000E+01 0. -1.
         -5    1    3    3    0  502  0.53442595081E+02  0.20488007360E+02 -0.41390760269E+03  0.41786701878E+03  0.41800000000E+01 0. -1.
        -11    1    1    2    0    0  0.16532200936E+02  0.20777558155E+02 -0.61390240606E+02  0.66886338159E+02  0.00000000000E+00 0.  1.
         11    1    1    2    0    0 -0.29228968981E+02 -0.65299906769E+02 -0.17130140093E+03  0.18564099874E+03  0.00000000000E+00 0. -1.
</event>
<event>
 7    1  0.2384639E-009  0.1096231E+03  0.7561462E-02  0.1261269E+00
         -1   -1    0    0    0  501 -0.00000000000E+00  0.00000000000E+00  0.22112299403E+03  0.22112299403E+03  0.00000000000E+00 0.  1.
          1   -1    0    0  501    0  0.00000000000E+00 -0.00000000000E+00 -0.63790987145E+02  0.63790987145E+02  0.00000000000E+00 0. -1.
         25    2    1    2    0    0 -0.43789133837E+02  0.12156036058E+02  0.10730590600E+03  0.17095961587E+03  0.12508946935E+03 0.  0.
          5    1    3    3  502    0  0.42870773481E+02  0.11844692885E+02  0.24149066630E+02  0.50782376742E+02  0.41800000000E+01 0. -1.
         -5    1    3    3    0  502 -0.86659907318E+02  0.31134317351E+00  0.83156839367E+02  0.12017723913E+03  0.41800000000E+01 0. -1.
        -11    1    1    2    0    0  0.14105411162E+02 -0.42850404037E+02 -0.37726463404E+01  0.45269775907E+02  0.00000000000E+00 0. -1.
         11    1    1    2    0    0  0.29683722675E+02  0.30694367979E+02  0.53798747226E+02  0.68684589397E+02  0.00000000000E+00 0.  1.
</event>
<event>
 7    1  0.2384639E-009  0.2151540E+03  0.7561462E-02  0.1137548E+00
          2   -1    0    0  501    0  0.00000000000E+00  0.00000000000E+00  0.87497372717E+03  0.87497372717E+03  0.00000000000E+00 0. -1.
         -2   -1    0    0    0  501 -0.00000000000E+00 -0.00000000000E+00 -0.65657108469E+02  0.65657108469E+02  0.00000000000E+00 0.  1.
         25    2    1    2    0    0 -0.18457056721E+03 -0.67189113955E+02  0.25410441505E+03  0.34466917593E+03  0.12508843183E+03 0.  0.
          5    1    3    3  502    0 -0.63653498977E+02  0.36397778524E+02  0.85984489619E+02  0.11308125870E+03  0.41800000000E+01 0.  1.
         -5    1    3    3    0  502 -0.12091706823E+03 -0.10358689248E+03  0.16811992543E+03  0.23158791724E+03  0.41800000000E+01 0.  1.
        -11    1    1    2    0    0  0.35463879342E+02  0.22212676787E+02  0.24822994298E+03  0.25173238635E+03  0.00000000000E+00 0. -1.
         11    1    1    2    0    0  0.14910668786E+03  0.44976437168E+02  0.30698226067E+03  0.34422927335E+03  0.00000000000E+00 0.  1.
</event>
<event>
 7    1  0.2384639E-009  0.7195203E+02  0.7561462E-02  0.1353578E+00
         -2   -1    0    0    0  501 -0.00000000000E+00  0.00000000000E+00  0.22918330602E+02  0.22918330602E+02  0.00000000000E+00 0.  1.
          2   -1    0    0  501    0  0.00000000000E+00 -0.00000000000E+00 -0.61211941727E+03  0.61211941727E+03  0.00000000000E+00 0. -1.
         25    2    1    2    0    0  0.17186595050E+00  0.14864820355E+01 -0.53530638419E+03  0.54972921594E+03  0.12508815586E+03 0.  0.
          5    1    3    3  502    0  0.46884597283E+02 -0.14001436346E+01 -0.44898361616E+03  0.45144643741E+03  0.41800000000E+01 0.  1.
         -5    1    3    3    0  502 -0.46712731332E+02  0.28866256701E+01 -0.86322768028E+02  0.98282778534E+02  0.41800000000E+01 0.  1.
        -11    1    1    2    0    0 -0.28037588535E+01  0.24019778289E+02 -0.54537689754E+02  0.59658783229E+02  0.00000000000E+00 0. -1.
         11    1    1    2    0    0  0.26318929030E+01 -0.25506260324E+02  0.64298727302E+00  0.25649748705E+02  0.00000000000E+00 0.  1.
</event>
<event>
 7    1  0.2384639E-009  0.1218871E+03  0.7561462E-02  0.1240016E+00
          1   -1    0    0  501    0  0.00000000000E+00  0.00000000000E+00  0.25239666830E+03  0.25239666830E+03  0.00000000000E+00 0. -1.
         -1   -1    0    0    0  501 -0.00000000000E+00 -0.00000000000E+00 -0.96635872098E+02  0.96635872098E+02  0.00000000000E+00 0.  1.
         25    2    1    2    0    0  0.69725622231E+02  0.73864441216E+02  0.29916463355E+02  0.16389034921E+03  0.12508970267E+03 0.  0.
          5    1    3    3  502    0 -0.72339143811E+01  0.21920083085E+02  0.61424565889E+02  0.65751572258E+02  0.41800000000E+01 0. -1.
         -5    1    3    3    0  502  0.76959536612E+02  0.51944358130E+02 -0.31508102534E+02  0.98138776956E+02  0.41800000000E+01 0. -1.
        -11    1    1    2    0    0 -0.24258498152E+02 -0.78031112234E+02  0.10953854613E+03  0.13666024403E+03  0.00000000000E+00 0. -1.
         11    1    1    2    0    0 -0.45467124079E+02  0.41666710179E+01  0.16305786710E+02  0.48481947152E+02  0.00000000000E+00 0.  1.
</event>
<event>
 7    1  0.2384639E-009  0.1313033E+03  0.7561462E-02  0.1225535E+00
         -2   -1    0    0    0  501 -0.00000000000E+00  0.00000000000E+00  0.22093664896E+03  0.22093664896E+03  0.00000000000E+00 0.  1.
          2   -1    0    0  501    0  0.00000000000E+00 -0.00000000000E+00 -0.13540131642E+03  0.13540131642E+03  0.00000000000E+00 0. -1.
         25    2    1    2    0    0 -0.55486896874E+02  0.75161902119E+02 -0.53935742085E+02  0.16516802323E+03  0.12507319605E+03 0.  0.
          5    1    3    3  502    0  0.35394394298E+02  0.20320047235E+02  0.85737623365E+01  0.41912399931E+02  0.41800000000E+01 0.  1.
         -5    1    3    3    0  502 -0.90881291172E+02  0.54841854884E+02 -0.62509504422E+02  0.12325562330E+03  0.41800000000E+01 0.  1.
        -11    1    1    2    0    0 -0.91339007198E+01 -0.41492259302E+02  0.11676051395E+02  0.44060933950E+02  0.00000000000E+00 0. -1.
         11    1    1    2    0    0  0.64620797594E+02 -0.33669642817E+02  0.12779502324E+03  0.14710900820E+03  0.00000000000E+00 0.  1.
</event>
<event>
 7    1  0.2384639E-009  0.1125496E+03  0.7561462E-02  0.1255920E+00
          2   -1    0    0  501    0  0.00000000000E+00  0.00000000000E+00  0.70169998360E+03  0.70169998360E+03  0.00000000000E+00 0. -1.
         -2   -1    0    0    0  501 -0.00000000000E+00 -0.00000000000E+00 -0.33897984167E+02  0.33897984167E+02  0.00000000000E+00 0.  1.
         25    2    1    2    0    0  0.56187013841E+02 -0.24662600746E+02  0.57824741869E+03  0.59479667152E+03  0.12509108211E+03 0.  0.
          5    1    3    3  502    0  0.71163282734E+02  0.16287088633E+02  0.18206886749E+03  0.19620404423E+03  0.41800000000E+01 0. -1.
         -5    1    3    3    0  502 -0.14976268893E+02 -0.40949689379E+02  0.39617855121E+03  0.39859262729E+03  0.41800000000E+01 0. -1.
        -11    1    1    2    0    0 -0.46691774742E+01 -0.31568058871E+02  0.32593173287E+02  0.45614235762E+02  0.00000000000E+00 0.  1.
         11    1    1    2    0    0 -0.51517836367E+02  0.56230659617E+02  0.56961407450E+02  0.95187060484E+02  0.00000000000E+00 0. -1.
</event>
<event>
 7    1  0.2384639E-009  0.1531933E+03  0.7561462E-02  0.1196603E+00
          2   -1    0    0  501    0  0.00000000000E+00  0.00000000000E+00  0.97120762213E+03  0.97120762213E+03  0.00000000000E+00 0. -1.
         -2   -1    0    0    0  501 -0.00000000000E+00 -0.00000000000E+00 -0.32735153367E+02  0.32735153367E+02  0.00000000000E+00 0.  1.
         25    2    1    2    0    0  0.77511607961E+01 -0.13886939901E+03  0.42826969956E+03  0.46734258788E+03  0.12509743568E+03 0.  0.
          5    1    3    3  502    0  0.35581559929E+02 -0.25442560479E+02  0.25232072552E+03  0.25611831683E+03  0.41800000000E+01 0.  1.
         -5    1    3    3    0  502 -0.27830399133E+02 -0.11342683853E+03  0.17594897404E+03  0.21122427105E+03  0.41800000000E+01 0.  1.
        -11    1    1    2    0    0  0.15360582383E+02  0.24644535186E+02  0.27380383059E+02  0.39912228479E+02  0.00000000000E+00 0.  1.
         11    1    1    2    0    0 -0.23111743179E+02  0.11422486382E+03  0.48282238615E+03  0.49668795914E+03  0.00000000000E+00 0. -1.
</event>
<event>
 7    1  0.2384639E-009  0.9855844E+02  0.7561462E-02  0.1283357E+00
         -3   -1    0    0    0  501 -0.00000000000E+00  0.00000000000E+00  0.78740825705E+03  0.78740825705E+03  0.00000000000E+00 0.  1.
          3   -1    0    0  501    0  0.00000000000E+00 -0.00000000000E+00 -0.31526557293E+02  0.31526557293E+02  0.00000000000E+00 0. -1.
         25    2    1    2    0    0  0.41562431798E+02  0.30990800556E+02  0.64143741386E+03  0.65557323990E+03  0.12508577664E+03 0.  0.
          5    1    3    3  502    0 -0.21847549423E+02  0.28975294750E+02  0.57084340781E+02  0.67771509383E+02  0.41800000000E+01 0.  1.
         -5    1    3    3    0  502  0.63409981221E+02  0.20155058055E+01  0.58435307308E+03  0.58780173052E+03  0.41800000000E+01 0.  1.
        -11    1    1    2    0    0  0.24993829146E+02 -0.46142804450E+01 -0.32295457038E+01  0.25620559027E+02  0.00000000000E+00 0. -1.
         11    1    1    2    0    0 -0.66556260944E+02 -0.26376520111E+02  0.11767383160E+03  0.13774101542E+03  0.00000000000E+00 0.  1.
</event>
<event>
 7    1  0.2384639E-009  0.1788245E+03  0.7561462E-02  0.1168946E+00
          2   -1    0    0  501    0  0.00000000000E+00  0.00000000000E+00  0.19609946145E+04  0.19609946145E+04  0.00000000000E+00 0.  1.
         -2   -1    0    0    0  501 -0.00000000000E+00 -0.00000000000E+00 -0.19037006378E+02  0.19037006378E+02  0.00000000000E+00 0. -1.
         25    2    1    2    0    0 -0.69453652405E+02  0.13836702969E+03  0.12316287403E+04  0.12476083211E+04  0.12509166370E+03 0.  0.
          5    1    3    3  502    0 -0.93831609362E+02  0.97353032253E+02  0.10839183383E+04  0.10923270666E+04  0.41800000000E+01 0.  1.
         -5    1    3    3    0  502  0.24377956957E+02  0.41013997441E+02  0.14771040194E+03  0.15528125455E+03  0.41800000000E+01 0.  1.
        -11    1    1    2    0    0  0.58686682424E+02 -0.14851089549E+03  0.68222081316E+03  0.70066029620E+03  0.00000000000E+00 0.  1.
         11    1    1    2    0    0  0.10766969981E+02  0.10143865796E+02  0.28108054659E+02  0.31763003519E+02  0.00000000000E+00 0. -1.
</event>
<event>
 7    1  0.2384639E-009  0.1208286E+03  0.7561462E-02  0.1241736E+00
         -1   -1    0    0    0  501 -0.00000000000E+00  0.00000000000E+00  0.46986726529E+02  0.46986726529E+02  0.00000000000E+00 0.  1.
          1   -1    0    0  501    0  0.00000000000E+00 -0.00000000000E+00 -0.31717495017E+03  0.31717495017E+03  0.00000000000E+00 0. -1.
         25    2    1    2    0    0  0.68860648324E+01 -0.54796315687E+02 -0.12794746583E+03  0.18727570472E+03  0.12510628068E+03 0.  0.
          5    1    3    3  502    0  0.54732457524E+02 -0.67333197822E+02 -0.75989574760E+02  0.11541788989E+03  0.41800000000E+01 0.  1.
         -5    1    3    3    0  502 -0.47846392691E+02  0.12536882136E+02 -0.51957891068E+02  0.71857814825E+02  0.41800000000E+01 0.  1.
        -11    1    1    2    0    0 -0.39376562020E+02  0.60473855632E+02 -0.97115214669E+02  0.12099159381E+03  0.00000000000E+00 0.  1.
         11    1    1    2    0    0  0.32490497188E+02 -0.56775399449E+01 -0.45125543142E+02  0.55894378172E+02  0.00000000000E+00 0. -1.
</event>
<event>
 7    1  0.2384639E-009  0.1503819E+03  0.7561462E-02  0.1200004E+00
          4   -1    0    0  501    0  0.00000000000E+00  0.00000000000E+00  0.46165759484E+02  0.46165759484E+02  0.00000000000E+00 0. -1.
         -4   -1    0    0    0  501 -0.00000000000E+00 -0.00000000000E+00 -0.65692157181E+03  0.65692157181E+03  0.00000000000E+00 0.  1.
         25    2    1    2    0    0 -0.87232758669E+02 -0.77496840869E+02 -0.18137990783E+03  0.24931852423E+03  0.12508293661E+03 0.  0.
          5    1    3    3  502    0 -0.10855423282E+03 -0.90071317152E+02 -0.12882787312E+03  0.19107840519E+03  0.41800000000E+01 0. -1.
         -5    1    3    3    0  502  0.21321474153E+02  0.12574476282E+02 -0.52552034702E+02  0.58240119034E+02  0.41800000000E+01 0. -1.
        -11    1    1    2    0    0  0.92006867510E+02  0.46333054120E+02 -0.38973341460E+03  0.40311803486E+03  0.00000000000E+00 0.  1.
         11    1    1    2    0    0 -0.47741088410E+01  0.31163786749E+02 -0.39642489903E+02  0.50650772210E+02  0.00000000000E+00 0. -1.
</event>
<event>
 7    1  0.2384639E-009  0.1022725E+03  0.7561462E-02  0.1275589E+00
          2   -1    0    0  501    0  0.00000000000E+00  0.00000000000E+00  0.13190146448E+03  0.13190146448E+03  0.00000000000E+00 0. -1.
         -2   -1    0    0    0  501 -0.00000000000E+00 -0.00000000000E+00 -0.12655077398E+03  0.12655077398E+03  0.00000000000E+00 0.  1.
         25    2    1    2    0    0 -0.45647386783E+01  0.69662647829E+02 -0.42081515381E+01  0.14331131417E+03  0.12508678143E+03 0.  0.
          5    1    3    3  502    0 -0.36991855357E+02  0.36744943882E+02  0.49723108968E+02  0.72169579665E+02  0.41800000000E+01 0.  1.
         -5    1    3    3    0  502  0.32427116678E+02  0.32917703947E+02 -0.53931260506E+02  0.71141734509E+02  0.41800000000E+01 0.  1.
        -11    1    1    2    0    0  0.13461775708E+02 -0.86102727354E+02  0.25252336608E+02  0.90733563620E+02  0.00000000000E+00 0. -1.
         11    1    1    2    0    0 -0.88970370299E+01  0.16440079526E+02 -0.15693494576E+02  0.24407360667E+02  0.00000000000E+00 0.  1.
</event>
<event>
 7    1  0.2384639E-009  0.9256304E+02  0.7561462E-02  0.1296761E+00
         -1   -1    0    0    0  501 -0.00000000000E+00  0.00000000000E+00  0.18856112193E+03  0.18856112193E+03  0.00000000000E+00 0.  1.
          1   -1    0    0  501    0  0.00000000000E+00 -0.00000000000E+00 -0.10978928413E+03  0.10978928413E+03  0.00000000000E+00 0. -1.
         25    2    1    2    0    0 -0.69581209081E+02 -0.16943504524E+02 -0.22886245539E+02  0.14594459676E+03  0.12508964021E+03 0.  0.
          5    1    3    3  502    0 -0.42687726784E+02 -0.72390438158E+01 -0.74801656680E+02  0.86529798424E+02  0.41800000000E+01 0. -1.
         -5    1    3    3    0  502 -0.26893482297E+02 -0.97044607087E+01  0.51915411141E+02  0.59414798339E+02  0.41800000000E+01 0. -1.
        -11    1    1    2    0    0  0.27385589794E+02 -0.35872520652E+02  0.49777268570E+02  0.67190659564E+02  0.00000000000E+00 0.  1.
         11    1    1    2    0    0  0.42195619288E+02  0.52816025176E+02  0.51880814775E+02  0.85215149734E+02  0.00000000000E+00 0. -1.
</event>
<event>
 7    1  0.2384639E-009  0.8899863E+02  0.7561462E-02  0.1305295E+00
          1   -1    0    0  501    0  0.00000000000E+00  0.00000000000E+00  0.33285452140E+03  0.33285452140E+03  0.00000000000E+00 0.  1.
         -1   -1    0    0    0  501 -0.00000000000E+00 -0.00000000000E+00 -0.40027163805E+02  0.40027163805E+02  0.00000000000E+00 0. -1.
         25    2    1    2    0    0  0.95399588284E+00  0.30288511008E+02  0.12137960495E+03  0.17691416567E+03  0.12508920621E+03 0.  0.
          5    1    3    3  502    0  0.24484215486E+02  0.55296076230E+02  0.12806144289E+03  0.14168393843E+03  0.41800000000E+01 0. -1.
         -5    1    3    3    0  502 -0.23530219603E+02 -0.25007565222E+02 -0.66818379413E+01  0.35230227237E+02  0.41800000000E+01 0. -1.
        -11    1    1    2    0    0  0.16864676547E+02 -0.52019888547E+02  0.60658974751E+02  0.81670051655E+02  0.00000000000E+00 0. -1.
         11    1    1    2    0    0 -0.17818672429E+02  0.21731377539E+02  0.11078877789E+03  0.11429746788E+03  0.00000000000E+00 0.  1.
</event>
<event>
 7    1  0.2384639E-009  0.1018809E+03  0.7561462E-02  0.1276390E+00
         -1   -1    0    0    0  501 -0.00000000000E+00  0.00000000000E+00  0.48373066929E+02  0.48373066929E+02  0.00000000000E+00 0.  1.
          1   -1    0    0  501    0  0.00000000000E+00 -0.00000000000E+00 -0.29209777708E+03  0.29209777708E+03  0.00000000000E+00 0. -1.
         25    2    1    2    0    0  0.32198784271E+02  0.31284095242E+01 -0.19179360131E+03  0.23125489942E+03  0.12508994504E+03 0.  0.
          5    1    3    3  502    0 -0.22891872074E+02 -0.47062156054E+02 -0.59456481861E+02  0.79318534875E+02  0.41800000000E+01 0. -1.
         -5    1    3    3    0  502  0.55090656344E+02  0.50190565578E+02 -0.13233711944E+03  0.15193636455E+03  0.41800000000E+01 0. -1.
        -11    1    1    2    0    0 -0.11608108388E+02 -0.36002588746E+02  0.71903633956E+01  0.38505011395E+02  0.00000000000E+00 0.  1.
         11    1    1    2    0    0 -0.20590675883E+02  0.32874179222E+02 -0.59121472246E+02  0.70710933195E+02  0.00000000000E+00 0. -1.
</event>
<event>
 7    1  0.2384639E-009  0.9208366E+02  0.7561462E-02  0.1297883E+00
         -1   -1    0    0    0  501 -0.00000000000E+00  0.00000000000E+00  0.27524263558E+02  0.27524263558E+02  0.00000000000E+00 0.  1.
          1   -1    0    0  501    0  0.00000000000E+00 -0.00000000000E+00 -0.47639873897E+03  0.47639873897E+03  0.00000000000E+00 0. -1.
         25    2    1    2    0    0 -0.38148863567E+02  0.37910864122E+02 -0.28306170245E+03  0.31410848623E+03  0.12509054446E+03 0.  0.
          5    1    3    3  502    0 -0.20810084250E+02  0.72411430046E+02 -0.25569567277E+03  0.26659749489E+03  0.41800000000E+01 0.  1.
         -5    1    3    3    0  502 -0.17338779317E+02 -0.34500565924E+02 -0.27366029683E+02  0.47510991338E+02  0.41800000000E+01 0.  1.
        -11    1    1    2    0    0  0.44362656938E+02 -0.16102451889E+02 -0.15941303787E+03  0.16625237121E+03  0.00000000000E+00 0. -1.
         11    1    1    2    0    0 -0.62137933709E+01 -0.21808412233E+02 -0.63997350796E+01  0.23562145090E+02  0.00000000000E+00 0.  1.
</event>
<event>
 7    1  0.2384639E-009  0.2617554E+03  0.7561462E-02  0.1106093E+00
         -2   -1    0    0    0  501 -0.00000000000E+00  0.00000000000E+00  0.22813997600E+03  0.22813997600E+03  0.00000000000E+00 0.  1.
          2   -1    0    0  501    0  0.00000000000E+00 -0.00000000000E+00 -0.43063208226E+03  0.43063208226E+03  0.00000000000E+00 0. -1.
         25    2    1    2    0    0 -0.19844673299E+03  0.15875017026E+03 -0.25744638074E+03  0.38276395063E+03  0.12508749160E+03 0.  0.
          5    1    3    3  502    0 -0.19846592094E+02 -0.99552999156E+01  0.51087073270E+01  0.23163905213E+02  0.41800000000E+01 0. -1.
         -5    1    3    3    0  502 -0.17860014090E+03  0.16870547018E+03 -0.26255508806E+03  0.35960004542E+03  0.41800000000E+01 0. -1.
        -11    1    1    2    0    0  0.76213871853E+02 -0.75716600545E+02 -0.21608198959E+02  0.10958317445E+03  0.00000000000E+00 0. -1.
         11    1    1    2    0    0  0.12223286114E+03 -0.83033569718E+02  0.76562473440E+02  0.16642493317E+03  0.00000000000E+00 0.  1.
</event>
<event>
 7    1  0.2384639E-009  0.2173891E+03  0.7561462E-02  0.1135845E+00
          1   -1    0    0  501    0  0.00000000000E+00  0.00000000000E+00  0.14782339355E+03  0.14782339355E+03  0.00000000000E+00 0. -1.
         -1   -1    0    0    0  501 -0.00000000000E+00 -0.00000000000E+00 -0.35435919712E+03  0.35435919712E+03  0.00000000000E+00 0.  1.
         25    2    1    2    0    0 -0.19501694578E+03  0.50416950960E+02 -0.10378105367E+03  0.25882872147E+03  0.12509325270E+03 0.  0.
          5    1    3    3  502    0 -0.16915783038E+03  0.85318446632E+02 -0.10187238763E+03  0.21514893603E+03  0.41800000000E+01 0. -1.
         -5    1    3    3    0  502 -0.25859115403E+02 -0.34901495673E+02 -0.19086660356E+01  0.43679785435E+02  0.41800000000E+01 0. -1.
        -11    1    1    2    0    0  0.14399711599E+03 -0.33028674008E+02 -0.11601588907E+03  0.18784501387E+03  0.00000000000E+00 0.  1.
         11    1    1    2    0    0  0.51019829794E+02 -0.17388276952E+02  0.13261139176E+02  0.55508855328E+02  0.00000000000E+00 0. -1.
</event>
<event>
 7    1  0.2384639E-009  0.9218796E+02  0.7561462E-02  0.1297638E+00
         -1   -1    0    0    0  501 -0.00000000000E+00  0.00000000000E+00  0.86424881122E+02  0.86424881122E+02  0.00000000000E+00 0.  1.
          1   -1    0    0  501    0  0.00000000000E+00 -0.00000000000E+00 -0.21954856639E+03  0.21954856639E+03  0.00000000000E+00 0. -1.
         25    2    1    2    0    0 -0.11059281800E+02  0.49898196389E+02  0.87983104517E+00  0.13512545122E+03  0.12508387485E+03 0.  0.
          5    1    3    3  502    0 -0.62820585823E+02  0.47476276436E+02  0.17062833725E+02  0.80678593952E+02  0.41800000000E+01 0. -1.
         -5    1    3    3    0  502  0.51761304023E+02  0.24219199538E+01 -0.16183002680E+02  0.54446857266E+02  0.41800000000E+01 0. -1.
        -11    1    1    2    0    0  0.10172814361E+02 -0.12451004371E+02  0.12034043210E+02  0.20083123707E+02  0.00000000000E+00 0.  1.
         11    1    1    2    0    0  0.88646743901E+00 -0.37447192019E+02 -0.14603755952E+03  0.15076487258E+03  0.00000000000E+00 0. -1.
</event>
<event>
 7    1  0.2384639E-009  0.1452662E+03  0.7561462E-02  0.1206413E+00
         -1   -1    0    0    0  501 -0.00000000000E+00  0.00000000000E+00  0.79375965187E+02  0.79375965187E+02  0.00000000000E+00 0.  1.
          1   -1    0    0  501    0  0.00000000000E+00 -0.00000000000E+00 -0.39738786359E+03  0.39738786359E+03  0.00000000000E+00 0. -1.
         25    2    1    2    0    0  0.98515244342E+02  0.29449815439E+02 -0.39758107554E+02  0.16673667214E+03  0.12509142946E+03 0.  0.
          5    1    3    3  502    0  0.29536433504E+02  0.68305467623E+02  0.67191940295E+01  0.74837542582E+02  0.41800000000E+01 0.  1.
         -5    1    3    3    0  502  0.68978810838E+02 -0.38855652184E+02 -0.46477301584E+02  0.91899129560E+02  0.41800000000E+01 0.  1.
        -11    1    1    2    0    0 -0.90944962571E+02 -0.57543927100E+02 -0.21880287760E+03  0.24383803848E+03  0.00000000000E+00 0. -1.
         11    1    1    2    0    0 -0.75702817714E+01  0.28094111661E+02 -0.59450913247E+02  0.66189118154E+02  0.00000000000E+00 0.  1.
</event>
<event>
 7    1  0.2384639E-009  0.7933897E+02  0.7561462E-02  0.1330938E+00
          2   -1    0    0  501    0  0.00000000000E+00  0.00000000000E+00  0.26552314636E+03  0.26552314636E+03  0.00000000000E+00 0. -1.
         -2   -1    0    0    0  501 -0.00000000000E+00 -0.00000000000E+00 -0.63070163451E+02  0.63070163451E+02  0.00000000000E+00 0.  1.
         25    2    1    2    0    0 -0.22803793051E+02 -0.81102494401E+01  0.19669745204E+03  0.23435544034E+03  0.12508715225E+03 0.  0.
          5    1    3    3  502    0 -0.41062776122E+02  0.81774104396E+01  0.65372934785E+01  0.42582041172E+02  0.41800000000E+01 0. -1.
         -5    1    3    3    0  502  0.18258983071E+02 -0.16287659880E+02  0.19016015856E+03  0.19177339917E+03  0.41800000000E+01 0. -1.
        -11    1    1    2    0    0 -0.29659871191E+02 -0.16377492485E+02 -0.78167533484E+01  0.34771135329E+02  0.00000000000E+00 0.  1.
         11    1    1    2    0    0  0.52463664242E+02  0.24487741925E+02  0.13572284223E+02  0.59466734140E+02  0.00000000000E+00 0. -1.
</event>
<event>
 7    1  0.2384639E-009  0.1062124E+03  0.7561462E-02  0.1267749E+00
          1   -1    0    0  501    0  0.00000000000E+00  0.00000000000E+00  0.12466147511E+04  0.12466147511E+04  0.00000000000E+00 0. -1.
         -1   -1    0    0    0  501 -0.00000000000E+00 -0.00000000000E+00 -0.13884232813E+02  0.13884232813E+02  0.00000000000E+00 0.  1.
         25    2    1    2    0    0  0.18668863946E+02  0.88566216419E+01  0.10104758950E+04  0.10183987482E+04  0.12509000640E+03 0.  0.
          5    1    3    3  502    0 -0.47666183901E+02  0.24164585943E+02  0.58961745781E+03  0.59204916287E+03  0.41800000000E+01 0. -1.
         -5    1    3    3    0  502  0.66335047848E+02 -0.15307964302E+02  0.42085843717E+03  0.42634958529E+03  0.41800000000E+01 0. -1.
        -11    1    1    2    0    0 -0.37970492151E+02 -0.39249091659E+02  0.17066777786E+03  0.17919190793E+03  0.00000000000E+00 0. -1.
         11    1    1    2    0    0  0.19301628205E+02  0.30392470017E+02  0.51586845457E+02  0.62908327821E+02  0.00000000000E+00 0.  1.
</event>
<event>
 7    1  0.2384639E-009  0.1141774E+03  0.7561462E-02  0.1253024E+00
          2   -1    0    0  501    0  0.00000000000E+00  0.00000000000E+00  0.24319070887E+03  0.24319070887E+03  0.00000000000E+00 0.  1.
         -2   -1    0    0    0  501 -0.00000000000E+00 -0.00000000000E+00 -0.60774536393E+02  0.60774536393E+02  0.00000000000E+00 0. -1.
         25    2    1    2    0    0 -0.24738423862E+02 -0.27157107970E+02  0.51708041995E+02  0.14025531665E+03  0.12509330164E+03 0.  0.
          5    1    3    3  502    0 -0.67640306086E+01  0.49929096970E+02  0.13891066838E+02  0.52431869814E+02  0.41800000000E+01 0. -1.
         -5    1    3    3    0  502 -0.17974393253E+02 -0.77086204940E+02  0.37816975157E+02  0.87823446840E+02  0.41800000000E+01 0. -1.
        -11    1    1    2    0    0 -0.29271785419E+02  0.33110991046E+02  0.60930869132E+02  0.75271149605E+02  0.00000000000E+00 0.  1.
         11    1    1    2    0    0  0.54010209281E+02 -0.59538830758E+01  0.69777261351E+02  0.88438779005E+02  0.00000000000E+00 0. -1.
</event>
<event>
 7    1  0.2384639E-009  0.1605575E+03  0.7561462E-02  0.1188069E+00
         -2   -1    0    0    0  501 -0.00000000000E+00  0.00000000000E+00  0.21884900613E+03  0.21884900613E+03  0.00000000000E+00 0.  1.
          2   -1    0    0  501    0  0.00000000000E+00 -0.00000000000E+00 -0.14005575937E+03  0.14005575937E+03  0.00000000000E+00 0. -1.
         25    2    1    2    0    0  0.13384990490E+03 -0.13050103442E+01  0.25586645156E+02  0.18498465662E+03  0.12508855536E+03 0.  0.
          5    1    3    3  502    0  0.18637485751E+01  0.34843384758E+02  0.32544528421E+02  0.47897325085E+02  0.41800000000E+01 0. -1.
         -5    1    3    3    0  502  0.13198615632E+03 -0.36148395102E+02 -0.69578832649E+01  0.13708733154E+03  0.41800000000E+01 0. -1.
        -11    1    1    2    0    0 -0.20734091254E+02 -0.25447949198E+02  0.47247407791E+02  0.57531019472E+02  0.00000000000E+00 0.  1.
         11    1    1    2    0    0 -0.11311581364E+03  0.26752959542E+02  0.59591938137E+01  0.11638908940E+03  0.00000000000E+00 0. -1.
</event>
<event>
 7    1  0.2384639E-009  0.8205146E+02  0.7561462E-02  0.1323328E+00
         -1   -1    0    0    0  501 -0.00000000000E+00  0.00000000000E+00  0.28979322831E+02  0.28979322831E+02  0.00000000000E+00 0.  1.
          1   -1    0    0  501    0  0.00000000000E+00 -0.00000000000E+00 -0.49041027889E+03  0.49041027889E+03  0.00000000000E+00 0. -1.
         25    2    1    2    0    0  0.44412678919E+02  0.22244291959E+02 -0.26692349972E+03  0.29893665934E+03  0.12509067519E+03 0.  0.
          5    1    3    3  502    0  0.50974927788E+02 -0.72576725188E+01 -0.29353852623E+02  0.59415807133E+02  0.41800000000E+01 0.  1.
         -5    1    3    3    0  502 -0.65622488698E+01  0.29501964478E+02 -0.23756964710E+03  0.23952085221E+03  0.41800000000E+01 0.  1.
        -11    1    1    2    0    0 -0.35164769534E+02  0.18790186662E+02 -0.28013716615E+02  0.48727820080E+02  0.00000000000E+00 0.  1.
         11    1    1    2    0    0 -0.92479093842E+01 -0.41034478621E+02 -0.16649373972E+03  0.17172512231E+03  0.00000000000E+00 0. -1.
</event>
<event>
 7    1  0.2384639E-009  0.1083330E+03  0.7561462E-02  0.1263688E+00
          1   -1    0    0  501    0  0.00000000000E+00  0.00000000000E+00  0.23608596967E+03  0.23608596967E+03  0.00000000000E+00 0. -1.
         -1   -1    0    0    0  501 -0.00000000000E+00 -0.00000000000E+00 -0.51060546299E+02  0.51060546299E+02  0.00000000000E+00 0.  1.
         25    2    1    2    0    0 -0.12588347507E+02 -0.53529903721E+01  0.11898348491E+03  0.17318539130E+03  0.12509591952E+03 0.  0.
          5    1    3    3  502    0  0.23146237886E+02 -0.57512806206E+02  0.52547625259E+02  0.81376879557E+02  0.41800000000E+01 0. -1.
         -5    1    3    3    0  502 -0.35734585394E+02  0.52159815834E+02  0.66435859650E+02  0.91808511743E+02  0.41800000000E+01 0. -1.
        -11    1    1    2    0    0 -0.26202682273E+02 -0.29188278547E+02  0.17804076154E+02  0.43075762216E+02  0.00000000000E+00 0. -1.
         11    1    1    2    0    0  0.38791029780E+02  0.34541268919E+02  0.48237862308E+02  0.70885362452E+02  0.00000000000E+00 0.  1.
</event>
<event>
 7    1  0.2384639E-009  0.1012315E+03  0.7561462E-02  0.1277727E+00
          3   -1    0    0  501    0  0.00000000000E+00  0.00000000000E+00  0.56442510158E+02  0.56442510158E+02  0.00000000000E+00 0. -1.
         -3   -1    0    0    0  501 -0.00000000000E+00 -0.00000000000E+00 -0.34759275223E+03  0.34759275223E+03  0.00000000000E+00 0.  1.
         25    2    1    2    0    0  0.72989135541E+02  0.34249648857E+02 -0.11087769762E+03  0.18557997108E+03  0.12508241076E+03 0.  0.
          5    1    3    3  502    0  0.11698825859E+02 -0.10720509849E+02  0.24954679600E+02  0.29866373932E+02  0.41800000000E+01 0.  1.
         -5    1    3    3    0  502  0.61290309682E+02  0.44970158706E+02 -0.13583237722E+03  0.15571359715E+03  0.41800000000E+01 0.  1.
        -11    1    1    2    0    0 -0.19110638603E+02 -0.50213055154E+02 -0.13814202122E+03  0.14822208150E+03  0.00000000000E+00 0.  1.
         11    1    1    2    0    0 -0.53878496938E+02  0.15963406297E+02 -0.42130523227E+02  0.70233209810E+02  0.00000000000E+00 0. -1.
</event>
<event>
 7    1  0.2384639E-009  0.9586871E+02  0.7561462E-02  0.1289231E+00
         -2   -1    0    0    0  501 -0.00000000000E+00  0.00000000000E+00  0.13292466914E+03  0.13292466914E+03  0.00000000000E+00 0.  1.
          2   -1    0    0  501    0  0.00000000000E+00 -0.00000000000E+00 -0.12312013350E+03  0.12312013350E+03  0.00000000000E+00 0. -1.
         25    2    1    2    0    0 -0.25290052319E+02  0.55667510857E+02  0.31212609521E+02  0.14268927681E+03  0.12509014434E+03 0.  0.
          5    1    3    3  502    0  0.44900927372E+02  0.84487969811E+01 -0.12254643494E+02  0.47488147326E+02  0.41800000000E+01 0.  1.
         -5    1    3    3    0  502 -0.70190979691E+02  0.47218713876E+02  0.43467253015E+02  0.95201129483E+02  0.41800000000E+01 0.  1.
        -11    1    1    2    0    0  0.58669830734E+01 -0.11525714326E+02 -0.53753054033E+02  0.55287018359E+02  0.00000000000E+00 0. -1.
         11    1    1    2    0    0  0.19423069246E+02 -0.44141796531E+02  0.32344980152E+02  0.58068507480E+02  0.00000000000E+00 0.  1.
</event>
<event>
 7    1  0.2384639E-009  0.9807300E+02  0.7561462E-02  0.1284401E+00
          2   -1    0    0  501    0  0.00000000000E+00  0.00000000000E+00  0.31052284513E+03  0.31052284513E+03  0.00000000000E+00 0. -1.
         -2   -1    0    0    0  501 -0.00000000000E+00 -0.00000000000E+00 -0.68768701345E+02  0.68768701345E+02  0.00000000000E+00 0.  1.
         25    2    1    2    0    0 -0.37655006327E+02 -0.63057900747E+02  0.47518618753E+02  0.15264206864E+03  0.12508950252E+03 0.  0.
          5    1    3    3  502    0  0.26816013154E+02  0.61027015706E+01 -0.21789663944E+02  0.35335582388E+02  0.41800000000E+01 0.  1.
         -5    1    3    3    0  502 -0.64471019481E+02 -0.69160602317E+02  0.69308282696E+02  0.11730648625E+03  0.41800000000E+01 0.  1.
        -11    1    1    2    0    0  0.13610845019E+02  0.17471743941E+02 -0.33976808857E+01  0.22406721623E+02  0.00000000000E+00 0.  1.
         11    1    1    2    0    0  0.24044161309E+02  0.45586156806E+02  0.19763320592E+03  0.20424275622E+03  0.00000000000E+00 0. -1.
</event>
<event>
 7    1  0.2384639E-009  0.1062666E+03  0.7561462E-02  0.1267644E+00
          1   -1    0    0  501    0  0.00000000000E+00  0.00000000000E+00  0.21200027234E+03  0.21200027234E+03  0.00000000000E+00 0. -1.
         -1   -1    0    0    0  501 -0.00000000000E+00 -0.00000000000E+00 -0.72905228889E+02  0.72905228889E+02  0.00000000000E+00 0.  1.
         25    2    1    2    0    0 -0.57237434589E+02 -0.20123274078E+02  0.75519921807E+02  0.15821636155E+03  0.12509231949E+03 0.  0.
          5    1    3    3  502    0  0.94109579439E+01 -0.58703111513E+02  0.18841527701E+02  0.62506775607E+02  0.41800000000E+01 0. -1.
         -5    1    3    3    0  502 -0.66648392533E+02  0.38579837435E+02  0.56678394106E+02  0.95709585947E+02  0.41800000000E+01 0. -1.
        -11    1    1    2    0    0  0.31049038057E+02  0.34107160131E+02 -0.10136233857E+02  0.47223769156E+02  0.00000000000E+00 0.  1.
         11    1    1    2    0    0  0.26188396531E+02 -0.13983886053E+02  0.73711355502E+02  0.79465370520E+02  0.00000000000E+00 0. -1.
</event>
<event>
 7    1  0.2384639E-009  0.1892447E+03  0.7561462E-02  0.1159144E+00
         -2   -1    0    0    0  501 -0.00000000000E+00  0.00000000000E+00  0.12706865993E+03  0.12706865993E+03  0.00000000000E+00 0.  1.
          2   -1    0    0  501    0  0.00000000000E+00 -0.00000000000E+00 -0.37746367487E+03  0.37746367487E+03  0.00000000000E+00 0. -1.
         25    2    1    2    0    0  0.90979660755E+02  0.14166781025E+03 -0.28945622269E+02  0.21173628641E+03  0.12508932329E+03 0.  0.
          5    1    3    3  502    0 -0.12776433319E+02 -0.10140578770E+02 -0.21967154178E+02  0.27678454596E+02  0.41800000000E+01 0. -1.
         -5    1    3    3    0  502  0.10375609407E+03  0.15180838902E+03 -0.69784680902E+01  0.18405783181E+03  0.41800000000E+01 0. -1.
        -11    1    1    2    0    0 -0.38825563843E+02 -0.11013845344E+03 -0.19290203503E+03  0.22549744666E+03  0.00000000000E+00 0. -1.
         11    1    1    2    0    0 -0.52154096912E+02 -0.31529356815E+02 -0.28547357644E+02  0.67298601726E+02  0.00000000000E+00 0.  1.
</event>
<event>
 7    1  0.2384639E-009  0.1357976E+03  0.7561462E-02  0.1219098E+00
          2   -1    0    0  501    0  0.00000000000E+00  0.00000000000E+00  0.10118791522E+03  0.10118791522E+03  0.00000000000E+00 0. -1.
         -2   -1    0    0    0  501 -0.00000000000E+00 -0.00000000000E+00 -0.28104128394E+03  0.28104128394E+03  0.00000000000E+00 0.  1.
         25    2    1    2    0    0  0.11202939400E+03 -0.80307067610E+01 -0.16810422645E+03  0.23774050869E+03  0.12508573521E+03 0.  0.
          5    1    3    3  502    0  0.12208912796E+03 -0.29462199525E+02 -0.17238042488E+03  0.21332196241E+03  0.41800000000E+01 0.  1.
         -5    1    3    3    0  502 -0.10059733955E+02  0.21431492764E+02  0.42761984323E+01  0.24418546279E+02  0.41800000000E+01 0.  1.
        -11    1    1    2    0    0 -0.10837127632E+03  0.19269872794E+02 -0.37395238607E+02  0.11625001247E+03  0.00000000000E+00 0.  1.
         11    1    1    2    0    0 -0.36581176858E+01 -0.11239166033E+02  0.25646096334E+02  0.28238678002E+02  0.00000000000E+00 0. -1.
</event>
<event>
 7    1  0.2384639E-009  0.9758102E+02  0.7561462E-02  0.1285467E+00
          1   -1    0    0  501    0  0.00000000000E+00  0.00000000000E+00  0.32371733595E+03  0.32371733595E+03  0.00000000000E+00 0. -1.
         -1   -1    0    0    0  501 -0.00000000000E+00 -0.00000000000E+00 -0.38336282337E+02  0.38336282337E+02  0.00000000000E+00 0.  1.
         25    2    1    2    0    0  0.62167425395E+01 -0.17155917661E+02  0.15291428236E+03  0.19840283898E+03  0.12509170782E+03 0.  0.
          5    1    3    3  502    0 -0.19039580827E+02  0.42793089665E+02  0.21492138647E+02  0.51702404052E+02  0.41800000000E+01 0. -1.
         -5    1    3    3    0  502  0.25256323366E+02 -0.59949007326E+02  0.13142214372E+03  0.14670043493E+03  0.41800000000E+01 0. -1.
        -11    1    1    2    0    0 -0.20620767247E+02  0.46166536269E+02  0.36485897228E+02  0.62352111508E+02  0.00000000000E+00 0.  1.
         11    1    1    2    0    0  0.14404024708E+02 -0.29010618608E+02  0.95980874019E+02  0.10129866780E+03  0.00000000000E+00 0. -1.
</event>
<event>
 7    1  0.2384639E-009  0.5984217E+02  0.7561462E-02  0.1398495E+00
         -3   -1    0    0    0  501 -0.00000000000E+00  0.00000000000E+00  0.17510974733E+02  0.17510974733E+02  0.00000000000E+00 0.  1.
          3   -1    0    0  501    0  0.00000000000E+00 -0.00000000000E+00 -0.80680651553E+03  0.80680651553E+03  0.00000000000E+00 0. -1.
         25    2    1    2    0    0  0.77733350002E+01  0.12749638082E+02 -0.27551832927E+03  0.30295490270E+03  0.12509334635E+03 0.  0.
          5    1    3    3  502    0  0.99098951187E+01  0.19844144557E+02  0.43252197190E+01  0.22982080412E+02  0.41800000000E+01 0.  1.
         -5    1    3    3    0  502 -0.21365601185E+01 -0.70945064752E+01 -0.27984354899E+03  0.27997282229E+03  0.41800000000E+01 0.  1.
        -11    1    1    2    0    0 -0.20053259372E+02 -0.47601979727E+02 -0.29672653039E+03  0.30118883698E+03  0.00000000000E+00 0. -1.
         11    1    1    2    0    0  0.12279924372E+02  0.34852341646E+02 -0.21705068114E+03  0.22017375057E+03  0.00000000000E+00 0.  1.
</event>
<event>
 7    1  0.2384639E-009  0.1245752E+03  0.7561462E-02  0.1235735E+00
          1   -1    0    0  501    0  0.00000000000E+00  0.00000000000E+00  0.57573004317E+02  0.57573004317E+02  0.00000000000E+00 0. -1.
         -1   -1    0    0    0  501 -0.00000000000E+00 -0.00000000000E+00 -0.29801768696E+03  0.29801768696E+03  0.00000000000E+00 0.  1.
         25    2    1    2    0    0  0.65910758774E+02 -0.23623908965E+02 -0.10134407316E+03  0.17555630914E+03  0.12508828609E+03 0.  0.
          5    1    3    3  502    0  0.89687754404E+02  0.17363734486E+02 -0.45323662677E+02  0.10206419237E+03  0.41800000000E+01 0. -1.
         -5    1    3    3    0  502 -0.23776995630E+02 -0.40987643451E+02 -0.56020410486E+02  0.73492116774E+02  0.41800000000E+01 0. -1.
        -11    1    1    2    0    0 -0.81158053156E+02 -0.10071692874E+01 -0.78740243182E+02  0.11308257991E+03  0.00000000000E+00 0. -1.
         11    1    1    2    0    0  0.15247294382E+02  0.24631078253E+02 -0.60360366293E+02  0.66951802223E+02  0.00000000000E+00 0.  1.
</event>
<event>
 7    1  0.2384639E-009  0.1177592E+03  0.7561462E-02  0.1246840E+00
          1   -1    0    0  501    0  0.00000000000E+00  0.00000000000E+00  0.13456249121E+02  0.13456249121E+02  0.00000000000E+00 0. -1.
         -1   -1    0    0    0  501 -0.00000000000E+00 -0.00000000000E+00 -0.11572056389E+04  0.11572056389E+04  0.00000000000E+00 0.  1.
         25    2    1    2    0    0  0.11384267484E+02  0.57862780712E+02 -0.72604130182E+03  0.73909536148E+03  0.12509307926E+03 0.  0.
          5    1    3    3  502    0  0.56768671918E+02  0.48606479349E+01 -0.18676313822E+03  0.19530553041E+03  0.41800000000E+01 0.  1.
         -5    1    3    3    0  502 -0.45384404435E+02  0.53002132777E+02 -0.53927816359E+03  0.54378983107E+03  0.41800000000E+01 0.  1.
        -11    1    1    2    0    0  0.33657066701E+02 -0.53536330158E+02 -0.24216386951E+03  0.25028439121E+03  0.00000000000E+00 0.  1.
         11    1    1    2    0    0 -0.45041334184E+02 -0.43264505540E+01 -0.17554421843E+03  0.18128213531E+03  0.00000000000E+00 0. -1.
</event>
<event>
 7    1  0.2384639E-009  0.1076131E+03  0.7561462E-02  0.1265055E+00
         -2   -1    0    0    0  501 -0.00000000000E+00  0.00000000000E+00  0.22885500937E+02  0.22885500937E+02  0.00000000000E+00 0.  1.
          2   -1    0    0  501    0  0.00000000000E+00 -0.00000000000E+00 -0.54126916796E+03  0.54126916796E+03  0.00000000000E+00 0. -1.
         25    2    1    2    0    0 -0.14925143757E+02  0.21877357286E+02 -0.26654333574E+03  0.29562621869E+03  0.12509249646E+03 0.  0.
          5    1    3    3  502    0 -0.62160027708E+02 -0.14038484715E+02 -0.17659028643E+03  0.18778325207E+03  0.41800000000E+01 0. -1.
         -5    1    3    3    0  502  0.47234883952E+02  0.35915842001E+02 -0.89953049306E+02  0.10784296661E+03  0.41800000000E+01 0. -1.
        -11    1    1    2    0    0 -0.35444369599E+02 -0.21600605192E+02 -0.91782040343E+02  0.10073148669E+03  0.00000000000E+00 0.  1.
         11    1    1    2    0    0  0.50369513355E+02 -0.27675209419E+00 -0.16005829095E+03  0.16779696353E+03  0.00000000000E+00 0. -1.
</event>
<event>
 7    1  0.2384639E-009  0.1026913E+03  0.7561462E-02  0.1274736E+00
         -2   -1    0    0    0  501 -0.00000000000E+00  0.00000000000E+00  0.85544785004E+02  0.85544785004E+02  0.00000000000E+00 0. -1.
          2   -1    0    0  501    0  0.00000000000E+00 -0.00000000000E+00 -0.18870191314E+03  0.18870191314E+03  0.00000000000E+00 0.  1.
         25    2    1    2    0    0 -0.23494472081E+02  0.48714399702E+02 -0.95043456403E+02  0.16615147302E+03  0.12509184796E+03 0.  0.
          5    1    3    3  502    0 -0.58415018292E+02  0.70170411200E+02 -0.46710509564E+02  0.10264280332E+03  0.41800000000E+01 0.  1.
         -5    1    3    3    0  502  0.34920546211E+02 -0.21456011498E+02 -0.48332946839E+02  0.63508669702E+02  0.41800000000E+01 0.  1.
        -11    1    1    2    0    0  0.38002012041E+01 -0.52579047707E+02 -0.42878772126E+02  0.67952828389E+02  0.00000000000E+00 0.  1.
         11    1    1    2    0    0  0.19694270877E+02  0.38646480053E+01  0.34765100397E+02  0.40142396729E+02  0.00000000000E+00 0. -1.
</event>
<event>
 7    1  0.2384639E-009  0.1017908E+03  0.7561462E-02  0.1276575E+00
          2   -1    0    0  501    0  0.00000000000E+00  0.00000000000E+00  0.48090041170E+03  0.48090041170E+03  0.00000000000E+00 0. -1.
         -2   -1    0    0    0  501 -0.00000000000E+00 -0.00000000000E+00 -0.34582442970E+02  0.34582442970E+02  0.00000000000E+00 0.  1.
         25    2    1    2    0    0 -0.21690115046E+02 -0.49189016846E+02  0.15253849677E+03  0.20446702691E+03  0.12509497043E+03 0.  0.
          5    1    3    3  502    0  0.33101198378E+02 -0.50463186389E+02  0.24756767602E+02  0.65365070617E+02  0.41800000000E+01 0.  1.
         -5    1    3    3    0  502 -0.54791313424E+02  0.12741695427E+01  0.12778172917E+03  0.13910195629E+03  0.41800000000E+01 0.  1.
        -11    1    1    2    0    0 -0.11323830939E+02  0.53627403214E+02  0.96804423041E+02  0.11124398340E+03  0.00000000000E+00 0.  1.
         11    1    1    2    0    0  0.33013945985E+02 -0.44383863683E+01  0.19697504892E+03  0.19977184436E+03  0.00000000000E+00 0. -1.
</event>
<event>
 7    1  0.2384639E-009  0.7776069E+02  0.7561462E-02  0.1335529E+00
          1   -1    0    0  501    0  0.00000000000E+00  0.00000000000E+00  0.82620562430E+02  0.82620562430E+02  0.00000000000E+00 0. -1.
         -1   -1    0    0    0  501 -0.00000000000E+00 -0.00000000000E+00 -0.16288026798E+03  0.16288026798E+03  0.00000000000E+00 0.  1.
         25    2    1    2    0    0  0.12393830855E+02  0.36546860370E+02 -0.66063405587E+02  0.14663843161E+03  0.12509666670E+03 0.  0.
          5    1    3    3  502    0  0.37243640091E+02  0.48332946013E+02  0.13257134387E+02  0.62581038739E+02  0.41800000000E+01 0. -1.
         -5    1    3    3    0  502 -0.24849809237E+02 -0.11786085643E+02 -0.79320539974E+02  0.84057392867E+02  0.41800000000E+01 0. -1.
        -11    1    1    2    0    0  0.21452672129E+02 -0.17630080357E+02 -0.42562979489E+02  0.50819721545E+02  0.00000000000E+00 0.  1.
         11    1    1    2    0    0 -0.33846502983E+02 -0.18916780014E+02  0.28366679530E+02  0.48042677255E+02  0.00000000000E+00 0. -1.
</event>
<event>
 7    1  0.2384639E-009  0.1675392E+03  0.7561462E-02  0.1180439E+00
         -1   -1    0    0    0  501 -0.00000000000E+00  0.00000000000E+00  0.20622915954E+03  0.20622915954E+03  0.00000000000E+00 0.  1.
          1   -1    0    0  501    0  0.00000000000E+00 -0.00000000000E+00 -0.18485551097E+03  0.18485551097E+03  0.00000000000E+00 0. -1.
         25    2    1    2    0    0 -0.12732573232E+03 -0.93421260477E+02  0.56571628969E+02  0.20925363782E+03  0.12508941489E+03 0.  0.
          5    1    3    3  502    0 -0.12461773570E+03 -0.64687863339E+02  0.88490950147E+02  0.16601873501E+03  0.41800000000E+01 0.  1.
         -5    1    3    3    0  502 -0.27079966126E+01 -0.28733397137E+02 -0.31919321178E+02  0.43234902812E+02  0.41800000000E+01 0.  1.
        -11    1    1    2    0    0 -0.33235708133E+01  0.97523624263E+01  0.15501228957E+02  0.18612973836E+02  0.00000000000E+00 0.  1.
         11    1    1    2    0    0  0.13064930313E+03  0.83668898050E+02 -0.50699209354E+02  0.16321805886E+03  0.00000000000E+00 0. -1.
</event>
<event>
 7    1  0.2384639E-009  0.1244206E+03  0.7561462E-02  0.1235978E+00
          1   -1    0    0  501    0  0.00000000000E+00  0.00000000000E+00  0.19801047763E+04  0.19801047763E+04  0.00000000000E+00 0. -1.
         -1   -1    0    0    0  501 -0.00000000000E+00 -0.00000000000E+00 -0.26932719620E+02  0.26932719620E+02  0.00000000000E+00 0.  1.
         25    2    1    2    0    0 -0.10955372476E+03 -0.22804048512E+02  0.17469055748E+04  0.17549498051E+04  0.12509071873E+03 0.  0.
          5    1    3    3  502    0 -0.18130870271E+02  0.26828660121E+02  0.10306828760E+04  0.10311998685E+04  0.41800000000E+01 0. -1.
         -5    1    3    3    0  502 -0.91422854485E+02 -0.49632708633E+02  0.71622269877E+03  0.72374993659E+03  0.41800000000E+01 0. -1.
        -11    1    1    2    0    0  0.45905820694E+02  0.63671066671E+01  0.17164523883E+03  0.17779193579E+03  0.00000000000E+00 0. -1.
         11    1    1    2    0    0  0.63647904061E+02  0.16436941845E+02  0.34621243103E+02  0.74295755077E+02  0.00000000000E+00 0.  1.
</event>
<event>
 7    1  0.2384639E-009  0.7874160E+02  0.7561462E-02  0.1332661E+00
          1   -1    0    0  501    0  0.00000000000E+00  0.00000000000E+00  0.27754327198E+02  0.27754327198E+02  0.00000000000E+00 0. -1.
         -1   -1    0    0    0  501 -0.00000000000E+00 -0.00000000000E+00 -0.46203334252E+03  0.46203334252E+03  0.00000000000E+00 0.  1.
         25    2    1    2    0    0  0.16229119887E+02 -0.29306719253E+02 -0.27117316482E+03  0.30050764043E+03  0.12509072114E+03 0.  0.
          5    1    3    3  502    0  0.31281711463E+02 -0.33143236857E+02 -0.27892237399E+03  0.28265205242E+03  0.41800000000E+01 0.  1.
         -5    1    3    3    0  502 -0.15052591576E+02  0.38365176037E+01  0.77492091754E+01  0.17855588014E+02  0.41800000000E+01 0.  1.
        -11    1    1    2    0    0  0.31976159366E+02 -0.99229623047E+01 -0.65621062131E+02  0.73668607588E+02  0.00000000000E+00 0. -1.
         11    1    1    2    0    0 -0.48205279253E+02  0.39229681558E+02 -0.97484788373E+02  0.11561142170E+03  0.00000000000E+00 0.  1.
</event>
<event>
 7    1  0.2384639E-009  0.8667522E+02  0.7561462E-02  0.1311109E+00
          1   -1    0    0  501    0  0.00000000000E+00  0.00000000000E+00  0.24895818024E+03  0.24895818024E+03  0.00000000000E+00 0. -1.
         -1   -1    0    0    0  501 -0.00000000000E+00 -0.00000000000E+00 -0.52066481855E+02  0.52066481855E+02  0.00000000000E+00 0.  1.
         25    2    1    2    0    0 -0.31523156234E+02  0.49487117791E+01  0.14540826198E+03  0.19444682051E+03  0.12509118365E+03 0.  0.
          5    1    3    3  502    0 -0.52507358433E+02  0.24621838140E+02  0.13923803417E+02  0.59787977927E+02  0.41800000000E+01 0.  1.
         -5    1    3    3    0  502  0.20984202199E+02 -0.19673126361E+02  0.13148445857E+03  0.13465884259E+03  0.41800000000E+01 0.  1.
        -11    1    1    2    0    0 -0.27100467079E+02 -0.47658200396E+01 -0.15022450007E+01  0.27557305685E+02  0.00000000000E+00 0.  1.
         11    1    1    2    0    0  0.58623623313E+02 -0.18289173950E+00  0.52985681403E+02  0.79020535897E+02  0.00000000000E+00 0. -1.
</event>
<event>
 7    1  0.2384639E-009  0.1615616E+03  0.7561462E-02  0.1186945E+00
         -2   -1    0    0    0  501 -0.00000000000E+00  0.00000000000E+00  0.13400705037E+03  0.13400705037E+03  0.00000000000E+00 0.  1.
          2   -1    0    0  501    0  0.00000000000E+00 -0.00000000000E+00 -0.23350285142E+03  0.23350285142E+03  0.00000000000E+00 0. -1.
         25    2    1    2    0    0  0.13042921715E+03 -0.35081559590E+02 -0.85121944364E+02  0.20282005280E+03  0.12509089453E+03 0.  0.
          5    1    3    3  502    0 -0.21915890248E+02 -0.39093318579E+01  0.47833616955E+01  0.23150422676E+02  0.41800000000E+01 0. -1.
         -5    1    3    3    0  502  0.15234510740E+03 -0.31172227732E+02 -0.89905306059E+02  0.17966963012E+03  0.41800000000E+01 0. -1.
        -11    1    1    2    0    0 -0.80733964046E+02  0.47527167141E+02  0.28460155095E+02  0.97912128948E+02  0.00000000000E+00 0.  1.
         11    1    1    2    0    0 -0.49695253105E+02 -0.12445607551E+02 -0.42834011783E+02  0.66777720041E+02  0.00000000000E+00 0. -1.
</event>
<event>
 7    1  0.2384639E-009  0.1180912E+03  0.7561462E-02  0.1246280E+00
         -1   -1    0    0    0  501 -0.00000000000E+00  0.00000000000E+00  0.65360443678E+02  0.65360443678E+02  0.00000000000E+00 0.  1.
          1   -1    0    0  501    0  0.00000000000E+00 -0.00000000000E+00 -0.43907436192E+03  0.43907436192E+03  0.00000000000E+00 0. -1.
         25    2    1    2    0    0  0.95342718922E+02 -0.55141467612E+02 -0.95883398819E+02  0.19227978083E+03  0.12508825863E+03 0.  0.
          5    1    3    3  502    0  0.72134840222E+02 -0.54058818146E+02 -0.12539400712E+03  0.15448922426E+03  0.41800000000E+01 0. -1.
         -5    1    3    3    0  502  0.23207878700E+02 -0.10826494654E+01  0.29510608298E+02  0.37790556569E+02  0.41800000000E+01 0. -1.
        -11    1    1    2    0    0 -0.13420368018E+02 -0.10756488015E+02 -0.24321030375E+01  0.17370188178E+02  0.00000000000E+00 0. -1.
         11    1    1    2    0    0 -0.81922350904E+02  0.65897955627E+02 -0.27539841639E+03  0.29478483659E+03  0.00000000000E+00 0.  1.
</event>
<event>
 7    1  0.2384639E-009  0.1135745E+03  0.7561462E-02  0.1254090E+00
         -1   -1    0    0    0  501 -0.00000000000E+00  0.00000000000E+00  0.24779346897E+03  0.24779346897E+03  0.00000000000E+00 0.  1.
          1   -1    0    0  501    0  0.00000000000E+00 -0.00000000000E+00 -0.63911827926E+02  0.63911827926E+02  0.00000000000E+00 0. -1.
         25    2    1    2    0    0  0.97218524301E+00  0.57058739479E+02  0.14576183423E+03  0.20037732950E+03  0.12509163428E+03 0.  0.
          5    1    3    3  502    0  0.52615866522E+02  0.56131170497E+02  0.11974550189E+03  0.14239239915E+03  0.41800000000E+01 0.  1.
         -5    1    3    3    0  502 -0.51643681279E+02  0.92756898196E+00  0.26016332331E+02  0.57984930355E+02  0.41800000000E+01 0.  1.
        -11    1    1    2    0    0  0.20874616599E+02  0.13202526061E+02  0.27537485434E+02  0.36991477621E+02  0.00000000000E+00 0.  1.
         11    1    1    2    0    0 -0.21846801842E+02 -0.70261265540E+02  0.10582321385E+02  0.74336489774E+02  0.00000000000E+00 0. -1.
</event>
<event>
 7    1  0.2384639E-009  0.6699576E+02  0.7561462E-02  0.1370618E+00
          2   -1    0    0  501    0  0.00000000000E+00  0.00000000000E+00  0.16048536663E+03  0.16048536663E+03  0.00000000000E+00 0.  1.
         -2   -1    0    0    0  501 -0.00000000000E+00 -0.00000000000E+00 -0.97360067472E+02  0.97360067472E+02  0.00000000000E+00 0. -1.
         25    2    1    2    0    0 -0.36434432980E+02 -0.12345388068E+02 -0.11347629156E+02  0.13137945440E+03  0.12510761702E+03 0.  0.
          5    1    3    3  502    0 -0.24019746310E+02 -0.14530235392E+01 -0.67982976619E+02  0.72237227246E+02  0.41800000000E+01 0. -1.
         -5    1    3    3    0  502 -0.12414686669E+02 -0.10892364529E+02  0.56635347463E+02  0.59142227151E+02  0.41800000000E+01 0. -1.
        -11    1    1    2    0    0 -0.35113381769E+01 -0.32376762309E+02  0.54080092205E+02  0.63128762116E+02  0.00000000000E+00 0. -1.
         11    1    1    2    0    0  0.39945771156E+02  0.44722150377E+02  0.20392836111E+02  0.63337217592E+02  0.00000000000E+00 0.  1.
</event>
<event>
 7    1  0.2384639E-009  0.1045688E+03  0.7561462E-02  0.1270972E+00
          1   -1    0    0  501    0  0.00000000000E+00  0.00000000000E+00  0.41275124474E+03  0.41275124474E+03  0.00000000000E+00 0. -1.
         -1   -1    0    0    0  501 -0.00000000000E+00 -0.00000000000E+00 -0.66510313688E+02  0.66510313688E+02  0.00000000000E+00 0.  1.
         25    2    1    2    0    0 -0.68515127600E+02  0.23690932645E+02  0.32946205057E+03  0.35978905629E+03  0.12508932513E+03 0.  0.
          5    1    3    3  502    0  0.32126588380E+02 -0.11586769376E+01  0.14078220984E+03  0.14446647785E+03  0.41800000000E+01 0. -1.
         -5    1    3    3    0  502 -0.10064171598E+03  0.24849609583E+02  0.18867984073E+03  0.21532257845E+03  0.41800000000E+01 0. -1.
        -11    1    1    2    0    0  0.15668079435E+02 -0.18060596794E+01 -0.37460739433E+02  0.40645510990E+02  0.00000000000E+00 0.  1.
         11    1    1    2    0    0  0.52847048165E+02 -0.21884872966E+02  0.54239619914E+02  0.78826991145E+02  0.00000000000E+00 0. -1.
</event>
<event>
 7    1  0.2384639E-009  0.9836135E+02  0.7561462E-02  0.1283780E+00
         -1   -1    0    0    0  501 -0.00000000000E+00  0.00000000000E+00  0.19331713283E+02  0.19331713283E+02  0.00000000000E+00 0.  1.
          1   -1    0    0  501    0  0.00000000000E+00 -0.00000000000E+00 -0.71944176474E+03  0.71944176474E+03  0.00000000000E+00 0. -1.
         25    2    1    2    0    0  0.88501383117E+01 -0.41027132974E+02 -0.45145899168E+03  0.47034594888E+03  0.12509412403E+03 0.  0.
          5    1    3    3  502    0  0.44711522985E+02  0.23793982441E+02 -0.11382023148E+03  0.12465067742E+03  0.41800000000E+01 0.  1.
         -5    1    3    3    0  502 -0.35861384673E+02 -0.64821115416E+02 -0.33763876021E+03  0.34569527146E+03  0.41800000000E+01 0.  1.
        -11    1    1    2    0    0 -0.27489106545E+02  0.95066879633E+00 -0.16432854849E+02  0.32040497317E+02  0.00000000000E+00 0.  1.
         11    1    1    2    0    0  0.18638968233E+02  0.40076464178E+02 -0.23221820493E+03  0.23638703183E+03  0.00000000000E+00 0. -1.
</event>
<event>
 7    1  0.2384639E-009  0.9883730E+02  0.7561462E-02  0.1282760E+00
         -1   -1    0    0    0  501 -0.00000000000E+00  0.00000000000E+00  0.16857990307E+03  0.16857990307E+03  0.00000000000E+00 0.  1.
          1   -1    0    0  501    0  0.00000000000E+00 -0.00000000000E+00 -0.94374868279E+02  0.94374868279E+02  0.00000000000E+00 0. -1.
         25    2    1    2    0    0 -0.38190988306E+02  0.47578577331E+02  0.20223751417E+02  0.14063008145E+03  0.12508216132E+03 0.  0.
          5    1    3    3  502    0 -0.32798732290E+02 -0.21702511554E+02  0.50979763367E+02  0.64522589227E+02  0.41800000000E+01 0.  1.
         -5    1    3    3    0  502 -0.53922560162E+01  0.69281088885E+02 -0.30756011950E+02  0.76107492227E+02  0.41800000000E+01 0.  1.
        -11    1    1    2    0    0 -0.15610756761E+02  0.15018286327E+01  0.46550568469E+02  0.49121346079E+02  0.00000000000E+00 0.  1.
         11    1    1    2    0    0  0.53801745068E+02 -0.49080405964E+02  0.74307149055E+01  0.73203343816E+02  0.00000000000E+00 0. -1.
</event>
<event>
 7    1  0.2384639E-009  0.8918637E+02  0.7561462E-02  0.1304834E+00
         -2   -1    0    0    0  501 -0.00000000000E+00  0.00000000000E+00  0.33697255014E+02  0.33697255014E+02  0.00000000000E+00 0.  1.
          2   -1    0    0  501    0  0.00000000000E+00 -0.00000000000E+00 -0.65345962594E+03  0.65345962594E+03  0.00000000000E+00 0. -1.
         25    2    1    2    0    0 -0.28639105332E+02  0.53320994001E+01 -0.55947183392E+03  0.57402516743E+03  0.12509008855E+03 0.  0.
          5    1    3    3  502    0  0.13888800638E+02 -0.45073902892E+02 -0.11052016972E+03  0.12023616686E+03  0.41800000000E+01 0. -1.
         -5    1    3    3    0  502 -0.42527905970E+02  0.50406002292E+02 -0.44895166420E+03  0.45378900057E+03  0.41800000000E+01 0. -1.
        -11    1    1    2    0    0  0.81853230348E+01  0.26147924885E+02  0.13346740407E+02  0.30477023616E+02  0.00000000000E+00 0.  1.
         11    1    1    2    0    0  0.20453782297E+02 -0.31480024285E+02 -0.73637277411E+02  0.82654689908E+02  0.00000000000E+00 0. -1.
</event>
<event>
 7    1  0.2384639E-009  0.1451042E+03  0.7561462E-02  0.1206621E+00
          2   -1    0    0  501    0  0.00000000000E+00  0.00000000000E+00  0.26882799781E+04  0.26882799781E+04  0.00000000000E+00 0. -1.
         -2   -1    0    0    0  501 -0.00000000000E+00 -0.00000000000E+00 -0.19157412298E+02  0.19157412298E+02  0.00000000000E+00 0.  1.
         25    2    1    2    0    0 -0.13877782573E+03  0.10115418587E+02  0.22262793436E+04  0.22341282123E+04  0.12509015549E+03 0.  0.
          5    1    3    3  502    0 -0.23238844528E+02  0.19482465740E+02  0.97534942251E+02  0.10222596405E+03  0.41800000000E+01 0.  1.
         -5    1    3    3    0  502 -0.11553898121E+03 -0.93670471537E+01  0.21287444013E+04  0.21319022483E+04  0.41800000000E+01 0.  1.
        -11    1    1    2    0    0  0.12012298135E+03 -0.21089084923E+02  0.43241455405E+03  0.44928457207E+03  0.00000000000E+00 0. -1.
         11    1    1    2    0    0  0.18654844380E+02  0.10973666336E+02  0.10428668170E+02  0.24024605959E+02  0.00000000000E+00 0.  1.
</event>
<event>
 7    1  0.2384639E-009  0.7790883E+02  0.7561462E-02  0.1335093E+00
          2   -1    0    0  501    0  0.00000000000E+00  0.00000000000E+00  0.85180132568E+02  0.85180132568E+02  0.00000000000E+00 0. -1.
         -2   -1    0    0    0  501 -0.00000000000E+00 -0.00000000000E+00 -0.14904659085E+03  0.14904659085E+03  0.00000000000E+00 0.  1.
         25    2    1    2    0    0  0.10825203551E+02 -0.34347033572E+02 -0.42473148298E+02  0.13692639238E+03  0.12509182569E+03 0.  0.
          5    1    3    3  502    0  0.16260678505E+02  0.11197288631E+02  0.38672224126E+02  0.43621121685E+02  0.41800000000E+01 0.  1.
         -5    1    3    3    0  502 -0.54354749542E+01 -0.45544322203E+02 -0.81145372424E+02  0.93305270691E+02  0.41800000000E+01 0.  1.
        -11    1    1    2    0    0 -0.11666102908E+02  0.61407491438E+02 -0.29389856095E+02  0.69070555254E+02  0.00000000000E+00 0.  1.
         11    1    1    2    0    0  0.84089935711E+00 -0.27060457866E+02  0.79965461077E+01  0.28229775792E+02  0.00000000000E+00 0. -1.
</event>
<event>
 7    1  0.2384639E-009  0.1013886E+03  0.7561462E-02  0.1277403E+00
         -2   -1    0    0    0  501 -0.00000000000E+00  0.00000000000E+00  0.44204765325E+02  0.44204765325E+02  0.00000000000E+00 0.  1.
          2   -1    0    0  501    0  0.00000000000E+00 -0.00000000000E+00 -0.29916554253E+03  0.29916554253E+03  0.00000000000E+00 0. -1.
         25    2    1    2    0    0 -0.13539021339E+02 -0.28205248611E+02 -0.18038366917E+03  0.22173243603E+03  0.12509262144E+03 0.  0.
          5    1    3    3  502    0 -0.45123484706E+02 -0.63978349415E+02 -0.13277422895E+03  0.15419411901E+03  0.41800000000E+01 0.  1.
         -5    1    3    3    0  502  0.31584463367E+02  0.35773100805E+02 -0.47609440221E+02  0.67538317017E+02  0.41800000000E+01 0.  1.
        -11    1    1    2    0    0  0.95878803185E+01  0.51733316841E+02 -0.11027398305E+02  0.53757483513E+02  0.00000000000E+00 0.  1.
         11    1    1    2    0    0  0.39511410201E+01 -0.23528068230E+02 -0.63549709729E+02  0.67880388307E+02  0.00000000000E+00 0. -1.
</event>
<event>
 7    1  0.2384639E-009  0.1496853E+03  0.7561462E-02  0.1200860E+00
         -1   -1    0    0    0  501 -0.00000000000E+00  0.00000000000E+00  0.19516554557E+02  0.19516554557E+02  0.00000000000E+00 0.  1.
          1   -1    0    0  501    0  0.00000000000E+00 -0.00000000000E+00 -0.14853354833E+04  0.14853354833E+04  0.00000000000E+00 0. -1.
         25    2    1    2    0    0  0.34015889344E+02  0.10047045848E+03 -0.11289624631E+04  0.11408134760E+04  0.12509096744E+03 0.  0.
          5    1    3    3  502    0  0.11900815868E+02 -0.29454904920E+02 -0.23751620548E+03  0.23966777236E+03  0.41800000000E+01 0. -1.
         -5    1    3    3    0  502  0.22115073476E+02  0.12992536340E+03 -0.89144625760E+03  0.90114570360E+03  0.41800000000E+01 0. -1.
        -11    1    1    2    0    0  0.21985958333E+02 -0.66333578083E+02 -0.20844959373E+03  0.21985167516E+03  0.00000000000E+00 0. -1.
         11    1    1    2    0    0 -0.56001847677E+02 -0.34136880399E+02 -0.12840687194E+03  0.14418688674E+03  0.00000000000E+00 0.  1.
</event>
<event>
 7    1  0.2384639E-009  0.1207403E+03  0.7561462E-02  0.1241881E+00
         -1   -1    0    0    0  501 -0.00000000000E+00  0.00000000000E+00  0.10856763398E+03  0.10856763398E+03  0.00000000000E+00 0.  1.
          1   -1    0    0  501    0  0.00000000000E+00 -0.00000000000E+00 -0.28985643125E+03  0.28985643125E+03  0.00000000000E+00 0. -1.
         25    2    1    2    0    0  0.12276156166E+02 -0.57594683115E+02 -0.23808895992E+03  0.27532742193E+03  0.12510389642E+03 0.  0.
          5    1    3    3  502    0  0.25153196065E+01 -0.96662639875E+02 -0.15207124048E+03  0.18025850150E+03  0.41800000000E+01 0. -1.
         -5    1    3    3    0  502  0.97608365600E+01  0.39067956760E+02 -0.86017719438E+02  0.95068920437E+02  0.41800000000E+01 0. -1.
        -11    1    1    2    0    0  0.18346719822E+02 -0.16097765067E+02  0.30518588793E+02  0.39078439456E+02  0.00000000000E+00 0.  1.
         11    1    1    2    0    0 -0.30622875988E+02  0.73692448182E+02  0.26281573854E+02  0.84018203844E+02  0.00000000000E+00 0. -1.
</event>
<event>
 7    1  0.2384639E-009  0.9650942E+02  0.7561462E-02  0.1287812E+00
          1   -1    0    0  501    0  0.00000000000E+00  0.00000000000E+00  0.18829643873E+04  0.18829643873E+04  0.00000000000E+00 0. -1.
         -1   -1    0    0    0  501 -0.00000000000E+00 -0.00000000000E+00 -0.11209820916E+02  0.11209820916E+02  0.00000000000E+00 0.  1.
         25    2    1    2    0    0 -0.37193699902E+02  0.62003580610E+02  0.14226368076E+04  0.14299546719E+04  0.12508821745E+03 0.  0.
          5    1    3    3  502    0 -0.79324903756E+01  0.42222094656E+00  0.42633922973E+01  0.99373833561E+01  0.41800000000E+01 0.  1.
         -5    1    3    3    0  502 -0.29261209526E+02  0.61581359663E+02  0.14183734153E+04  0.14200172886E+04  0.41800000000E+01 0.  1.
        -11    1    1    2    0    0  0.66998545622E+02 -0.35360035764E+02  0.25439839169E+03  0.26543865381E+03  0.00000000000E+00 0. -1.
         11    1    1    2    0    0 -0.29804845720E+02 -0.26643544845E+02  0.19471936715E+03  0.19878088251E+03  0.00000000000E+00 0.  1.
</event>
<event>
 7    1  0.2384639E-009  0.1341174E+03  0.7561462E-02  0.1221471E+00
         -2   -1    0    0    0  501 -0.00000000000E+00  0.00000000000E+00  0.48011359415E+02  0.48011359415E+02  0.00000000000E+00 0.  1.
          2   -1    0    0  501    0  0.00000000000E+00 -0.00000000000E+00 -0.60153556147E+03  0.60153556147E+03  0.00000000000E+00 0. -1.
         25    2    1    2    0    0 -0.12727147148E+03 -0.12144211293E+02 -0.25075193720E+03  0.30800850136E+03  0.12508874283E+03 0.  0.
          5    1    3    3  502    0 -0.80494432770E+02 -0.29724023705E+02 -0.46490383815E+02  0.97681623039E+02  0.41800000000E+01 0. -1.
         -5    1    3    3    0  502 -0.46777038710E+02  0.17579812412E+02 -0.20426155338E+03  0.21032687832E+03  0.41800000000E+01 0. -1.
        -11    1    1    2    0    0  0.90644492939E+02 -0.68832603406E+01 -0.10226958406E+03  0.13683154314E+03  0.00000000000E+00 0.  1.
         11    1    1    2    0    0  0.36626978541E+02  0.19027471634E+02 -0.20050268080E+03  0.20470687639E+03  0.00000000000E+00 0. -1.
</event>
<event>
 7    1  0.2384639E-009  0.7533894E+02  0.7561462E-02  0.1342825E+00
         -2   -1    0    0    0  501 -0.00000000000E+00  0.00000000000E+00  0.10112595532E+03  0.10112595532E+03  0.00000000000E+00 0.  1.
          2   -1    0    0  501    0  0.00000000000E+00 -0.00000000000E+00 -0.12087401211E+03  0.12087401211E+03  0.00000000000E+00 0. -1.
         25    2    1    2    0    0  0.19054940817E+02 -0.61830505950E+01 -0.17226450912E+02  0.12784920849E+03  0.12508936253E+03 0.  0.
          5    1    3    3  502    0  0.64988145466E+02  0.52738556057E+01  0.19055937336E+02  0.68057870609E+02  0.41800000000E+01 0.  1.
         -5    1    3    3    0  502 -0.45933204649E+02 -0.11456906201E+02 -0.36282388248E+02  0.59791337885E+02  0.41800000000E+01 0.  1.
        -11    1    1    2    0    0 -0.42056410393E+01  0.18222079239E+02  0.41848925130E+02  0.45837366011E+02  0.00000000000E+00 0.  1.
         11    1    1    2    0    0 -0.14849299777E+02 -0.12039028644E+02 -0.44370531001E+02  0.48313392925E+02  0.00000000000E+00 0. -1.
</event>
<event>
 7    1  0.2384639E-009  0.2121108E+03  0.7561462E-02  0.1139905E+00
          2   -1    0    0  501    0  0.00000000000E+00  0.00000000000E+00  0.51367328373E+03  0.51367328373E+03  0.00000000000E+00 0. -1.
         -2   -1    0    0    0  501 -0.00000000000E+00 -0.00000000000E+00 -0.93718682422E+02  0.93718682422E+02  0.00000000000E+00 0.  1.
         25    2    1    2    0    0 -0.13398887606E+03  0.13495263233E+03  0.23482160685E+03  0.32703946156E+03  0.12509352699E+03 0.  0.
          5    1    3    3  502    0 -0.15736220010E+03  0.11310715561E+03  0.21349318789E+03  0.28836245308E+03  0.41800000000E+01 0. -1.
         -5    1    3    3    0  502  0.23373324039E+02  0.21845476725E+02  0.21328418957E+02  0.38677008482E+02  0.41800000000E+01 0. -1.
        -11    1    1    2    0    0  0.35971233125E+02 -0.65230468715E+01  0.26882755089E+01  0.36656603474E+02  0.00000000000E+00 0. -1.
         11    1    1    2    0    0  0.98017642934E+02 -0.12842958546E+03  0.18244471895E+03  0.24369590111E+03  0.00000000000E+00 0.  1.
</event>
<event>
 7    1  0.2384639E-009  0.1141230E+03  0.7561462E-02  0.1253120E+00
         -1   -1    0    0    0  501 -0.00000000000E+00  0.00000000000E+00  0.55588756977E+02  0.55588756977E+02  0.00000000000E+00 0.  1.
          1   -1    0    0  501    0  0.00000000000E+00 -0.00000000000E+00 -0.25798236187E+03  0.25798236187E+03  0.00000000000E+00 0. -1.
         25    2    1    2    0    0  0.40644066533E+02 -0.11172606224E+02 -0.14965691334E+03  0.19955372221E+03  0.12509088322E+03 0.  0.
          5    1    3    3  502    0  0.13507688981E+02 -0.67146463251E+02 -0.90828448923E+02  0.11383490116E+03  0.41800000000E+01 0. -1.
         -5    1    3    3    0  502  0.27136377551E+02  0.55973857027E+02 -0.58828464418E+02  0.85718821054E+02  0.41800000000E+01 0. -1.
        -11    1    1    2    0    0 -0.39352421773E+02 -0.34051178091E+02 -0.43536350869E+02  0.67849168570E+02  0.00000000000E+00 0.  1.
         11    1    1    2    0    0 -0.12916447598E+01  0.45223784315E+02 -0.92003406871E+01  0.46168228065E+02  0.00000000000E+00 0. -1.
</event>
<event>
 7    1  0.2384639E-009  0.1115951E+03  0.7561462E-02  0.1257644E+00
         -2   -1    0    0    0  501 -0.00000000000E+00  0.00000000000E+00  0.28275003781E+02  0.28275003781E+02  0.00000000000E+00 0.  1.
          2   -1    0    0  501    0  0.00000000000E+00 -0.00000000000E+00 -0.60814243442E+03  0.60814243442E+03  0.00000000000E+00 0. -1.
         25    2    1    2    0    0  0.11971554828E+02  0.73244551332E+02 -0.35059645137E+03  0.37956796070E+03  0.12508350274E+03 0.  0.
          5    1    3    3  502    0 -0.27923674211E+02  0.77231998028E+02 -0.11998156214E+03  0.14545638781E+03  0.41800000000E+01 0. -1.
         -5    1    3    3    0  502  0.39895229039E+02 -0.39874466965E+01 -0.23061488923E+03  0.23411157290E+03  0.41800000000E+01 0. -1.
        -11    1    1    2    0    0 -0.31902323927E+02 -0.86588481841E+01 -0.14551399695E+03  0.14922150392E+03  0.00000000000E+00 0. -1.
         11    1    1    2    0    0  0.19930769099E+02 -0.64585703148E+02 -0.83756982322E+02  0.10762797357E+03  0.00000000000E+00 0.  1.
</event>
<event>
 7    1  0.2384639E-009  0.1349243E+03  0.7561462E-02  0.1220327E+00
          2   -1    0    0  501    0  0.00000000000E+00  0.00000000000E+00  0.20691322850E+03  0.20691322850E+03  0.00000000000E+00 0. -1.
         -2   -1    0    0    0  501 -0.00000000000E+00 -0.00000000000E+00 -0.12618614054E+03  0.12618614054E+03  0.00000000000E+00 0.  1.
         25    2    1    2    0    0 -0.37198541975E+02 -0.10046974806E+03  0.94847083243E+02  0.19006099969E+03  0.12509721261E+03 0.  0.
          5    1    3    3  502    0  0.31967237889E+02 -0.60363403806E+02  0.85411388991E+02  0.10944506652E+03  0.41800000000E+01 0. -1.
         -5    1    3    3    0  502 -0.69165779864E+02 -0.40106344256E+02  0.94356942519E+01  0.80615933163E+02  0.41800000000E+01 0. -1.
        -11    1    1    2    0    0 -0.14126570341E+02  0.37771280071E+02 -0.41156083021E+02  0.57619898971E+02  0.00000000000E+00 0.  1.
         11    1    1    2    0    0  0.51325112316E+02  0.62698467990E+02  0.27036087743E+02  0.85418470386E+02  0.00000000000E+00 0. -1.
</event>
<event>
 7    1  0.2384639E-009  0.1019222E+03  0.7561462E-02  0.1276305E+00
         -1   -1    0    0    0  501 -0.00000000000E+00  0.00000000000E+00  0.32772710548E+02  0.32772710548E+02  0.00000000000E+00 0.  1.
          1   -1    0    0  501    0  0.00000000000E+00 -0.00000000000E+00 -0.48508062537E+03  0.48508062537E+03  0.00000000000E+00 0. -1.
         25    2    1    2    0    0  0.38378420278E+02  0.13837378078E+02 -0.35464264114E+03  0.37826147483E+03  0.12508382890E+03 0.  0.
          5    1    3    3  502    0  0.83700523754E+01 -0.40998700937E+02 -0.26834857207E+03  0.27162359946E+03  0.41800000000E+01 0. -1.
         -5    1    3    3    0  502  0.30008367902E+02  0.54836079014E+02 -0.86294069070E+02  0.10663787537E+03  0.41800000000E+01 0. -1.
        -11    1    1    2    0    0 -0.62547287086E+01  0.37807675109E+02 -0.30469711403E+02  0.48958607429E+02  0.00000000000E+00 0.  1.
         11    1    1    2    0    0 -0.32123691569E+02 -0.51645053186E+02 -0.67195562281E+02  0.90633253659E+02  0.00000000000E+00 0. -1.
</event>
<event>
 7    1  0.2384639E-009  0.1124871E+03  0.7561462E-02  0.1256032E+00
          3   -1    0    0  501    0  0.00000000000E+00  0.00000000000E+00  0.69693434856E+03  0.69693434856E+03  0.00000000000E+00 0. -1.
         -3   -1    0    0    0  501 -0.00000000000E+00 -0.00000000000E+00 -0.20936864269E+02  0.20936864269E+02  0.00000000000E+00 0.  1.
         25    2    1    2    0    0 -0.38426094384E+02 -0.84087675059E+01  0.26677501519E+03  0.29725949601E+03  0.12508807751E+03 0.  0.
          5    1    3    3  502    0 -0.68810481981E+02  0.32894827763E+02  0.19063633604E+03  0.20536951367E+03  0.41800000000E+01 0. -1.
         -5    1    3    3    0  502  0.30384387597E+02 -0.41303595269E+02  0.76138679149E+02  0.91889982339E+02  0.41800000000E+01 0. -1.
        -11    1    1    2    0    0  0.12098853183E+01 -0.37796401610E+02  0.15146452922E+03  0.15611385399E+03  0.00000000000E+00 0. -1.
         11    1    1    2    0    0  0.37216209066E+02  0.46205169116E+02  0.25775793988E+03  0.26449786283E+03  0.00000000000E+00 0.  1.
</event>
<event>
 7    1  0.2384639E-009  0.1332977E+03  0.7561462E-02  0.1222643E+00
         -2   -1    0    0    0  501 -0.00000000000E+00  0.00000000000E+00  0.68858645978E+02  0.68858645978E+02  0.00000000000E+00 0.  1.
          2   -1    0    0  501    0  0.00000000000E+00 -0.00000000000E+00 -0.39156974006E+03  0.39156974006E+03  0.00000000000E+00 0. -1.
         25    2    1    2    0    0  0.83428586261E+02  0.24993441897E+02 -0.29259475062E+03  0.32991513578E+03  0.12508919850E+03 0.  0.
          5    1    3    3  502    0  0.69301388976E+02  0.73295674258E+02 -0.17693453915E+03  0.20371117280E+03  0.41800000000E+01 0. -1.
         -5    1    3    3    0  502  0.14127197285E+02 -0.48302232362E+02 -0.11566021147E+03  0.12620396298E+03  0.41800000000E+01 0. -1.
        -11    1    1    2    0    0 -0.97145518668E+02 -0.27991987856E+02 -0.43762704276E+01  0.10119266240E+03  0.00000000000E+00 0.  1.
         11    1    1    2    0    0  0.13716932407E+02  0.29985459593E+01 -0.25740073032E+02  0.29320587856E+02  0.00000000000E+00 0. -1.
</event>
<event>
 7    1  0.2384639E-009  0.1138670E+03  0.7561462E-02  0.1253572E+00
         -2   -1    0    0    0  501 -0.00000000000E+00  0.00000000000E+00  0.17684614190E+02  0.17684614190E+02  0.00000000000E+00 0.  1.
          2   -1    0    0  501    0  0.00000000000E+00 -0.00000000000E+00 -0.93173994692E+03  0.93173994692E+03  0.00000000000E+00 0. -1.
         25    2    1    2    0    0  0.42004657021E+02  0.17428055984E+02 -0.69975376272E+03  0.71230026461E+03  0.12509280628E+03 0.  0.
          5    1    3    3  502    0  0.72208865570E+02 -0.25394237860E+02 -0.49526187460E+03  0.50115944011E+03  0.41800000000E+01 0.  1.
         -5    1    3    3    0  502 -0.30204208549E+02  0.42822293844E+02 -0.20449188812E+03  0.21114082450E+03  0.41800000000E+01 0.  1.
        -11    1    1    2    0    0 -0.47440675288E+02 -0.47980808754E+02 -0.17117068103E+03  0.18398961309E+03  0.00000000000E+00 0. -1.
         11    1    1    2    0    0  0.54360182673E+01  0.30552752771E+02 -0.43130888983E+02  0.53134683408E+02  0.00000000000E+00 0.  1.
</event>
<event>
 7    1  0.2384639E-009  0.1243204E+03  0.7561462E-02  0.1236135E+00
          2   -1    0    0  501    0  0.00000000000E+00  0.00000000000E+00  0.50964971959E+03  0.50964971959E+03  0.00000000000E+00 0.  1.
         -2   -1    0    0    0  501 -0.00000000000E+00 -0.00000000000E+00 -0.33079984341E+02  0.33079984341E+02  0.00000000000E+00 0. -1.
         25    2    1    2    0    0 -0.31741424010E+02 -0.55274075030E+02  0.32759394240E+03  0.35641041368E+03  0.12509136866E+03 0.  0.
          5    1    3    3  502    0 -0.73675427390E+02 -0.89350782609E+01  0.21610182178E+03  0.22852871592E+03  0.41800000000E+01 0.  1.
         -5    1    3    3    0  502  0.41934003380E+02 -0.46338996769E+02  0.11149212062E+03  0.12788169776E+03  0.41800000000E+01 0.  1.
        -11    1    1    2    0    0 -0.30187145694E+01  0.72717946586E+02  0.10263549341E+03  0.12582152797E+03  0.00000000000E+00 0.  1.
         11    1    1    2    0    0  0.34760138579E+02 -0.17443871557E+02  0.46340299446E+02  0.60497762287E+02  0.00000000000E+00 0. -1.
</event>
<event>
 7    1  0.2384639E-009  0.1191907E+03  0.7561462E-02  0.1244438E+00
         -1   -1    0    0    0  501 -0.00000000000E+00  0.00000000000E+00  0.27491412587E+02  0.27491412587E+02  0.00000000000E+00 0.  1.
          1   -1    0    0  501    0  0.00000000000E+00 -0.00000000000E+00 -0.63020063180E+03  0.63020063180E+03  0.00000000000E+00 0. -1.
         25    2    1    2    0    0 -0.14235634747E+02  0.60872427781E+02 -0.43327906344E+03  0.45528679514E+03  0.12508882144E+03 0.  0.
          5    1    3    3  502    0 -0.37874086716E+02  0.92498682616E+02 -0.31765178430E+03  0.33303240262E+03  0.41800000000E+01 0. -1.
         -5    1    3    3    0  502  0.23638451968E+02 -0.31626254835E+02 -0.11562727915E+03  0.12225439251E+03  0.41800000000E+01 0. -1.
        -11    1    1    2    0    0  0.38546681201E+02 -0.65184916229E+01 -0.25580561393E+02  0.46719401600E+02  0.00000000000E+00 0.  1.
         11    1    1    2    0    0 -0.24311046454E+02 -0.54353936158E+02 -0.14384959438E+03  0.15568584765E+03  0.00000000000E+00 0. -1.
</event>
<event>
 7    1  0.2384639E-009  0.7492818E+02  0.7561462E-02  0.1344094E+00
         -2   -1    0    0    0  501 -0.00000000000E+00  0.00000000000E+00  0.82528918883E+02  0.82528918883E+02  0.00000000000E+00 0.  1.
          2   -1    0    0  501    0  0.00000000000E+00 -0.00000000000E+00 -0.14690175179E+03  0.14690175179E+03  0.00000000000E+00 0. -1.
         25    2    1    2    0    0 -0.10752804845E+02 -0.13422668845E+02 -0.50815952917E+02  0.13610506260E+03  0.12508611491E+03 0.  0.
          5    1    3    3  502    0  0.27751989959E+02  0.38394670884E+02 -0.53212878428E+02  0.71368105829E+02  0.41800000000E+01 0. -1.
         -5    1    3    3    0  502 -0.38504794804E+02 -0.51817339729E+02  0.23969255112E+01  0.64736956766E+02  0.41800000000E+01 0. -1.
        -11    1    1    2    0    0  0.85213740477E+01 -0.10531714922E+02 -0.48804706293E+02  0.50650075925E+02  0.00000000000E+00 0. -1.
         11    1    1    2    0    0  0.22314307969E+01  0.23954383766E+02  0.35247826305E+02  0.42675532150E+02  0.00000000000E+00 0.  1.
</event>
<event>
 7    1  0.2384639E-009  0.1144489E+03  0.7561462E-02  0.1252546E+00
          1   -1    0    0  501    0  0.00000000000E+00  0.00000000000E+00  0.13327980358E+03  0.13327980358E+03  0.00000000000E+00 0. -1.
         -1   -1    0    0    0  501 -0.00000000000E+00 -0.00000000000E+00 -0.10820380533E+03  0.10820380533E+03  0.00000000000E+00 0.  1.
         25    2    1    2    0    0  0.50201119971E+02 -0.15727111143E+02  0.25781979270E+01  0.13572688019E+03  0.12509054493E+03 0.  0.
          5    1    3    3  502    0 -0.35071896788E+02  0.12509352408E+02  0.22385679937E+02  0.43647599111E+02  0.41800000000E+01 0. -1.
         -5    1    3    3    0  502  0.85273016759E+02 -0.28236463552E+02 -0.19807482010E+02  0.92079281082E+02  0.41800000000E+01 0. -1.
        -11    1    1    2    0    0  0.84408783610E+01  0.37886316483E+02  0.18340170706E+02  0.42929980966E+02  0.00000000000E+00 0. -1.
         11    1    1    2    0    0 -0.58641998332E+02 -0.22159205340E+02  0.41576296186E+01  0.62826747757E+02  0.00000000000E+00 0.  1.
</event>
<event>
 7    1  0.2384639E-009  0.1403237E+03  0.7561462E-02  0.1212894E+00
          2   -1    0    0  501    0  0.00000000000E+00  0.00000000000E+00  0.33607551930E+03  0.33607551930E+03  0.00000000000E+00 0. -1.
         -2   -1    0    0    0  501 -0.00000000000E+00 -0.00000000000E+00 -0.82588115749E+02  0.82588115749E+02  0.00000000000E+00 0.  1.
         25    2    1    2    0    0 -0.77311727559E+02  0.81148057738E+02  0.63044019186E+02  0.17940180392E+03  0.12509335874E+03 0.  0.
          5    1    3    3  502    0 -0.66609860267E+02  0.11004964679E+03  0.26484492017E+02  0.13140281185E+03  0.41800000000E+01 0.  1.
         -5    1    3    3    0  502 -0.10701867292E+02 -0.28901589053E+02  0.36559527169E+02  0.47998992074E+02  0.41800000000E+01 0.  1.
        -11    1    1    2    0    0 -0.41488573274E+01 -0.16008331331E+02 -0.53821699004E+01  0.17391016128E+02  0.00000000000E+00 0.  1.
         11    1    1    2    0    0  0.81460584886E+02 -0.65139726407E+02  0.19582555427E+03  0.22187081500E+03  0.00000000000E+00 0. -1.
</event>
<event>
 7    1  0.3142844E-009  0.1173264E+03  0.7561462E-02  0.1247574E+00
          2   -1    0    0  501    0  0.00000000000E+00  0.00000000000E+00  0.14039570264E+04  0.14039570264E+04  0.00000000000E+00 0. -1.
         -2   -1    0    0    0  501 -0.00000000000E+00 -0.00000000000E+00 -0.12177016479E+02  0.12177016479E+02  0.00000000000E+00 0.  1.
         25    2    1    2    0    0  0.50230906998E+02 -0.10588542841E+02  0.10523108212E+04  0.10609625400E+04  0.12509270886E+03 0.  0.
          5    1    3    3  502    0 -0.35430121053E+02 -0.30731574435E+02  0.37770029507E+03  0.38062410387E+03  0.41800000000E+01 0. -1.
         -5    1    3    3    0  502  0.85661028051E+02  0.20143031594E+02  0.67461052608E+03  0.68033843618E+03  0.41800000000E+01 0. -1.
        -11    1    1    2    0    0 -0.74566572376E+02  0.82264361774E+01  0.20064779308E+03  0.21421340957E+03  0.00000000000E+00 0.  1.
         11    1    1    2    0    0  0.24335665378E+02  0.23621066633E+01  0.13882139564E+03  0.14095809322E+03  0.00000000000E+00 0. -1.
</event>
<event>
 7    1  0.2384639E-009  0.8721551E+02  0.7561462E-02  0.1309738E+00
          1   -1    0    0  501    0  0.00000000000E+00  0.00000000000E+00  0.67374736536E+02  0.67374736536E+02  0.00000000000E+00 0. -1.
         -1   -1    0    0    0  501 -0.00000000000E+00 -0.00000000000E+00 -0.20857161105E+03  0.20857161105E+03  0.00000000000E+00 0.  1.
         25    2    1    2    0    0 -0.33581486763E+02 -0.25692005688E+02 -0.10306989369E+03  0.16749928175E+03  0.12507921886E+03 0.  0.
          5    1    3    3  502    0 -0.35419625873E+02  0.11958681564E+02  0.17220741102E+02  0.41371322022E+02  0.41800000000E+01 0.  1.
         -5    1    3    3    0  502  0.18381391102E+01 -0.37650687253E+02 -0.12029063479E+03  0.12612795972E+03  0.41800000000E+01 0.  1.
        -11    1    1    2    0    0  0.22266987022E+02 -0.32615911402E+02 -0.33846775987E+01  0.39636756049E+02  0.00000000000E+00 0.  1.
         11    1    1    2    0    0  0.11314499741E+02  0.58307917090E+02 -0.34742303225E+02  0.68810309789E+02  0.00000000000E+00 0. -1.
</event>
<event>
 7    1  0.2384639E-009  0.1767015E+03  0.7561462E-02  0.1171034E+00
          1   -1    0    0  501    0  0.00000000000E+00  0.00000000000E+00  0.29779648678E+03  0.29779648678E+03  0.00000000000E+00 0.  1.
         -1   -1    0    0    0  501 -0.00000000000E+00 -0.00000000000E+00 -0.13629249279E+03  0.13629249279E+03  0.00000000000E+00 0. -1.
         25    2    1    2    0    0 -0.83075032153E+02 -0.12474173758E+03  0.16848765559E+03  0.25787073227E+03  0.12508901796E+03 0.  0.
          5    1    3    3  502    0 -0.10731058716E+03 -0.13136022956E+03  0.14403150386E+03  0.22256149382E+03  0.41800000000E+01 0.  1.
         -5    1    3    3    0  502  0.24235555008E+02  0.66184919788E+01  0.24456151725E+02  0.35309238449E+02  0.41800000000E+01 0.  1.
        -11    1    1    2    0    0  0.30569574516E+02  0.10143009086E+02 -0.34497713741E+02  0.47196099126E+02  0.00000000000E+00 0. -1.
         11    1    1    2    0    0  0.52505457638E+02  0.11459872849E+03  0.27514052139E+02  0.12902214817E+03  0.00000000000E+00 0.  1.
</event>
<event>
 7    1  0.2384639E-009  0.1084889E+03  0.7561462E-02  0.1263394E+00
          2   -1    0    0  501    0  0.00000000000E+00  0.00000000000E+00  0.35966241202E+03  0.35966241202E+03  0.00000000000E+00 0. -1.
         -2   -1    0    0    0  501 -0.00000000000E+00 -0.00000000000E+00 -0.77114126658E+02  0.77114126658E+02  0.00000000000E+00 0.  1.
         25    2    1    2    0    0  0.96046199186E+02 -0.24456562086E+02  0.48775667260E+02  0.16687493225E+03  0.12508069990E+03 0.  0.
          5    1    3    3  502    0  0.78090209986E+02  0.98691227461E+01 -0.25630185479E+02  0.82884614297E+02  0.41800000000E+01 0. -1.
         -5    1    3    3    0  502  0.17955989200E+02 -0.34325684832E+02  0.74405852739E+02  0.83990317949E+02  0.41800000000E+01 0. -1.
        -11    1    1    2    0    0 -0.12482702973E+02  0.45875335971E+01 -0.64531154447E+01  0.14781949701E+02  0.00000000000E+00 0.  1.
         11    1    1    2    0    0 -0.83563496213E+02  0.19869028489E+02  0.24022573354E+03  0.25511965673E+03  0.00000000000E+00 0. -1.
</event>
<event>
 7    1  0.2384639E-009  0.1084520E+03  0.7561462E-02  0.1263464E+00
         -2   -1    0    0    0  501 -0.00000000000E+00  0.00000000000E+00  0.14733532601E+02  0.14733532601E+02  0.00000000000E+00 0. -1.
          2   -1    0    0  501    0  0.00000000000E+00 -0.00000000000E+00 -0.13460646173E+04  0.13460646173E+04  0.00000000000E+00 0.  1.
         25    2    1    2    0    0 -0.77748955082E+02  0.16274418733E+02 -0.92241088383E+03  0.93423639907E+03  0.12508418770E+03 0.  0.
          5    1    3    3  502    0 -0.16586397616E+02  0.30821308530E+02 -0.60457178100E+02  0.69982886688E+02  0.41800000000E+01 0. -1.
         -5    1    3    3    0  502 -0.61162557467E+02 -0.14546889797E+02 -0.86195370573E+03  0.86425351238E+03  0.41800000000E+01 0. -1.
        -11    1    1    2    0    0 -0.69856472592E+01 -0.31751087489E+02 -0.15675526572E+03  0.16009104958E+03  0.00000000000E+00 0. -1.
         11    1    1    2    0    0  0.84734602342E+02  0.15476668756E+02 -0.25216493519E+03  0.26647070130E+03  0.00000000000E+00 0.  1.
</event>
<event>
 7    1  0.2384639E-009  0.2229603E+03  0.7561462E-02  0.1131695E+00
         -2   -1    0    0    0  501 -0.00000000000E+00  0.00000000000E+00  0.18697966636E+03  0.18697966636E+03  0.00000000000E+00 0.  1.
          2   -1    0    0  501    0  0.00000000000E+00 -0.00000000000E+00 -0.28739214475E+03  0.28739214475E+03  0.00000000000E+00 0. -1.
         25    2    1    2    0    0 -0.16929163729E+03  0.12280217208E+03 -0.43485875510E+02  0.24754570636E+03  0.12509126046E+03 0.  0.
          5    1    3    3  502    0  0.12614843426E+02  0.41988070626E+01  0.17097718268E+02  0.22058300601E+02  0.41800000000E+01 0. -1.
         -5    1    3    3    0  502 -0.18190648071E+03  0.11860336502E+03 -0.60583593778E+02  0.22548740576E+03  0.41800000000E+01 0. -1.
        -11    1    1    2    0    0  0.11778323621E+03 -0.55958309045E+02 -0.11287466095E+02  0.13088785266E+03  0.00000000000E+00 0. -1.
         11    1    1    2    0    0  0.51508401081E+02 -0.66843863038E+02 -0.45639136791E+02  0.95938252094E+02  0.00000000000E+00 0.  1.
</event>
<event>
 7    1  0.2384639E-009  0.6306576E+02  0.7561462E-02  0.1385399E+00
         -1   -1    0    0    0  501 -0.00000000000E+00  0.00000000000E+00  0.96913631397E+02  0.96913631397E+02  0.00000000000E+00 0.  1.
          1   -1    0    0  501    0  0.00000000000E+00 -0.00000000000E+00 -0.13279715856E+03  0.13279715856E+03  0.00000000000E+00 0. -1.
         25    2    1    2    0    0  0.28600998572E+02 -0.65742659654E+01 -0.38283392011E+02  0.13406702060E+03  0.12508840800E+03 0.  0.
          5    1    3    3  502    0 -0.60858069787E+01  0.18163036375E+02  0.40167040058E+02  0.44696716255E+02  0.41800000000E+01 0. -1.
         -5    1    3    3    0  502  0.34686805551E+02 -0.24737302341E+02 -0.78450432068E+02  0.89370304342E+02  0.41800000000E+01 0. -1.
        -11    1    1    2    0    0 -0.27551218518E+02  0.29732223987E+02  0.36408784013E+02  0.54485542471E+02  0.00000000000E+00 0.  1.
         11    1    1    2    0    0 -0.10497800542E+01 -0.23157958022E+02 -0.34008919168E+02  0.41158226892E+02  0.00000000000E+00 0. -1.
</event>
<event>
 7    1  0.2384639E-009  0.1957990E+03  0.7561462E-02  0.1153333E+00
         -2   -1    0    0    0  501 -0.00000000000E+00  0.00000000000E+00  0.68319513727E+02  0.68319513727E+02  0.00000000000E+00 0.  1.
          2   -1    0    0  501    0  0.00000000000E+00 -0.00000000000E+00 -0.67352255186E+03  0.67352255186E+03  0.00000000000E+00 0. -1.
         25    2    1    2    0    0  0.41955030326E+02 -0.17046294745E+03 -0.41532918362E+03  0.46793719590E+03  0.12509615311E+03 0.  0.
          5    1    3    3  502    0 -0.26527282519E+02 -0.13488472404E+03 -0.24685660711E+03  0.28258316010E+03  0.41800000000E+01 0.  1.
         -5    1    3    3    0  502  0.68482312845E+02 -0.35578223408E+02 -0.16847257651E+03  0.18535403580E+03  0.41800000000E+01 0.  1.
        -11    1    1    2    0    0 -0.21325196364E+02  0.12564853680E+03 -0.18455665684E+03  0.22428436946E+03  0.00000000000E+00 0. -1.
         11    1    1    2    0    0 -0.20629833963E+02  0.44814410652E+02 -0.53171976762E+01  0.49620500224E+02  0.00000000000E+00 0.  1.
</event>
<event>
 7    1  0.2384639E-009  0.1086646E+03  0.7561462E-02  0.1263063E+00
          2   -1    0    0  501    0  0.00000000000E+00  0.00000000000E+00  0.95520276302E+03  0.95520276302E+03  0.00000000000E+00 0. -1.
         -2   -1    0    0    0  501 -0.00000000000E+00 -0.00000000000E+00 -0.16908302900E+02  0.16908302900E+02  0.00000000000E+00 0.  1.
         25    2    1    2    0    0 -0.51584355226E+02  0.77928239772E+01  0.68095025368E+03  0.69430721092E+03  0.12509029272E+03 0.  0.
          5    1    3    3  502    0 -0.52102457171E+02 -0.48735199728E+02  0.26323893311E+03  0.27276728917E+03  0.41800000000E+01 0.  1.
         -5    1    3    3    0  502  0.51810194446E+00  0.56528023705E+02  0.41771132057E+03  0.42153992175E+03  0.41800000000E+01 0.  1.
        -11    1    1    2    0    0  0.44636773876E+01 -0.34654035971E+02  0.17985893365E+03  0.18322134875E+03  0.00000000000E+00 0. -1.
         11    1    1    2    0    0  0.47120677839E+02  0.26861211993E+02  0.77485272795E+02  0.94582506257E+02  0.00000000000E+00 0.  1.
</event>
<event>
 7    1  0.2384639E-009  0.1399678E+03  0.7561462E-02  0.1213372E+00
         -4   -1    0    0    0  501 -0.00000000000E+00  0.00000000000E+00  0.20307496747E+03  0.20307496747E+03  0.00000000000E+00 0.  1.
          4   -1    0    0  501    0  0.00000000000E+00 -0.00000000000E+00 -0.11537959094E+03  0.11537959094E+03  0.00000000000E+00 0. -1.
         25    2    1    2    0    0  0.51798019112E+02  0.63198605068E+02 -0.17143066508E+02  0.15037962256E+03  0.12507216991E+03 0.  0.
          5    1    3    3  502    0 -0.23808287629E+02  0.68527563994E+02 -0.50065814316E+00  0.72667631345E+02  0.41800000000E+01 0.  1.
         -5    1    3    3    0  502  0.75606306741E+02 -0.53289589261E+01 -0.16642408365E+02  0.77711991214E+02  0.41800000000E+01 0.  1.
        -11    1    1    2    0    0 -0.20304902622E+02  0.28165158752E+02  0.26823948542E+02  0.43875841341E+02  0.00000000000E+00 0.  1.
         11    1    1    2    0    0 -0.31493116490E+02 -0.91363763820E+02  0.78014494496E+02  0.12419909451E+03  0.00000000000E+00 0. -1.
</event>
<event>
 7    1  0.2384639E-009  0.9147857E+02  0.7561462E-02  0.1299310E+00
          2   -1    0    0  501    0  0.00000000000E+00  0.00000000000E+00  0.51931534208E+03  0.51931534208E+03  0.00000000000E+00 0. -1.
         -2   -1    0    0    0  501 -0.00000000000E+00 -0.00000000000E+00 -0.37274903577E+02  0.37274903577E+02  0.00000000000E+00 0.  1.
         25    2    1    2    0    0 -0.87729089046E+01  0.82472861493E+02  0.30859507120E+03  0.34315803376E+03  0.12509109223E+03 0.  0.
          5    1    3    3  502    0 -0.13914798947E+02  0.15162046210E+02  0.25759296650E+03  0.25844751511E+03  0.41800000000E+01 0.  1.
         -5    1    3    3    0  502  0.51418900423E+01  0.67310815283E+02  0.51002104699E+02  0.84710518656E+02  0.41800000000E+01 0.  1.
        -11    1    1    2    0    0  0.26750553917E+02 -0.39149010957E+02  0.17429106045E+02  0.50517431955E+02  0.00000000000E+00 0.  1.
         11    1    1    2    0    0 -0.17977645012E+02 -0.43323850537E+02  0.15601626126E+03  0.16291477994E+03  0.00000000000E+00 0. -1.
</event>
<event>
 7    1  0.2384639E-009  0.1215945E+03  0.7561462E-02  0.1240490E+00
          1   -1    0    0  501    0  0.00000000000E+00  0.00000000000E+00  0.58224158692E+03  0.58224158692E+03  0.00000000000E+00 0. -1.
         -1   -1    0    0    0  501 -0.00000000000E+00 -0.00000000000E+00 -0.31711181710E+02  0.31711181710E+02  0.00000000000E+00 0.  1.
         25    2    1    2    0    0  0.77085566125E+02  0.19442527614E+02  0.32234451086E+03  0.35479097428E+03  0.12510178004E+03 0.  0.
          5    1    3    3  502    0  0.56407781011E+02  0.55301669316E+02  0.94776252000E+02  0.12345089198E+03  0.41800000000E+01 0.  1.
         -5    1    3    3    0  502  0.20677785114E+02 -0.35859141702E+02  0.22756825886E+03  0.23134008230E+03  0.41800000000E+01 0.  1.
        -11    1    1    2    0    0 -0.60335473189E+01  0.33394517811E+02  0.54346585412E+02  0.64071435593E+02  0.00000000000E+00 0. -1.
         11    1    1    2    0    0 -0.71052018807E+02 -0.52837045424E+02  0.17383930894E+03  0.19509035876E+03  0.00000000000E+00 0.  1.
</event>
<event>
 7    1  0.2619841E-009  0.2389439E+03  0.7561462E-02  0.1120498E+00
          1   -1    0    0  501    0  0.00000000000E+00  0.00000000000E+00  0.58252673732E+03  0.58252673732E+03  0.00000000000E+00 0. -1.
         -1   -1    0    0    0  501 -0.00000000000E+00 -0.00000000000E+00 -0.12229279021E+03  0.12229279021E+03  0.00000000000E+00 0.  1.
         25    2    1    2    0    0 -0.20700201358E+03  0.93116479626E+02  0.35316031972E+03  0.43805378898E+03  0.12509355784E+03 0.  0.
          5    1    3    3  502    0 -0.76080335187E+02  0.48279732097E+01  0.37468239292E+02  0.85046270248E+02  0.41800000000E+01 0.  1.
         -5    1    3    3    0  502 -0.13092167839E+03  0.88288506416E+02  0.31569208043E+03  0.35300751873E+03  0.41800000000E+01 0.  1.
        -11    1    1    2    0    0  0.95985267511E+02 -0.91406353512E+02  0.47773181295E+02  0.14089205050E+03  0.00000000000E+00 0.  1.
         11    1    1    2    0    0  0.11101674607E+03 -0.17101261138E+01  0.59300446092E+02  0.12587368806E+03  0.00000000000E+00 0. -1.
</event>
<event>
 7    1  0.2384639E-009  0.1715922E+03  0.7561462E-02  0.1176198E+00
         -1   -1    0    0    0  501 -0.00000000000E+00  0.00000000000E+00  0.72259950718E+02  0.72259950718E+02  0.00000000000E+00 0.  1.
          1   -1    0    0  501    0  0.00000000000E+00 -0.00000000000E+00 -0.53552739813E+03  0.53552739813E+03  0.00000000000E+00 0. -1.
         25    2    1    2    0    0 -0.92025911722E+02  0.13543753384E+03 -0.23034125276E+03  0.30905862292E+03  0.12509214873E+03 0.  0.
          5    1    3    3  502    0 -0.20538121652E+02  0.27181821139E+02  0.10135240163E+02  0.35789123133E+02  0.41800000000E+01 0. -1.
         -5    1    3    3    0  502 -0.71487790070E+02  0.10825571270E+03 -0.24047649293E+03  0.27326949978E+03  0.41800000000E+01 0. -1.
        -11    1    1    2    0    0  0.94130808290E+02 -0.79852416281E+02 -0.19710705505E+03  0.23256871803E+03  0.00000000000E+00 0.  1.
         11    1    1    2    0    0 -0.21048965681E+01 -0.55585117562E+02 -0.35819139596E+02  0.66160007900E+02  0.00000000000E+00 0. -1.
</event>
<event>
 7    1  0.2384639E-009  0.1065531E+03  0.7561462E-02  0.1267089E+00
         -4   -1    0    0    0  501 -0.00000000000E+00  0.00000000000E+00  0.33872549730E+03  0.33872549730E+03  0.00000000000E+00 0.  1.
          4   -1    0    0  501    0  0.00000000000E+00 -0.00000000000E+00 -0.49617061428E+02  0.49617061428E+02  0.00000000000E+00 0. -1.
         25    2    1    2    0    0  0.81853091458E+01  0.21580071593E+02  0.59952425434E+02  0.14061933410E+03  0.12508718972E+03 0.  0.
          5    1    3    3  502    0 -0.44127568150E+02  0.49082286493E+02  0.43392667387E+02  0.79099362205E+02  0.41800000000E+01 0.  1.
         -5    1    3    3    0  502  0.52312877296E+02 -0.27502214900E+02  0.16559758048E+02  0.61519971895E+02  0.41800000000E+01 0.  1.
        -11    1    1    2    0    0 -0.31547111634E+02  0.21872434809E+02  0.14666235497E+03  0.15160300136E+03  0.00000000000E+00 0.  1.
         11    1    1    2    0    0  0.23361802488E+02 -0.43452506402E+02  0.82493655469E+02  0.96120223266E+02  0.00000000000E+00 0. -1.
</event>
<event>
 7    1  0.2384639E-009  0.1455945E+03  0.7561462E-02  0.1205993E+00
          1   -1    0    0  501    0  0.00000000000E+00  0.00000000000E+00  0.67394088201E+03  0.67394088201E+03  0.00000000000E+00 0. -1.
         -1   -1    0    0    0  501 -0.00000000000E+00 -0.00000000000E+00 -0.42061197174E+02  0.42061197174E+02  0.00000000000E+00 0.  1.
         25    2    1    2    0    0 -0.23838270057E+01 -0.12333921473E+03  0.35608350211E+03  0.39706561205E+03  0.12508954900E+03 0.  0.
          5    1    3    3  502    0  0.38607898921E+01  0.21779499577E+02  0.10116044360E+03  0.10363474345E+03  0.41800000000E+01 0.  1.
         -5    1    3    3    0  502 -0.62446168979E+01 -0.14511871431E+03  0.25492305851E+03  0.29343086860E+03  0.41800000000E+01 0.  1.
        -11    1    1    2    0    0  0.44261936129E+00  0.44670546510E+02  0.15948183182E+02  0.47434145762E+02  0.00000000000E+00 0.  1.
         11    1    1    2    0    0  0.19412076444E+01  0.78668668225E+02  0.25984799954E+03  0.27150232138E+03  0.00000000000E+00 0. -1.
</event>
<event>
 7    1  0.2384639E-009  0.1463898E+03  0.7561462E-02  0.1204981E+00
          3   -1    0    0  501    0  0.00000000000E+00  0.00000000000E+00  0.33797889762E+03  0.33797889762E+03  0.00000000000E+00 0. -1.
         -3   -1    0    0    0  501 -0.00000000000E+00 -0.00000000000E+00 -0.65390094176E+02  0.65390094176E+02  0.00000000000E+00 0.  1.
         25    2    1    2    0    0 -0.95784713206E+02 -0.12981437648E+02  0.17771947866E+03  0.23785511297E+03  0.12509041794E+03 0.  0.
          5    1    3    3  502    0 -0.32453766039E+02  0.55666102838E+02  0.74542592825E+02  0.98620649361E+02  0.41800000000E+01 0.  1.
         -5    1    3    3    0  502 -0.63330947166E+02 -0.68647540486E+02  0.10317688584E+03  0.13923446360E+03  0.41800000000E+01 0.  1.
        -11    1    1    2    0    0  0.56788749467E+02 -0.39614786594E+02  0.39173167328E+02  0.79553946612E+02  0.00000000000E+00 0.  1.
         11    1    1    2    0    0  0.38995963738E+02  0.52596224242E+02  0.55696157454E+02  0.85959932222E+02  0.00000000000E+00 0. -1.
</event>
<event>
 7    1  0.2384639E-009  0.1427838E+03  0.7561462E-02  0.1209631E+00
         -1   -1    0    0    0  501 -0.00000000000E+00  0.00000000000E+00  0.49070680696E+02  0.49070680696E+02  0.00000000000E+00 0.  1.
          1   -1    0    0  501    0  0.00000000000E+00 -0.00000000000E+00 -0.51872685792E+03  0.51872685792E+03  0.00000000000E+00 0. -1.
         25    2    1    2    0    0  0.92534940813E+02  0.35344500528E+02 -0.35966457222E+03  0.39346941228E+03  0.12509046687E+03 0.  0.
          5    1    3    3  502    0  0.64188858824E+02 -0.41898261858E+02 -0.18756610909E+03  0.20266768766E+03  0.41800000000E+01 0.  1.
         -5    1    3    3    0  502  0.28346081989E+02  0.77242762386E+02 -0.17209846313E+03  0.19080172462E+03  0.41800000000E+01 0.  1.
        -11    1    1    2    0    0 -0.52441715560E+02  0.21646834135E+02 -0.80916808944E+02  0.98824333687E+02  0.00000000000E+00 0. -1.
         11    1    1    2    0    0 -0.40093225253E+02 -0.56991334663E+02 -0.29074796054E+02  0.75503792643E+02  0.00000000000E+00 0.  1.
</event>
<event>
 7    1  0.2384639E-009  0.1850841E+03  0.7561462E-02  0.1162971E+00
         -1   -1    0    0    0  501 -0.00000000000E+00  0.00000000000E+00  0.10732487716E+03  0.10732487716E+03  0.00000000000E+00 0.  1.
          1   -1    0    0  501    0  0.00000000000E+00 -0.00000000000E+00 -0.39539235539E+03  0.39539235539E+03  0.00000000000E+00 0. -1.
         25    2    1    2    0    0  0.32049278333E+02  0.17011428590E+03 -0.17547392327E+03  0.27641396710E+03  0.12509019527E+03 0.  0.
          5    1    3    3  502    0  0.45310771024E+02  0.17534852550E+03 -0.11600165648E+03  0.21511398855E+03  0.41800000000E+01 0.  1.
         -5    1    3    3    0  502 -0.13261492690E+02 -0.52342396000E+01 -0.59472266795E+02  0.61299978551E+02  0.41800000000E+01 0.  1.
        -11    1    1    2    0    0 -0.18348998147E+02 -0.49981098133E+02  0.99342157780E+01  0.54161651993E+02  0.00000000000E+00 0.  1.
         11    1    1    2    0    0 -0.13700280186E+02 -0.12013318776E+03 -0.12252777074E+03  0.17214161345E+03  0.00000000000E+00 0. -1.
</event>
<event>
 7    1  0.2384639E-009  0.3697396E+03  0.7561462E-02  0.1054793E+00
          2   -1    0    0  501    0  0.00000000000E+00  0.00000000000E+00  0.35979074014E+03  0.35979074014E+03  0.00000000000E+00 0. -1.
         -2   -1    0    0    0  501 -0.00000000000E+00 -0.00000000000E+00 -0.40675337951E+03  0.40675337951E+03  0.00000000000E+00 0.  1.
         25    2    1    2    0    0 -0.22781221064E+03  0.28223186681E+03 -0.78121403988E+02  0.39153912930E+03  0.12508679406E+03 0.  0.
          5    1    3    3  502    0 -0.12325412334E+02  0.37919693923E+02  0.27997981982E+02  0.48899676599E+02  0.41800000000E+01 0.  1.
         -5    1    3    3    0  502 -0.21548679831E+03  0.24431217289E+03 -0.10611938597E+03  0.34263945270E+03  0.41800000000E+01 0.  1.
        -11    1    1    2    0    0  0.22236298196E+03 -0.22582367296E+03  0.23128500621E+02  0.31776808298E+03  0.00000000000E+00 0. -1.
         11    1    1    2    0    0  0.54492286822E+01 -0.56408193850E+02  0.80302639953E+01  0.57236907381E+02  0.00000000000E+00 0.  1.
</event>
<event>
 7    1  0.2384639E-009  0.8219954E+02  0.7561462E-02  0.1322923E+00
         -2   -1    0    0    0  501 -0.00000000000E+00  0.00000000000E+00  0.38388125923E+03  0.38388125923E+03  0.00000000000E+00 0.  1.
          2   -1    0    0  501    0  0.00000000000E+00 -0.00000000000E+00 -0.56799314979E+02  0.56799314979E+02  0.00000000000E+00 0. -1.
         25    2    1    2    0    0  0.99823063153E+01 -0.77316887156E+02  0.28075320306E+03  0.31709809605E+03  0.12510513182E+03 0.  0.
          5    1    3    3  502    0  0.12123364238E+02 -0.38864277251E+02  0.81157082747E+01  0.41722237805E+02  0.41800000000E+01 0.  1.
         -5    1    3    3    0  502 -0.21410579222E+01 -0.38452609905E+02  0.27263749479E+03  0.27537585824E+03  0.41800000000E+01 0.  1.
        -11    1    1    2    0    0 -0.20619264081E+02  0.66253927988E+02  0.67916938152E+02  0.97095043710E+02  0.00000000000E+00 0.  1.
         11    1    1    2    0    0  0.10636957766E+02  0.11062959168E+02 -0.21588196961E+02  0.26487434456E+02  0.00000000000E+00 0. -1.
</event>
<event>
 7    1  0.2384639E-009  0.6836632E+02  0.7561462E-02  0.1365738E+00
         -2   -1    0    0    0  501 -0.00000000000E+00  0.00000000000E+00  0.28217808013E+02  0.28217808013E+02  0.00000000000E+00 0.  1.
          2   -1    0    0  501    0  0.00000000000E+00 -0.00000000000E+00 -0.36812760525E+03  0.36812760525E+03  0.00000000000E+00 0. -1.
         25    2    1    2    0    0 -0.92707760379E+01  0.10698958537E+02 -0.21072768857E+03  0.24546751298E+03  0.12509087175E+03 0.  0.
          5    1    3    3  502    0 -0.48958255672E+02  0.31143414660E+02 -0.44345560097E+02  0.73149327922E+02  0.41800000000E+01 0.  1.
         -5    1    3    3    0  502  0.39687479634E+02 -0.20444456123E+02 -0.16638212848E+03  0.17231818506E+03  0.41800000000E+01 0.  1.
        -11    1    1    2    0    0  0.94119616965E+01 -0.21211229840E+02 -0.13624850498E+03  0.13821055098E+03  0.00000000000E+00 0. -1.
         11    1    1    2    0    0 -0.14118565852E+00  0.10512271303E+02  0.70663963156E+01  0.12667349298E+02  0.00000000000E+00 0.  1.
</event>
<event>
 7    1  0.2384639E-009  0.8077949E+02  0.7561462E-02  0.1326854E+00
         -1   -1    0    0    0  501 -0.00000000000E+00  0.00000000000E+00  0.29926998309E+02  0.29926998309E+02  0.00000000000E+00 0.  1.
          1   -1    0    0  501    0  0.00000000000E+00 -0.00000000000E+00 -0.55298642478E+03  0.55298642478E+03  0.00000000000E+00 0. -1.
         25    2    1    2    0    0 -0.46039559382E+02 -0.21092839716E+02 -0.40252363144E+03  0.42454388597E+03  0.12509072042E+03 0.  0.
          5    1    3    3  502    0 -0.69084579883E+01 -0.17933587020E+02  0.41871910608E+00  0.19672012121E+02  0.41800000000E+01 0.  1.
         -5    1    3    3    0  502 -0.39131101394E+02 -0.31592526956E+01 -0.40294235055E+03  0.40487187385E+03  0.41800000000E+01 0.  1.
        -11    1    1    2    0    0  0.70271291622E+01 -0.34103322415E+02 -0.35254563328E+02  0.49550997765E+02  0.00000000000E+00 0.  1.
         11    1    1    2    0    0  0.39012430220E+02  0.55196162131E+02 -0.85281231703E+02  0.10881853935E+03  0.00000000000E+00 0. -1.
</event>
<event>
 7    1  0.2384639E-009  0.1431876E+03  0.7561462E-02  0.1209103E+00
          1   -1    0    0  501    0  0.00000000000E+00  0.00000000000E+00  0.40277882627E+03  0.40277882627E+03  0.00000000000E+00 0. -1.
         -1   -1    0    0    0  501 -0.00000000000E+00 -0.00000000000E+00 -0.65142738980E+02  0.65142738980E+02  0.00000000000E+00 0.  1.
         25    2    1    2    0    0 -0.10036850539E+03 -0.17041381194E+02  0.28635164211E+03  0.32864767287E+03  0.12509110439E+03 0.  0.
          5    1    3    3  502    0  0.27205984632E+02  0.12286038049E+02  0.59667429126E+02  0.66848985252E+02  0.41800000000E+01 0. -1.
         -5    1    3    3    0  502 -0.12757449002E+03 -0.29327419243E+02  0.22668421298E+03  0.26179868762E+03  0.41800000000E+01 0. -1.
        -11    1    1    2    0    0  0.43690539938E+02  0.44431986539E+02  0.78790056456E+01  0.62810376832E+02  0.00000000000E+00 0. -1.
         11    1    1    2    0    0  0.56677965449E+02 -0.27390605345E+02  0.43405439537E+02  0.76463515548E+02  0.00000000000E+00 0.  1.
</event>
<event>
 7    1  0.2384639E-009  0.1086203E+03  0.7561462E-02  0.1263146E+00
          2   -1    0    0  501    0  0.00000000000E+00  0.00000000000E+00  0.82977894747E+03  0.82977894747E+03  0.00000000000E+00 0. -1.
         -2   -1    0    0    0  501 -0.00000000000E+00 -0.00000000000E+00 -0.16819970285E+02  0.16819970285E+02  0.00000000000E+00 0.  1.
         25    2    1    2    0    0  0.46644868953E+02  0.56375505962E+00  0.49788623482E+03  0.51547516286E+03  0.12509148284E+03 0.  0.
          5    1    3    3  502    0  0.50228918508E+02 -0.47732773472E+02  0.16425601590E+03  0.17832238524E+03  0.41800000000E+01 0.  1.
         -5    1    3    3    0  502 -0.35840495556E+01  0.48296528532E+02  0.33363021892E+03  0.33715277762E+03  0.41800000000E+01 0.  1.
        -11    1    1    2    0    0 -0.18701479516E+01  0.39251830697E+02  0.16307165116E+03  0.16773958113E+03  0.00000000000E+00 0.  1.
         11    1    1    2    0    0 -0.44774721001E+02 -0.39815585756E+02  0.15200109121E+03  0.16338417377E+03  0.00000000000E+00 0. -1.
</event>
<event>
 7    1  0.2384639E-009  0.1413231E+03  0.7561462E-02  0.1211560E+00
          1   -1    0    0  501    0  0.00000000000E+00  0.00000000000E+00  0.12969712821E+03  0.12969712821E+03  0.00000000000E+00 0. -1.
         -1   -1    0    0    0  501 -0.00000000000E+00 -0.00000000000E+00 -0.20176889926E+03  0.20176889926E+03  0.00000000000E+00 0.  1.
         25    2    1    2    0    0  0.73805436303E+02  0.74547309880E+02 -0.99589435226E+02  0.19123184595E+03  0.12508804683E+03 0.  0.
          5    1    3    3  502    0 -0.21792950057E+01  0.84535163157E+02 -0.37905221267E+02  0.92764332240E+02  0.41800000000E+01 0. -1.
         -5    1    3    3    0  502  0.75984731308E+02 -0.99878532770E+01 -0.61684213960E+02  0.98467513714E+02  0.41800000000E+01 0. -1.
        -11    1    1    2    0    0 -0.84675683511E+02 -0.64776329905E+02 -0.27235962599E+01  0.10664596697E+03  0.00000000000E+00 0.  1.
         11    1    1    2    0    0  0.10870247208E+02 -0.97709799755E+01  0.30241260430E+02  0.33588214546E+02  0.00000000000E+00 0. -1.
</event>
<event>
 7    1  0.2384639E-009  0.1231514E+03  0.7561462E-02  0.1237987E+00
          2   -1    0    0  501    0  0.00000000000E+00  0.00000000000E+00  0.78355638736E+02  0.78355638736E+02  0.00000000000E+00 0. -1.
         -2   -1    0    0    0  501 -0.00000000000E+00 -0.00000000000E+00 -0.25377835536E+03  0.25377835536E+03  0.00000000000E+00 0.  1.
         25    2    1    2    0    0  0.54094616378E+02  0.68946775142E+02 -0.67594317450E+02  0.16702267704E+03  0.12509075733E+03 0.  0.
          5    1    3    3  502    0  0.49340532181E+02 -0.26767470858E+02 -0.18399101763E+02  0.59219802075E+02  0.41800000000E+01 0. -1.
         -5    1    3    3    0  502  0.47540841971E+01  0.95714246000E+02 -0.49195215686E+02  0.10780287496E+03  0.41800000000E+01 0. -1.
        -11    1    1    2    0    0 -0.48958530747E+02 -0.36060452718E+02 -0.98049259697E+01  0.61590831756E+02  0.00000000000E+00 0. -1.
         11    1    1    2    0    0 -0.51360856312E+01 -0.32886322424E+02 -0.98023473209E+02  0.10352048531E+03  0.00000000000E+00 0.  1.
</event>
<event>
 7    1  0.2384639E-009  0.1053067E+03  0.7561462E-02  0.1269516E+00
         -1   -1    0    0    0  501 -0.00000000000E+00  0.00000000000E+00  0.19027421854E+02  0.19027421854E+02  0.00000000000E+00 0.  1.
          1   -1    0    0  501    0  0.00000000000E+00 -0.00000000000E+00 -0.64990405254E+03  0.64990405254E+03  0.00000000000E+00 0. -1.
         25    2    1    2    0    0 -0.12210766151E+02 -0.63425870271E+01 -0.44667915527E+03  0.46406735796E+03  0.12508762428E+03 0.  0.
          5    1    3    3  502    0 -0.49748844245E+02 -0.47946586373E+02 -0.22728443032E+03  0.23759105058E+03  0.41800000000E+01 0. -1.
         -5    1    3    3    0  502  0.37538078094E+02  0.41603999346E+02 -0.21939472495E+03  0.22647630738E+03  0.41800000000E+01 0. -1.
        -11    1    1    2    0    0  0.18238488552E+02  0.43704731824E+02 -0.69637041313E+02  0.84214390524E+02  0.00000000000E+00 0.  1.
         11    1    1    2    0    0 -0.60277224017E+01 -0.37362144797E+02 -0.11456043411E+03  0.12064972592E+03  0.00000000000E+00 0. -1.
</event>
<event>
 7    1  0.2384639E-009  0.1369187E+03  0.7561462E-02  0.1217536E+00
          2   -1    0    0  501    0  0.00000000000E+00  0.00000000000E+00  0.59190543686E+02  0.59190543686E+02  0.00000000000E+00 0. -1.
         -2   -1    0    0    0  501 -0.00000000000E+00 -0.00000000000E+00 -0.42956465512E+03  0.42956465512E+03  0.00000000000E+00 0.  1.
         25    2    1    2    0    0  0.95662932656E+02 -0.36804684586E+02 -0.11194597918E+03  0.19668410820E+03  0.12508698842E+03 0.  0.
          5    1    3    3  502    0 -0.88653238029E+01  0.23996622213E+02  0.71683972037E+01  0.26894054403E+02  0.41800000000E+01 0. -1.
         -5    1    3    3    0  502  0.10452825646E+03 -0.60801306799E+02 -0.11911437638E+03  0.16979005379E+03  0.41800000000E+01 0. -1.
        -11    1    1    2    0    0 -0.57627687290E+02 -0.17852506825E+02 -0.17631815492E+03  0.18635384111E+03  0.00000000000E+00 0.  1.
         11    1    1    2    0    0 -0.38035245366E+02  0.54657191411E+02 -0.82109977335E+02  0.10571724950E+03  0.00000000000E+00 0. -1.
</event>
<event>
 7    1  0.2384639E-009  0.1655309E+03  0.7561462E-02  0.1182590E+00
         -2   -1    0    0    0  501 -0.00000000000E+00  0.00000000000E+00  0.26337777729E+03  0.26337777729E+03  0.00000000000E+00 0.  1.
          2   -1    0    0  501    0  0.00000000000E+00 -0.00000000000E+00 -0.14435103676E+03  0.14435103676E+03  0.00000000000E+00 0. -1.
         25    2    1    2    0    0  0.12485722548E+03  0.72049208794E+02  0.13794254290E+03  0.23549068050E+03  0.12508916906E+03 0.  0.
          5    1    3    3  502    0 -0.16050052633E+02 -0.14039781924E+02  0.24817900164E+01  0.21871244768E+02  0.41800000000E+01 0. -1.
         -5    1    3    3    0  502  0.14090727811E+03  0.86088990718E+02  0.13546075289E+03  0.21361943573E+03  0.41800000000E+01 0. -1.
        -11    1    1    2    0    0 -0.35321673667E+02 -0.20455696896E+02 -0.49794927168E+02  0.64386263580E+02  0.00000000000E+00 0. -1.
         11    1    1    2    0    0 -0.89535551814E+02 -0.51593511898E+02  0.30879124802E+02  0.10785186998E+03  0.00000000000E+00 0.  1.
</event>
<event>
 7    1  0.2384639E-009  0.1765250E+03  0.7561462E-02  0.1171209E+00
          1   -1    0    0  501    0  0.00000000000E+00  0.00000000000E+00  0.15024502853E+03  0.15024502853E+03  0.00000000000E+00 0. -1.
         -1   -1    0    0    0  501 -0.00000000000E+00 -0.00000000000E+00 -0.38394623584E+03  0.38394623584E+03  0.00000000000E+00 0.  1.
         25    2    1    2    0    0  0.12059013852E+03 -0.10235902351E+03  0.39720958148E+02  0.20553574897E+03  0.12509132019E+03 0.  0.
          5    1    3    3  502    0  0.80923013714E+02 -0.24568141690E+02  0.73195886432E+02  0.11192514429E+03  0.41800000000E+01 0.  1.
         -5    1    3    3    0  502  0.39667124802E+02 -0.77790881815E+02 -0.33474928284E+02  0.93610604673E+02  0.41800000000E+01 0.  1.
        -11    1    1    2    0    0 -0.59150145352E+02 -0.27421708238E+01 -0.71082933796E+02  0.92515094298E+02  0.00000000000E+00 0. -1.
         11    1    1    2    0    0 -0.61439993165E+02  0.10510119433E+03 -0.20233923166E+03  0.23614042110E+03  0.00000000000E+00 0.  1.
</event>
<event>
 7    1  0.2384639E-009  0.1100229E+03  0.7561462E-02  0.1260527E+00
          1   -1    0    0  501    0  0.00000000000E+00  0.00000000000E+00  0.53346957260E+03  0.53346957260E+03  0.00000000000E+00 0. -1.
         -1   -1    0    0    0  501 -0.00000000000E+00 -0.00000000000E+00 -0.41990262716E+02  0.41990262716E+02  0.00000000000E+00 0.  1.
         25    2    1    2    0    0 -0.40484984493E+02  0.33915993620E+02  0.43322558296E+03  0.45400532458E+03  0.12508837045E+03 0.  0.
          5    1    3    3  502    0 -0.34716970231E+02 -0.32132014149E+02  0.31357112714E+03  0.31714674605E+03  0.41800000000E+01 0. -1.
         -5    1    3    3    0  502 -0.57680142614E+01  0.66048007769E+02  0.11965445582E+03  0.13685857852E+03  0.41800000000E+01 0. -1.
        -11    1    1    2    0    0  0.68085444777E+02 -0.38393519968E+02  0.37890637058E+02  0.86864207489E+02  0.00000000000E+00 0.  1.
         11    1    1    2    0    0 -0.27600460284E+02  0.44775263473E+01  0.20363089870E+02  0.34590303253E+02  0.00000000000E+00 0. -1.
</event>
<event>
 7    1  0.2384639E-009  0.1279165E+03  0.7561462E-02  0.1230580E+00
         -2   -1    0    0    0  501 -0.00000000000E+00  0.00000000000E+00  0.63714566313E+02  0.63714566313E+02  0.00000000000E+00 0.  1.
          2   -1    0    0  501    0  0.00000000000E+00 -0.00000000000E+00 -0.30480584915E+03  0.30480584915E+03  0.00000000000E+00 0. -1.
         25    2    1    2    0    0 -0.26831483207E+02 -0.80681457216E+02 -0.16072538618E+03  0.22070257530E+03  0.12509017128E+03 0.  0.
          5    1    3    3  502    0 -0.57886252421E+02 -0.94243053733E+02 -0.91847267956E+02  0.14382616044E+03  0.41800000000E+01 0.  1.
         -5    1    3    3    0  502  0.31054769214E+02  0.13561596516E+02 -0.68878118224E+02  0.76876414856E+02  0.41800000000E+01 0.  1.
        -11    1    1    2    0    0  0.47036835434E+02  0.77353306745E+02 -0.33250519222E+02  0.96444776845E+02  0.00000000000E+00 0.  1.
         11    1    1    2    0    0 -0.20205352227E+02  0.33281504709E+01 -0.47115377432E+02  0.51373063319E+02  0.00000000000E+00 0. -1.
</event>
<event>
 7    1  0.2384639E-009  0.8079541E+02  0.7561462E-02  0.1326809E+00
         -2   -1    0    0    0  501 -0.00000000000E+00  0.00000000000E+00  0.38917054429E+03  0.38917054429E+03  0.00000000000E+00 0.  1.
          2   -1    0    0  501    0  0.00000000000E+00 -0.00000000000E+00 -0.51125139958E+02  0.51125139958E+02  0.00000000000E+00 0. -1.
         25    2    1    2    0    0 -0.16853874815E+02  0.48199651998E+02  0.67938864606E+02  0.15122990627E+03  0.12509011023E+03 0.  0.
          5    1    3    3  502    0 -0.34796207366E+02  0.32691672246E+02 -0.25811938296E+02  0.54435742301E+02  0.41800000000E+01 0.  1.
         -5    1    3    3    0  502  0.17942332551E+02  0.15507979752E+02  0.93750802903E+02  0.96794163968E+02  0.41800000000E+01 0.  1.
        -11    1    1    2    0    0 -0.29313689425E+02 -0.17502795100E+02  0.18045544211E+03  0.18365676359E+03  0.00000000000E+00 0.  1.
         11    1    1    2    0    0  0.46167564239E+02 -0.30696856898E+02  0.89651097614E+02  0.10540901439E+03  0.00000000000E+00 0. -1.
</event>
<event>
 7    1  0.2384639E-009  0.1138136E+03  0.7561462E-02  0.1253666E+00
         -2   -1    0    0    0  501 -0.00000000000E+00  0.00000000000E+00  0.18185728655E+03  0.18185728655E+03  0.00000000000E+00 0.  1.
          2   -1    0    0  501    0  0.00000000000E+00 -0.00000000000E+00 -0.13689897676E+03  0.13689897676E+03  0.00000000000E+00 0. -1.
         25    2    1    2    0    0 -0.73135271233E+02 -0.30070695796E+02 -0.59340492776E+02  0.15943778056E+03  0.12508436010E+03 0.  0.
          5    1    3    3  502    0  0.35589775571E+02 -0.36817650392E+01 -0.14235443960E+02  0.38733806729E+02  0.41800000000E+01 0. -1.
         -5    1    3    3    0  502 -0.10872504680E+03 -0.26388930756E+02 -0.45105048816E+02  0.12070397383E+03  0.41800000000E+01 0. -1.
        -11    1    1    2    0    0  0.18669446016E+02  0.33144091576E+01  0.96254836440E+02  0.98104674001E+02  0.00000000000E+00 0.  1.
         11    1    1    2    0    0  0.54465825217E+02  0.26756286638E+02  0.80439661321E+01  0.61213808756E+02  0.00000000000E+00 0. -1.
</event>
<event>
 7    1  0.2384639E-009  0.9138934E+02  0.7561462E-02  0.1299522E+00
          3   -1    0    0  501    0  0.00000000000E+00  0.00000000000E+00  0.35057029791E+03  0.35057029791E+03  0.00000000000E+00 0. -1.
         -3   -1    0    0    0  501 -0.00000000000E+00 -0.00000000000E+00 -0.35686747428E+02  0.35686747428E+02  0.00000000000E+00 0.  1.
         25    2    1    2    0    0  0.17675785086E+02  0.18402056484E+02  0.17862174562E+03  0.21955951564E+03  0.12509829670E+03 0.  0.
          5    1    3    3  502    0 -0.10691972784E+02  0.46310667489E+02  0.17262702381E+03  0.17909929636E+03  0.41800000000E+01 0. -1.
         -5    1    3    3    0  502  0.28367757870E+02 -0.27908611005E+02  0.59947218085E+01  0.40460219282E+02  0.41800000000E+01 0. -1.
        -11    1    1    2    0    0 -0.14874256335E+01  0.37155198146E+02  0.42051763611E+02  0.56134410187E+02  0.00000000000E+00 0.  1.
         11    1    1    2    0    0 -0.16188359453E+02 -0.55557254630E+02  0.94210041256E+02  0.11056311952E+03  0.00000000000E+00 0. -1.
</event>
<event>
 7    1  0.2384639E-009  0.1005053E+03  0.7561462E-02  0.1279237E+00
         -1   -1    0    0    0  501 -0.00000000000E+00  0.00000000000E+00  0.18186347906E+02  0.18186347906E+02  0.00000000000E+00 0.  1.
          1   -1    0    0  501    0  0.00000000000E+00 -0.00000000000E+00 -0.10162004617E+04  0.10162004617E+04  0.00000000000E+00 0. -1.
         25    2    1    2    0    0 -0.28979977668E+02  0.36161720896E+02 -0.80649244991E+03  0.81745029501E+03  0.12508958341E+03 0.  0.
          5    1    3    3  502    0 -0.15825168907E+02  0.82514912488E+02 -0.55652357874E+03  0.56284554973E+03  0.41800000000E+01 0.  1.
         -5    1    3    3    0  502 -0.13154808761E+02 -0.46353191592E+02 -0.24996887117E+03  0.25460474528E+03  0.41800000000E+01 0.  1.
        -11    1    1    2    0    0 -0.33258137137E+00  0.12074496668E+02  0.45457733131E+01  0.12906127815E+02  0.00000000000E+00 0.  1.
         11    1    1    2    0    0  0.29312559039E+02 -0.48236217564E+02 -0.19606743718E+03  0.20403038676E+03  0.00000000000E+00 0. -1.
</event>
<event>
 7    1  0.2384639E-009  0.1318516E+03  0.7561462E-02  0.1224734E+00
         -3   -1    0    0    0  501 -0.00000000000E+00  0.00000000000E+00  0.15396910028E+03  0.15396910028E+03  0.00000000000E+00 0.  1.
          3   -1    0    0  501    0  0.00000000000E+00 -0.00000000000E+00 -0.13417975629E+03  0.13417975629E+03  0.00000000000E+00 0. -1.
         25    2    1    2    0    0  0.80864167094E+01 -0.94377858174E+02 -0.39588803211E+01  0.15695756432E+03  0.12508970388E+03 0.  0.
          5    1    3    3  502    0 -0.34562450901E+02 -0.10089750098E+03 -0.23689040223E+02  0.10933211671E+03  0.41800000000E+01 0.  1.
         -5    1    3    3    0  502  0.42648867611E+02  0.65196428086E+01  0.19730159902E+02  0.47625447616E+02  0.41800000000E+01 0.  1.
        -11    1    1    2    0    0  0.27310867261E+02  0.48686270469E+02  0.42790267384E+02  0.70336643263E+02  0.00000000000E+00 0.  1.
         11    1    1    2    0    0 -0.35397283970E+02  0.45691587705E+02 -0.19042043073E+02  0.60854648991E+02  0.00000000000E+00 0. -1.
</event>
<event>
 7    1  0.2384639E-009  0.2590916E+03  0.7561462E-02  0.1107690E+00
         -2   -1    0    0    0  501 -0.00000000000E+00  0.00000000000E+00  0.45804420210E+02  0.45804420210E+02  0.00000000000E+00 0. -1.
          2   -1    0    0  501    0  0.00000000000E+00 -0.00000000000E+00 -0.17712075482E+04  0.17712075482E+04  0.00000000000E+00 0.  1.
         25    2    1    2    0    0  0.20443181481E+03  0.12052668416E+03 -0.12499922549E+04  0.12784543831E+04  0.12508366698E+03 0.  0.
          5    1    3    3  502    0  0.60958343368E+02  0.10582935081E+03 -0.50069623463E+03  0.51539301789E+03  0.41800000000E+01 0.  1.
         -5    1    3    3    0  502  0.14347347144E+03  0.14697333353E+02 -0.74929602029E+03  0.76306136518E+03  0.41800000000E+01 0.  1.
        -11    1    1    2    0    0 -0.12917984970E+03 -0.27554072065E+02 -0.27702884338E+03  0.30690656644E+03  0.00000000000E+00 0.  1.
         11    1    1    2    0    0 -0.75251965106E+02 -0.92972612095E+02 -0.19838202967E+03  0.23165101888E+03  0.00000000000E+00 0. -1.
</event>
<event>
 7    1  0.2384639E-009  0.1307705E+03  0.7561462E-02  0.1226317E+00
          1   -1    0    0  501    0  0.00000000000E+00  0.00000000000E+00  0.47529702689E+03  0.47529702689E+03  0.00000000000E+00 0. -1.
         -1   -1    0    0    0  501 -0.00000000000E+00 -0.00000000000E+00 -0.52934818689E+02  0.52934818689E+02  0.00000000000E+00 0.  1.
         25    2    1    2    0    0  0.18660271105E+02  0.92123990574E+02  0.33708028443E+03  0.37162622732E+03  0.12509156376E+03 0.  0.
          5    1    3    3  502    0 -0.26741418673E+02 -0.57490321236E+00  0.18984109947E+03  0.19176169960E+03  0.41800000000E+01 0. -1.
         -5    1    3    3    0  502  0.45401689778E+02  0.92698893786E+02  0.14723918496E+03  0.17986452772E+03  0.41800000000E+01 0. -1.
        -11    1    1    2    0    0 -0.21030169181E+02  0.13838675554E+02  0.19707992936E+02  0.31971580230E+02  0.00000000000E+00 0. -1.
         11    1    1    2    0    0  0.23698980757E+01 -0.10596266613E+03  0.65573930836E+02  0.12463403803E+03  0.00000000000E+00 0.  1.
</event>
<event>
 7    1  0.2384639E-009  0.1442741E+03  0.7561462E-02  0.1207691E+00
         -1   -1    0    0    0  501 -0.00000000000E+00  0.00000000000E+00  0.48948162973E+03  0.48948162973E+03  0.00000000000E+00 0.  1.
          1   -1    0    0  501    0  0.00000000000E+00 -0.00000000000E+00 -0.67262672652E+02  0.67262672652E+02  0.00000000000E+00 0. -1.
         25    2    1    2    0    0  0.80881734253E+02 -0.58850146989E+02  0.58629780208E+02  0.17055784635E+03  0.12508930045E+03 0.  0.
          5    1    3    3  502    0 -0.13532842596E+02 -0.63943376972E+02  0.25508765516E+02  0.70285580352E+02  0.41800000000E+01 0.  1.
         -5    1    3    3    0  502  0.94414576849E+02  0.50932299825E+01  0.33121014692E+02  0.10027226599E+03  0.41800000000E+01 0.  1.
        -11    1    1    2    0    0  0.13410616710E+02 -0.52414783469E+01  0.64880374372E+02  0.66458864830E+02  0.00000000000E+00 0.  1.
         11    1    1    2    0    0 -0.94292350963E+02  0.64091625336E+02  0.29870880250E+03  0.31972759120E+03  0.00000000000E+00 0. -1.
</event>
<event>
 7    1  0.2384639E-009  0.9725552E+02  0.7561462E-02  0.1286175E+00
         -1   -1    0    0    0  501 -0.00000000000E+00  0.00000000000E+00  0.12076402803E+03  0.12076402803E+03  0.00000000000E+00 0.  1.
          1   -1    0    0  501    0  0.00000000000E+00 -0.00000000000E+00 -0.10531963717E+03  0.10531963717E+03  0.00000000000E+00 0. -1.
         25    2    1    2    0    0 -0.18537058855E+02 -0.43857565083E+01 -0.17467147581E+02  0.12773049260E+03  0.12508844904E+03 0.  0.
          5    1    3    3  502    0 -0.26162021831E+02  0.53469441719E+02  0.14009038964E+02  0.61295661810E+02  0.41800000000E+01 0. -1.
         -5    1    3    3    0  502  0.76249629766E+01 -0.57855198227E+02 -0.31476186545E+02  0.66434830787E+02  0.41800000000E+01 0. -1.
        -11    1    1    2    0    0  0.78185151412E+01 -0.34820609726E+02  0.43583357656E+02  0.56330392376E+02  0.00000000000E+00 0.  1.
         11    1    1    2    0    0  0.10718543714E+02  0.39206366234E+02 -0.10671819221E+02  0.42022780228E+02  0.00000000000E+00 0. -1.
</event>
<event>
 7    1  0.2384639E-009  0.7406831E+02  0.7561462E-02  0.1346781E+00
          2   -1    0    0  501    0  0.00000000000E+00  0.00000000000E+00  0.17331474553E+04  0.17331474553E+04  0.00000000000E+00 0.  1.
         -2   -1    0    0    0  501 -0.00000000000E+00 -0.00000000000E+00 -0.78117289060E+01  0.78117289060E+01  0.00000000000E+00 0. -1.
         25    2    1    2    0    0  0.15546443663E+02 -0.42107301347E+01  0.12957701427E+04  0.13018933537E+04  0.12508644753E+03 0.  0.
          5    1    3    3  502    0  0.40168688371E+01 -0.29199980810E+02  0.12314290650E+04  0.12317888572E+04  0.41800000000E+01 0. -1.
         -5    1    3    3    0  502  0.11529574826E+02  0.24989250675E+02  0.64341077723E+02  0.70104496486E+02  0.41800000000E+01 0. -1.
        -11    1    1    2    0    0 -0.34819407313E+02  0.38056483989E+02  0.22656539333E+03  0.23236300169E+03  0.00000000000E+00 0. -1.
         11    1    1    2    0    0  0.19272963650E+02 -0.33845753855E+02  0.20300019035E+03  0.20670282887E+03  0.00000000000E+00 0.  1.
</event>
<event>
 7    1  0.2384639E-009  0.1261901E+03  0.7561462E-02  0.1233221E+00
         -2   -1    0    0    0  501 -0.00000000000E+00  0.00000000000E+00  0.51193087021E+02  0.51193087021E+02  0.00000000000E+00 0. -1.
          2   -1    0    0  501    0  0.00000000000E+00 -0.00000000000E+00 -0.39638925577E+03  0.39638925577E+03  0.00000000000E+00 0.  1.
         25    2    1    2    0    0 -0.41013108666E+02  0.83881911694E+02 -0.14980227983E+03  0.21634779840E+03  0.12508955447E+03 0.  0.
          5    1    3    3  502    0  0.22955197019E+02  0.74785754433E+02 -0.37814300190E+02  0.86989906513E+02  0.41800000000E+01 0.  1.
         -5    1    3    3    0  502 -0.63968305685E+02  0.90961572614E+01 -0.11198797964E+03  0.12935789189E+03  0.41800000000E+01 0.  1.
        -11    1    1    2    0    0  0.20391824363E+02 -0.86164821758E+02 -0.19026997142E+03  0.20986392027E+03  0.00000000000E+00 0.  1.
         11    1    1    2    0    0  0.20621284303E+02  0.22829100631E+01 -0.51239174997E+01  0.21370624118E+02  0.00000000000E+00 0. -1.
</event>
<event>
 7    1  0.2384639E-009  0.1140477E+03  0.7561462E-02  0.1253253E+00
          2   -1    0    0  501    0  0.00000000000E+00  0.00000000000E+00  0.12651385999E+04  0.12651385999E+04  0.00000000000E+00 0. -1.
         -2   -1    0    0    0  501 -0.00000000000E+00 -0.00000000000E+00 -0.17664882330E+02  0.17664882330E+02  0.00000000000E+00 0.  1.
         25    2    1    2    0    0  0.31108999491E+02  0.93703119153E+02  0.81300160011E+03  0.82847237875E+03  0.12508731427E+03 0.  0.
          5    1    3    3  502    0  0.24071257246E+02  0.66793273316E+02  0.16273369272E+03  0.17759643559E+03  0.41800000000E+01 0.  1.
         -5    1    3    3    0  502  0.70377422452E+01  0.26909845837E+02  0.65026790738E+03  0.65087594316E+03  0.41800000000E+01 0.  1.
        -11    1    1    2    0    0  0.26443951475E+02 -0.12328570950E+02  0.58503116114E+02  0.65375001540E+02  0.00000000000E+00 0.  1.
         11    1    1    2    0    0 -0.57552950966E+02 -0.81374548203E+02  0.37596900137E+03  0.38895610195E+03  0.00000000000E+00 0. -1.
</event>
<event>
 7    1  0.2384639E-009  0.1246418E+03  0.7561462E-02  0.1235630E+00
         -1   -1    0    0    0  501 -0.00000000000E+00  0.00000000000E+00  0.48479543026E+02  0.48479543026E+02  0.00000000000E+00 0.  1.
          1   -1    0    0  501    0  0.00000000000E+00 -0.00000000000E+00 -0.34209244741E+03  0.34209244741E+03  0.00000000000E+00 0. -1.
         25    2    1    2    0    0 -0.60300978258E+02  0.32067828530E+02 -0.15648272094E+03  0.21166416520E+03  0.12510125207E+03 0.  0.
          5    1    3    3  502    0 -0.32614347925E+02  0.80280287170E+02 -0.93375084894E+02  0.12745587110E+03  0.41800000000E+01 0.  1.
         -5    1    3    3    0  502 -0.27686630333E+02 -0.48212458641E+02 -0.63107636047E+02  0.84208294097E+02  0.41800000000E+01 0.  1.
        -11    1    1    2    0    0  0.27279118427E+02  0.27457926227E+02 -0.20331531386E+02  0.43720237686E+02  0.00000000000E+00 0.  1.
         11    1    1    2    0    0  0.33021859831E+02 -0.59525754757E+02 -0.11679865206E+03  0.13518758755E+03  0.00000000000E+00 0. -1.
</event>
<event>
 7    1  0.2384639E-009  0.8921619E+02  0.7561462E-02  0.1304761E+00
          1   -1    0    0  501    0  0.00000000000E+00  0.00000000000E+00  0.49506920113E+03  0.49506920113E+03  0.00000000000E+00 0. -1.
         -1   -1    0    0    0  501 -0.00000000000E+00 -0.00000000000E+00 -0.41644242803E+02  0.41644242803E+02  0.00000000000E+00 0.  1.
         25    2    1    2    0    0 -0.30085129162E+02 -0.29526344279E+02  0.40526506199E+03  0.42622032046E+03  0.12508825325E+03 0.  0.
          5    1    3    3  502    0 -0.55710686791E+02 -0.36124903373E+02  0.10203061741E+03  0.12180479693E+03  0.41800000000E+01 0. -1.
         -5    1    3    3    0  502  0.25625557629E+02  0.65985590945E+01  0.30323444459E+03  0.30441552354E+03  0.41800000000E+01 0. -1.
        -11    1    1    2    0    0  0.54840688204E+02  0.23311313885E+02  0.42967012362E+01  0.59744289093E+02  0.00000000000E+00 0.  1.
         11    1    1    2    0    0 -0.24755559042E+02  0.62150303942E+01  0.43863195095E+02  0.50748834373E+02  0.00000000000E+00 0. -1.
</event>
<event>
 7    1  0.2384639E-009  0.1443309E+03  0.7561462E-02  0.1207617E+00
         -2   -1    0    0    0  501 -0.00000000000E+00  0.00000000000E+00  0.29979830458E+02  0.29979830458E+02  0.00000000000E+00 0.  1.
          2   -1    0    0  501    0  0.00000000000E+00 -0.00000000000E+00 -0.10281370639E+04  0.10281370639E+04  0.00000000000E+00 0. -1.
         25    2    1    2    0    0 -0.58679333978E+02 -0.12399628508E+03 -0.53135768185E+03  0.56285598465E+03  0.12509008930E+03 0.  0.
          5    1    3    3  502    0 -0.45891581349E+02 -0.35369626832E+02 -0.61791376196E+02  0.84809753644E+02  0.41800000000E+01 0. -1.
         -5    1    3    3    0  502 -0.12787752628E+02 -0.88626658244E+02 -0.46956630566E+03  0.47804623100E+03  0.41800000000E+01 0. -1.
        -11    1    1    2    0    0 -0.17766956743E+01  0.24087686537E+02 -0.14591956911E+02  0.28218761431E+02  0.00000000000E+00 0.  1.
         11    1    1    2    0    0  0.60456029652E+02  0.99908598539E+02 -0.45220759464E+03  0.46704214824E+03  0.00000000000E+00 0. -1.
</event>
<event>
 7    1  0.2384639E-009  0.9905980E+02  0.7561462E-02  0.1282286E+00
          1   -1    0    0  501    0  0.00000000000E+00  0.00000000000E+00  0.55389746531E+03  0.55389746531E+03  0.00000000000E+00 0. -1.
         -1   -1    0    0    0  501 -0.00000000000E+00 -0.00000000000E+00 -0.26791389705E+02  0.26791389705E+02  0.00000000000E+00 0.  1.
         25    2    1    2    0    0 -0.27750824666E+02 -0.86469528427E+00  0.17591925920E+03  0.21763680261E+03  0.12508931259E+03 0.  0.
          5    1    3    3  502    0 -0.45102237131E+02 -0.43589621969E+02  0.15414326270E+03  0.16646887028E+03  0.41800000000E+01 0.  1.
         -5    1    3    3    0  502  0.17351412465E+02  0.42724926685E+02  0.21775996498E+02  0.51167932324E+02  0.41800000000E+01 0.  1.
        -11    1    1    2    0    0 -0.18328876032E+02 -0.28809637866E+02  0.18305788803E+03  0.18621528750E+03  0.00000000000E+00 0. -1.
         11    1    1    2    0    0  0.46079700698E+02  0.29674333151E+02  0.16812892838E+03  0.17683676490E+03  0.00000000000E+00 0.  1.
</event>
<event>
 7    1  0.2772367E-009  0.4228128E+03  0.7561462E-02  0.1036155E+00
          2   -1    0    0  501    0  0.00000000000E+00  0.00000000000E+00  0.87365147745E+03  0.87365147745E+03  0.00000000000E+00 0. -1.
         -2   -1    0    0    0  501 -0.00000000000E+00 -0.00000000000E+00 -0.20785602051E+03  0.20785602051E+03  0.00000000000E+00 0.  1.
         25    2    1    2    0    0 -0.12735208243E+03 -0.39141225341E+03  0.32279851306E+03  0.53783699610E+03  0.12509056446E+03 0.  0.
          5    1    3    3  502    0 -0.11450239852E+03 -0.18916872868E+03  0.21418149223E+03  0.30787463551E+03  0.41800000000E+01 0.  1.
         -5    1    3    3    0  502 -0.12849683904E+02 -0.20224352473E+03  0.10861702084E+03  0.22996236059E+03  0.41800000000E+01 0.  1.
        -11    1    1    2    0    0  0.54786066021E+01  0.16114174045E+03  0.13520292808E+03  0.21041983606E+03  0.00000000000E+00 0. -1.
         11    1    1    2    0    0  0.12187347583E+03  0.23027051297E+03  0.20779401579E+03  0.33325066579E+03  0.00000000000E+00 0.  1.
</event>
<event>
 7    1  0.2384639E-009  0.4400057E+02  0.7561462E-02  0.1480679E+00
         -3   -1    0    0    0  501 -0.00000000000E+00  0.00000000000E+00  0.19848793224E+03  0.19848793224E+03  0.00000000000E+00 0.  1.
          3   -1    0    0  501    0  0.00000000000E+00 -0.00000000000E+00 -0.61312143554E+02  0.61312143554E+02  0.00000000000E+00 0. -1.
         25    2    1    2    0    0 -0.87234505183E+01  0.36204318743E+01  0.53256100105E+02  0.13628021155E+03  0.12508748037E+03 0.  0.
          5    1    3    3  502    0  0.13843979397E+02  0.37105099208E+01 -0.38712184492E+02  0.41491315688E+02  0.41800000000E+01 0. -1.
         -5    1    3    3    0  502 -0.22567429916E+02 -0.90078046466E-01  0.91968284597E+02  0.94788895862E+02  0.41800000000E+01 0. -1.
        -11    1    1    2    0    0  0.24450944552E+02 -0.16745377627E+02 -0.68921876290E+01  0.30426281595E+02  0.00000000000E+00 0. -1.
         11    1    1    2    0    0 -0.15727494034E+02  0.13124945753E+02  0.90811876213E+02  0.93093582652E+02  0.00000000000E+00 0.  1.
</event>
<event>
 7    1  0.2384639E-009  0.7940364E+02  0.7561462E-02  0.1330752E+00
         -2   -1    0    0    0  501 -0.00000000000E+00  0.00000000000E+00  0.24487832921E+02  0.24487832921E+02  0.00000000000E+00 0.  1.
          2   -1    0    0  501    0  0.00000000000E+00 -0.00000000000E+00 -0.47689625494E+03  0.47689625494E+03  0.00000000000E+00 0. -1.
         25    2    1    2    0    0  0.39842237987E+01 -0.14980047467E+02 -0.31529137406E+03  0.33955364783E+03  0.12509098023E+03 0.  0.
          5    1    3    3  502    0  0.50505326515E+02 -0.13931890125E+02 -0.58899949712E+02  0.78940243507E+02  0.41800000000E+01 0. -1.
         -5    1    3    3    0  502 -0.46521102716E+02 -0.10481573417E+01 -0.25639142435E+03  0.26061340432E+03  0.41800000000E+01 0. -1.
        -11    1    1    2    0    0 -0.21734725899E+02  0.29467999556E+02 -0.18507134333E+02  0.41027738530E+02  0.00000000000E+00 0.  1.
         11    1    1    2    0    0  0.17750502100E+02 -0.14487952089E+02 -0.11860991362E+03  0.12080270150E+03  0.00000000000E+00 0. -1.
</event>
<event>
 7    1  0.2384639E-009  0.1605693E+03  0.7561462E-02  0.1188056E+00
         -2   -1    0    0    0  501 -0.00000000000E+00  0.00000000000E+00  0.11927819787E+03  0.11927819787E+03  0.00000000000E+00 0.  1.
          2   -1    0    0  501    0  0.00000000000E+00 -0.00000000000E+00 -0.26705526635E+03  0.26705526635E+03  0.00000000000E+00 0. -1.
         25    2    1    2    0    0 -0.99799795245E+02  0.96663913366E+02 -0.10446964796E+03  0.21416120563E+03  0.12508878196E+03 0.  0.
          5    1    3    3  502    0 -0.13792427001E+02  0.82865245184E+02 -0.85786588374E+01  0.84545524361E+02  0.41800000000E+01 0.  1.
         -5    1    3    3    0  502 -0.86007368243E+02  0.13798668182E+02 -0.95890989119E+02  0.12961568127E+03  0.41800000000E+01 0.  1.
        -11    1    1    2    0    0  0.43037747329E+02 -0.68568580123E+01  0.20586039935E+02  0.48198021092E+02  0.00000000000E+00 0.  1.
         11    1    1    2    0    0  0.56762047916E+02 -0.89807055353E+02 -0.63893460464E+02  0.12397423750E+03  0.00000000000E+00 0. -1.
</event>
<event>
 7    1  0.2384639E-009  0.1143464E+03  0.7561462E-02  0.1252726E+00
         -3   -1    0    0    0  501 -0.00000000000E+00  0.00000000000E+00  0.11007692008E+03  0.11007692008E+03  0.00000000000E+00 0.  1.
          3   -1    0    0  501    0  0.00000000000E+00 -0.00000000000E+00 -0.15830002902E+03  0.15830002902E+03  0.00000000000E+00 0. -1.
         25    2    1    2    0    0  0.48073601313E+02 -0.15900093699E+02 -0.77061483733E+02  0.15540221165E+03  0.12508993160E+03 0.  0.
          5    1    3    3  502    0  0.60095451927E+02  0.43386747748E+02 -0.39862194311E+02  0.84263516172E+02  0.41800000000E+01 0.  1.
         -5    1    3    3    0  502 -0.12021850613E+02 -0.59286841447E+02 -0.37199289422E+02  0.71138695479E+02  0.41800000000E+01 0.  1.
        -11    1    1    2    0    0 -0.61901841626E+02  0.34323495906E+02  0.45854220978E+02  0.84335935101E+02  0.00000000000E+00 0.  1.
         11    1    1    2    0    0  0.13828240313E+02 -0.18423402207E+02 -0.17015846185E+02  0.28638802357E+02  0.00000000000E+00 0. -1.
</event>
<event>
 7    1  0.2384639E-009  0.1046707E+03  0.7561462E-02  0.1270770E+00
         -1   -1    0    0    0  501 -0.00000000000E+00  0.00000000000E+00  0.70217387177E+02  0.70217387177E+02  0.00000000000E+00 0.  1.
          1   -1    0    0  501    0  0.00000000000E+00 -0.00000000000E+00 -0.17374596963E+03  0.17374596963E+03  0.00000000000E+00 0. -1.
         25    2    1    2    0    0  0.13055020495E+02  0.14061106554E+02 -0.66388176943E+02  0.14290553419E+03  0.12508578411E+03 0.  0.
          5    1    3    3  502    0 -0.58752120098E+01 -0.51547568517E+02 -0.50817423332E+02  0.72743060495E+02  0.41800000000E+01 0.  1.
         -5    1    3    3    0  502  0.18930232505E+02  0.65608675071E+02 -0.15570753611E+02  0.70162473697E+02  0.41800000000E+01 0.  1.
        -11    1    1    2    0    0  0.14782579832E+02 -0.44937499611E+02 -0.36039576045E+02  0.59470619463E+02  0.00000000000E+00 0. -1.
         11    1    1    2    0    0 -0.27837600328E+02  0.30876393057E+02 -0.11008294607E+01  0.41587203148E+02  0.00000000000E+00 0.  1.
</event>
<event>
 7    1  0.2384639E-009  0.1554923E+03  0.7561462E-02  0.1193882E+00
         -1   -1    0    0    0  501 -0.00000000000E+00  0.00000000000E+00  0.44840548793E+03  0.44840548793E+03  0.00000000000E+00 0.  1.
          1   -1    0    0  501    0  0.00000000000E+00 -0.00000000000E+00 -0.75337223196E+02  0.75337223196E+02  0.00000000000E+00 0. -1.
         25    2    1    2    0    0  0.12384325087E+02  0.12974753353E+03  0.94261113596E+02  0.20376195804E+03  0.12508390801E+03 0.  0.
          5    1    3    3  502    0 -0.50309885604E+01 -0.24497580296E+02  0.14017620088E+02  0.28972544921E+02  0.41800000000E+01 0.  1.
         -5    1    3    3    0  502  0.17415313647E+02  0.15424511382E+03  0.80243493508E+02  0.17478941312E+03  0.41800000000E+01 0.  1.
        -11    1    1    2    0    0 -0.81543636375E+01 -0.93160626129E+02  0.26436810913E+03  0.28042092118E+03  0.00000000000E+00 0.  1.
         11    1    1    2    0    0 -0.42299614494E+01 -0.36586907399E+02  0.14439042008E+02  0.39559831913E+02  0.00000000000E+00 0. -1.
</event>
<event>
 7    1  0.2384639E-009  0.9075105E+02  0.7561462E-02  0.1301043E+00
          1   -1    0    0  501    0  0.00000000000E+00  0.00000000000E+00  0.55867506104E+03  0.55867506104E+03  0.00000000000E+00 0. -1.
         -1   -1    0    0    0  501 -0.00000000000E+00 -0.00000000000E+00 -0.36115018640E+02  0.36115018640E+02  0.00000000000E+00 0.  1.
         25    2    1    2    0    0 -0.25815348455E+02 -0.51962126699E+02  0.42766197106E+03  0.44933961644E+03  0.12507931318E+03 0.  0.
          5    1    3    3  502    0 -0.33971487287E+02 -0.61680200249E+02  0.43002667268E+03  0.43577393298E+03  0.41800000000E+01 0. -1.
         -5    1    3    3    0  502  0.81561388310E+01  0.97180735498E+01 -0.23647016139E+01  0.13565683465E+02  0.41800000000E+01 0. -1.
        -11    1    1    2    0    0  0.42684059417E+02 -0.30135793305E+00  0.91997532436E+01  0.43665263135E+02  0.00000000000E+00 0.  1.
         11    1    1    2    0    0 -0.16868710961E+02  0.52263484632E+02  0.85698318089E+02  0.10178520010E+03  0.00000000000E+00 0. -1.
</event>
<event>
 7    1  0.2384639E-009  0.1291660E+03  0.7561462E-02  0.1228698E+00
         -1   -1    0    0    0  501 -0.00000000000E+00  0.00000000000E+00  0.11728999768E+02  0.11728999768E+02  0.00000000000E+00 0.  1.
          1   -1    0    0  501    0  0.00000000000E+00 -0.00000000000E+00 -0.16525641824E+04  0.16525641824E+04  0.00000000000E+00 0. -1.
         25    2    1    2    0    0 -0.86054045014E+02 -0.50711313352E+01 -0.10667833278E+04  0.10775461276E+04  0.12509185986E+03 0.  0.
          5    1    3    3  502    0  0.12713226996E+02  0.29512274852E+02 -0.50802876892E+03  0.50906119766E+03  0.41800000000E+01 0.  1.
         -5    1    3    3    0  502 -0.98767272009E+02 -0.34583406187E+02 -0.55875455892E+03  0.56848492990E+03  0.41800000000E+01 0.  1.
        -11    1    1    2    0    0  0.60312749087E+02  0.43908855372E+02 -0.33686979330E+03  0.34503169843E+03  0.00000000000E+00 0.  1.
         11    1    1    2    0    0  0.25741295927E+02 -0.38837724037E+02 -0.23718206146E+03  0.24171535615E+03  0.00000000000E+00 0. -1.
</event>
<event>
 7    1  0.2384639E-009  0.8448967E+02  0.7561462E-02  0.1316773E+00
         -1   -1    0    0    0  501 -0.00000000000E+00  0.00000000000E+00  0.91235867654E+02  0.91235867654E+02  0.00000000000E+00 0.  1.
          1   -1    0    0  501    0  0.00000000000E+00 -0.00000000000E+00 -0.17123585210E+03  0.17123585210E+03  0.00000000000E+00 0. -1.
         25    2    1    2    0    0  0.31920497780E+02  0.13347753502E+02 -0.98664449211E+02  0.16303042234E+03  0.12508862606E+03 0.  0.
          5    1    3    3  502    0  0.54614433534E+02 -0.59728113911E+01 -0.11591292350E+03  0.12834207829E+03  0.41800000000E+01 0.  1.
         -5    1    3    3    0  502 -0.22693935754E+02  0.19320564893E+02  0.17248474288E+02  0.34688344052E+02  0.41800000000E+01 0.  1.
        -11    1    1    2    0    0  0.12050434003E+02  0.23503885210E+02  0.31033123882E+02  0.40751691468E+02  0.00000000000E+00 0.  1.
         11    1    1    2    0    0 -0.43970931783E+02 -0.36851638712E+02 -0.12368659120E+02  0.58689605946E+02  0.00000000000E+00 0. -1.
</event>
<event>
 7    1  0.2384639E-009  0.1461833E+03  0.7561462E-02  0.1205243E+00
         -1   -1    0    0    0  501 -0.00000000000E+00  0.00000000000E+00  0.19648305852E+03  0.19648305852E+03  0.00000000000E+00 0.  1.
          1   -1    0    0  501    0  0.00000000000E+00 -0.00000000000E+00 -0.11598224182E+03  0.11598224182E+03  0.00000000000E+00 0. -1.
         25    2    1    2    0    0  0.97789993811E+02 -0.11175464959E+02  0.75039398923E+01  0.15934866305E+03  0.12509162000E+03 0.  0.
          5    1    3    3  502    0  0.12382095561E+03  0.95306209245E+01 -0.27628800796E+01  0.12428824438E+03  0.41800000000E+01 0.  1.
         -5    1    3    3    0  502 -0.26030961802E+02 -0.20706085884E+02  0.10266819972E+02  0.35060418670E+02  0.41800000000E+01 0.  1.
        -11    1    1    2    0    0  0.18068539757E+02  0.39934989616E+01  0.93738169073E+01  0.20743399102E+02  0.00000000000E+00 0. -1.
         11    1    1    2    0    0 -0.11585853357E+03  0.71819659976E+01  0.63623059902E+02  0.13237323818E+03  0.00000000000E+00 0.  1.
</event>
<event>
 7    1  0.2384639E-009  0.1013763E+03  0.7561462E-02  0.1277428E+00
          1   -1    0    0  501    0  0.00000000000E+00  0.00000000000E+00  0.23972472972E+03  0.23972472972E+03  0.00000000000E+00 0. -1.
         -1   -1    0    0    0  501 -0.00000000000E+00 -0.00000000000E+00 -0.57925101153E+02  0.57925101153E+02  0.00000000000E+00 0.  1.
         25    2    1    2    0    0  0.32760739778E+02  0.20360145632E+01  0.59439895144E+02  0.14233259569E+03  0.12509218695E+03 0.  0.
          5    1    3    3  502    0  0.16418225007E+02  0.62837427481E+02  0.39630443263E+02  0.76198063218E+02  0.41800000000E+01 0. -1.
         -5    1    3    3    0  502  0.16342514771E+02 -0.60801412918E+02  0.19809451881E+02  0.66134532475E+02  0.41800000000E+01 0. -1.
        -11    1    1    2    0    0 -0.19824360936E+02 -0.34408979246E+02  0.11217695394E+03  0.11899853837E+03  0.00000000000E+00 0. -1.
         11    1    1    2    0    0 -0.12936378842E+02  0.32372964683E+02  0.10182779484E+02  0.36318696809E+02  0.00000000000E+00 0.  1.
</event>
<event>
 7    1  0.2384639E-009  0.1656193E+03  0.7561462E-02  0.1182495E+00
          2   -1    0    0  501    0  0.00000000000E+00  0.00000000000E+00  0.13315820185E+04  0.13315820185E+04  0.00000000000E+00 0. -1.
         -2   -1    0    0    0  501 -0.00000000000E+00 -0.00000000000E+00 -0.26088302850E+02  0.26088302850E+02  0.00000000000E+00 0.  1.
         25    2    1    2    0    0 -0.10519751238E+03  0.10001699607E+03  0.55514739537E+03  0.58728704966E+03  0.12509009551E+03 0.  0.
          5    1    3    3  502    0  0.22841280919E+01  0.43267668240E+02  0.44084872570E+02  0.61953666119E+02  0.41800000000E+01 0.  1.
         -5    1    3    3    0  502 -0.10748164048E+03  0.56749327828E+02  0.51106252280E+03  0.52533338354E+03  0.41800000000E+01 0.  1.
        -11    1    1    2    0    0  0.27328378148E+02  0.11855545486E+02  0.63467327603E+02  0.70110597516E+02  0.00000000000E+00 0. -1.
         11    1    1    2    0    0  0.77869134237E+02 -0.11187254155E+03  0.68687899269E+03  0.70027267419E+03  0.00000000000E+00 0.  1.
</event>
<event>
 7    1  0.2384639E-009  0.1245810E+03  0.7561462E-02  0.1235726E+00
          2   -1    0    0  501    0  0.00000000000E+00  0.00000000000E+00  0.17655819769E+03  0.17655819769E+03  0.00000000000E+00 0. -1.
         -2   -1    0    0    0  501 -0.00000000000E+00 -0.00000000000E+00 -0.10249080808E+03  0.10249080808E+03  0.00000000000E+00 0.  1.
         25    2    1    2    0    0  0.50363449975E+02  0.42534905522E+02 -0.64874275793E+01  0.14154586608E+03  0.12508976859E+03 0.  0.
          5    1    3    3  502    0  0.90953348732E+02  0.20905736029E+02 -0.14911613873E+02  0.94601216022E+02  0.41800000000E+01 0.  1.
         -5    1    3    3    0  502 -0.40589898757E+02  0.21629169493E+02  0.84241862934E+01  0.46944650055E+02  0.41800000000E+01 0.  1.
        -11    1    1    2    0    0  0.24136012062E+02 -0.21048426606E+02  0.12639558759E+02  0.34428792986E+02  0.00000000000E+00 0.  1.
         11    1    1    2    0    0 -0.74499462038E+02 -0.21486478916E+02  0.67915258430E+02  0.10307434670E+03  0.00000000000E+00 0. -1.
</event>
<event>
 7    1  0.2384639E-009  0.9132687E+02  0.7561462E-02  0.1299670E+00
          2   -1    0    0  501    0  0.00000000000E+00  0.00000000000E+00  0.15265419615E+03  0.15265419615E+03  0.00000000000E+00 0.  1.
         -2   -1    0    0    0  501 -0.00000000000E+00 -0.00000000000E+00 -0.11457190765E+03  0.11457190765E+03  0.00000000000E+00 0. -1.
         25    2    1    2    0    0 -0.19091874159E+02  0.56595006521E+02 -0.23763057270E+02  0.14062909576E+03  0.12507743707E+03 0.  0.
          5    1    3    3  502    0 -0.52433083601E+01  0.62776257973E+02  0.40143244236E+02  0.74815127518E+02  0.41800000000E+01 0. -1.
         -5    1    3    3    0  502 -0.13848565799E+02 -0.61812514525E+01 -0.63906301506E+02  0.65813968247E+02  0.41800000000E+01 0. -1.
        -11    1    1    2    0    0  0.45246925725E+02 -0.44659205215E+01  0.60212515425E+01  0.45863756975E+02  0.00000000000E+00 0. -1.
         11    1    1    2    0    0 -0.26155051566E+02 -0.52129085999E+02  0.55824094237E+02  0.80733251061E+02  0.00000000000E+00 0.  1.
</event>
<event>
 7    1  0.2384639E-009  0.1615772E+03  0.7561462E-02  0.1186927E+00
         -1   -1    0    0    0  501 -0.00000000000E+00  0.00000000000E+00  0.18238376208E+03  0.18238376208E+03  0.00000000000E+00 0.  1.
          1   -1    0    0  501    0  0.00000000000E+00 -0.00000000000E+00 -0.20857792159E+03  0.20857792159E+03  0.00000000000E+00 0. -1.
         25    2    1    2    0    0  0.11202820589E+03  0.46374983645E+02  0.14483451942E+02  0.17480884825E+03  0.12508958799E+03 0.  0.
          5    1    3    3  502    0  0.34003924706E+02 -0.30191738168E+02  0.41958340444E+02  0.62014374800E+02  0.41800000000E+01 0.  1.
         -5    1    3    3    0  502  0.78024281179E+02  0.76566721813E+02 -0.27474888502E+02  0.11279447345E+03  0.41800000000E+01 0.  1.
        -11    1    1    2    0    0 -0.25680750811E+02  0.38979605477E+02  0.47115418976E+02  0.66323248643E+02  0.00000000000E+00 0.  1.
         11    1    1    2    0    0 -0.86347455075E+02 -0.85354589122E+02 -0.87793030427E+02  0.14982958678E+03  0.00000000000E+00 0. -1.
</event>
<event>
 7    1  0.2384639E-009  0.1124388E+03  0.7561462E-02  0.1256119E+00
          1   -1    0    0  501    0  0.00000000000E+00  0.00000000000E+00  0.54370769883E+03  0.54370769883E+03  0.00000000000E+00 0. -1.
         -1   -1    0    0    0  501 -0.00000000000E+00 -0.00000000000E+00 -0.30411249809E+02  0.30411249809E+02  0.00000000000E+00 0.  1.
         25    2    1    2    0    0 -0.55075964158E+02  0.17721801026E+02  0.20532197394E+03  0.24728910237E+03  0.12508942046E+03 0.  0.
          5    1    3    3  502    0  0.33768588318E+02 -0.81423999585E+01  0.10532342032E+03  0.11098248287E+03  0.41800000000E+01 0.  1.
         -5    1    3    3    0  502 -0.88844552476E+02  0.25864200984E+02  0.99998553611E+02  0.13630661951E+03  0.41800000000E+01 0.  1.
        -11    1    1    2    0    0 -0.11527030510E+02 -0.27620228339E+02  0.17749463194E+03  0.18000026059E+03  0.00000000000E+00 0. -1.
         11    1    1    2    0    0  0.66602994668E+02  0.98984273131E+01  0.13047984315E+03  0.14682958568E+03  0.00000000000E+00 0.  1.
</event>
<event>
 7    1  0.2384639E-009  0.1038818E+03  0.7561462E-02  0.1272339E+00
         -1   -1    0    0    0  501 -0.00000000000E+00  0.00000000000E+00  0.68745328297E+02  0.68745328297E+02  0.00000000000E+00 0.  1.
          1   -1    0    0  501    0  0.00000000000E+00 -0.00000000000E+00 -0.16182054635E+03  0.16182054635E+03  0.00000000000E+00 0. -1.
         25    2    1    2    0    0  0.90031094129E+01 -0.17181071762E+02 -0.46224067476E+02  0.13475421384E+03  0.12508312647E+03 0.  0.
          5    1    3    3  502    0  0.23704413708E+01 -0.70940525177E+02 -0.17177278309E+02  0.73148536519E+02  0.41800000000E+01 0.  1.
         -5    1    3    3    0  502  0.66326680422E+01  0.53759453415E+02 -0.29046789167E+02  0.61605677318E+02  0.41800000000E+01 0.  1.
        -11    1    1    2    0    0  0.86361418422E+01 -0.30391602444E+02 -0.26152390084E+02  0.41014387136E+02  0.00000000000E+00 0. -1.
         11    1    1    2    0    0 -0.17639251255E+02  0.47572674207E+02 -0.20698760491E+02  0.54797273672E+02  0.00000000000E+00 0.  1.
</event>
<event>
 7    1  0.2384639E-009  0.5702737E+02  0.7561462E-02  0.1410747E+00
          2   -1    0    0  501    0  0.00000000000E+00  0.00000000000E+00  0.13630396399E+03  0.13630396399E+03  0.00000000000E+00 0. -1.
         -2   -1    0    0    0  501 -0.00000000000E+00 -0.00000000000E+00 -0.24956511711E+03  0.24956511711E+03  0.00000000000E+00 0.  1.
         25    2    1    2    0    0 -0.27525312897E+02 -0.33006928015E+02 -0.20822405701E+03  0.24668193103E+03  0.12509043541E+03 0.  0.
          5    1    3    3  502    0  0.38422925333E+01 -0.19363784952E+02  0.12200039874E+02  0.23580346743E+02  0.41800000000E+01 0. -1.
         -5    1    3    3    0  502 -0.31367605430E+02 -0.13643143063E+02 -0.22042409689E+03  0.22310158429E+03  0.41800000000E+01 0. -1.
        -11    1    1    2    0    0  0.37745830444E+02  0.19524111101E+02 -0.23553015788E+00  0.42496989360E+02  0.00000000000E+00 0.  1.
         11    1    1    2    0    0 -0.10220517546E+02  0.13482816914E+02  0.95198434054E+02  0.96690160705E+02  0.00000000000E+00 0. -1.
</event>
<event>
 7    1  0.2384639E-009  0.8404470E+02  0.7561462E-02  0.1317950E+00
         -2   -1    0    0    0  501 -0.00000000000E+00  0.00000000000E+00  0.25014378672E+02  0.25014378672E+02  0.00000000000E+00 0.  1.
          2   -1    0    0  501    0  0.00000000000E+00 -0.00000000000E+00 -0.91992394999E+03  0.91992394999E+03  0.00000000000E+00 0. -1.
         25    2    1    2    0    0 -0.48321189129E+02  0.39408142018E+02 -0.75177735892E+03  0.76465837852E+03  0.12508117153E+03 0.  0.
          5    1    3    3  502    0  0.16858372320E+02  0.32659822012E+02 -0.57319548139E+03  0.57438784891E+03  0.41800000000E+01 0.  1.
         -5    1    3    3    0  502 -0.65179561449E+02  0.67483200063E+01 -0.17858187754E+03  0.19027052961E+03  0.41800000000E+01 0.  1.
        -11    1    1    2    0    0  0.14335778227E+02 -0.24368694231E+02 -0.14017527515E+03  0.14299809635E+03  0.00000000000E+00 0. -1.
         11    1    1    2    0    0  0.33985410902E+02 -0.15039447788E+02 -0.29569372349E+01  0.37281853786E+02  0.00000000000E+00 0.  1.
</event>
<event>
 7    1  0.2384639E-009  0.1138975E+03  0.7561462E-02  0.1253518E+00
          1   -1    0    0  501    0  0.00000000000E+00  0.00000000000E+00  0.82922726895E+02  0.82922726895E+02  0.00000000000E+00 0. -1.
         -1   -1    0    0    0  501 -0.00000000000E+00 -0.00000000000E+00 -0.19768180368E+03  0.19768180368E+03  0.00000000000E+00 0.  1.
         25    2    1    2    0    0  0.51923715955E+02 -0.28274876993E+02 -0.28845271478E+02  0.14133426680E+03  0.12509110415E+03 0.  0.
          5    1    3    3  502    0 -0.17395571124E+02 -0.57565757251E+02  0.94903710572E+00  0.60289264169E+02  0.41800000000E+01 0. -1.
         -5    1    3    3    0  502  0.69319287079E+02  0.29290880257E+02 -0.29794308583E+02  0.81045002631E+02  0.41800000000E+01 0. -1.
        -11    1    1    2    0    0 -0.11482433929E+02  0.46419360828E+02 -0.81804063868E+02  0.94754990443E+02  0.00000000000E+00 0.  1.
         11    1    1    2    0    0 -0.40441282026E+02 -0.18144483834E+02 -0.41097414449E+01  0.44515273337E+02  0.00000000000E+00 0. -1.
</event>
<event>
 7    1  0.2384639E-009  0.9579315E+02  0.7561462E-02  0.1289400E+00
          1   -1    0    0  501    0  0.00000000000E+00  0.00000000000E+00  0.20035612931E+03  0.20035612931E+03  0.00000000000E+00 0. -1.
         -1   -1    0    0    0  501 -0.00000000000E+00 -0.00000000000E+00 -0.70854802764E+02  0.70854802764E+02  0.00000000000E+00 0.  1.
         25    2    1    2    0    0 -0.11902774574E+02 -0.12586530707E+02  0.21149635628E+02  0.12804510170E+03  0.12509254248E+03 0.  0.
          5    1    3    3  502    0 -0.20504237423E+02 -0.57257510587E+02 -0.22383757817E+02  0.64941137077E+02  0.41800000000E+01 0.  1.
         -5    1    3    3    0  502  0.86014628489E+01  0.44670979880E+02  0.43533393444E+02  0.63103964625E+02  0.41800000000E+01 0.  1.
        -11    1    1    2    0    0  0.12608783588E+02  0.47945369549E+02  0.91327828902E+02  0.10391589011E+03  0.00000000000E+00 0. -1.
         11    1    1    2    0    0 -0.70600901412E+00 -0.35358838842E+02  0.17023862019E+02  0.39249940268E+02  0.00000000000E+00 0.  1.
</event>
<event>
 7    1  0.2384639E-009  0.1695600E+03  0.7561462E-02  0.1178307E+00
          1   -1    0    0  501    0  0.00000000000E+00  0.00000000000E+00  0.82763504108E+02  0.82763504108E+02  0.00000000000E+00 0. -1.
         -1   -1    0    0    0  501 -0.00000000000E+00 -0.00000000000E+00 -0.38909233571E+03  0.38909233571E+03  0.00000000000E+00 0.  1.
         25    2    1    2    0    0  0.14072383148E+03 -0.98104832433E+01 -0.18854679941E+03  0.26663839827E+03  0.12508676004E+03 0.  0.
          5    1    3    3  502    0  0.33253718805E+02  0.53677365787E+02 -0.55706346298E+02  0.84307406732E+02  0.41800000000E+01 0.  1.
         -5    1    3    3    0  502  0.10747011267E+03 -0.63487849030E+02 -0.13284045311E+03  0.18233099154E+03  0.41800000000E+01 0.  1.
        -11    1    1    2    0    0 -0.67711802234E+02 -0.22154306441E+02 -0.11182676476E+02  0.72116251350E+02  0.00000000000E+00 0. -1.
         11    1    1    2    0    0 -0.73012029241E+02  0.31964789684E+02 -0.10659935572E+03  0.13310119020E+03  0.00000000000E+00 0.  1.
</event>
<event>
 7    1  0.2384639E-009  0.8316339E+02  0.7561462E-02  0.1320307E+00
         -2   -1    0    0    0  501 -0.00000000000E+00  0.00000000000E+00  0.10754207724E+03  0.10754207724E+03  0.00000000000E+00 0.  1.
          2   -1    0    0  501    0  0.00000000000E+00 -0.00000000000E+00 -0.14540267822E+03  0.14540267822E+03  0.00000000000E+00 0. -1.
         25    2    1    2    0    0  0.12353285785E+02 -0.23761037481E+02  0.24600808283E+02  0.13026697462E+03  0.12508834613E+03 0.  0.
          5    1    3    3  502    0  0.97657440768E+01  0.35824284756E+02  0.52379064365E+02  0.64341183696E+02  0.41800000000E+01 0. -1.
         -5    1    3    3    0  502  0.25875417079E+01 -0.59585322237E+02 -0.27778256082E+02  0.65925790925E+02  0.41800000000E+01 0. -1.
        -11    1    1    2    0    0 -0.28088974365E+02 -0.11660767800E+02  0.16583986421E+02  0.34640909229E+02  0.00000000000E+00 0. -1.
         11    1    1    2    0    0  0.15735688580E+02  0.35421805281E+02 -0.79045395685E+02  0.88036871613E+02  0.00000000000E+00 0.  1.
</event>
<event>
 7    1  0.2384639E-009  0.1743108E+03  0.7561462E-02  0.1173426E+00
          2   -1    0    0  501    0  0.00000000000E+00  0.00000000000E+00  0.10565377379E+04  0.10565377379E+04  0.00000000000E+00 0. -1.
         -2   -1    0    0    0  501 -0.00000000000E+00 -0.00000000000E+00 -0.35886035530E+02  0.35886035530E+02  0.00000000000E+00 0.  1.
         25    2    1    2    0    0  0.46843763676E+02  0.14901367905E+03  0.65133940610E+03  0.68138795219E+03  0.12508838759E+03 0.  0.
          5    1    3    3  502    0  0.71567780332E+02  0.52137914046E+02  0.42131962188E+03  0.43054384846E+03  0.41800000000E+01 0.  1.
         -5    1    3    3    0  502 -0.24724016656E+02  0.96875765000E+02  0.23001978422E+03  0.25084410373E+03  0.41800000000E+01 0.  1.
        -11    1    1    2    0    0 -0.10701351278E+02 -0.90518807275E+02  0.11048548727E+03  0.14323133835E+03  0.00000000000E+00 0.  1.
         11    1    1    2    0    0 -0.36142412398E+02 -0.58494871772E+02  0.25882680899E+03  0.26780448288E+03  0.00000000000E+00 0. -1.
</event>
<event>
 7    1  0.2384639E-009  0.1120634E+03  0.7561462E-02  0.1256796E+00
         -2   -1    0    0    0  501 -0.00000000000E+00  0.00000000000E+00  0.16763885222E+02  0.16763885222E+02  0.00000000000E+00 0.  1.
          2   -1    0    0  501    0  0.00000000000E+00 -0.00000000000E+00 -0.10434763949E+04  0.10434763949E+04  0.00000000000E+00 0. -1.
         25    2    1    2    0    0  0.72636623892E+02  0.91186140126E+01 -0.50159325961E+03  0.52211708948E+03  0.12510487120E+03 0.  0.
          5    1    3    3  502    0  0.36889548025E+02 -0.34082847766E+02 -0.66676371288E+02  0.83580441214E+02  0.41800000000E+01 0.  1.
         -5    1    3    3    0  502  0.35747075867E+02  0.43201461779E+02 -0.43491688832E+03  0.43853664827E+03  0.41800000000E+01 0.  1.
        -11    1    1    2    0    0 -0.72401987041E+01 -0.43167611856E+02 -0.20563110783E+03  0.21023799775E+03  0.00000000000E+00 0. -1.
         11    1    1    2    0    0 -0.65396425188E+02  0.34048997843E+02 -0.31948814224E+03  0.32788519288E+03  0.00000000000E+00 0.  1.
</event>
<event>
 7    1  0.2384639E-009  0.7283269E+02  0.7561462E-02  0.1350717E+00
         -1   -1    0    0    0  501 -0.00000000000E+00  0.00000000000E+00  0.10940644767E+03  0.10940644767E+03  0.00000000000E+00 0.  1.
          1   -1    0    0  501    0  0.00000000000E+00 -0.00000000000E+00 -0.10891141795E+03  0.10891141795E+03  0.00000000000E+00 0. -1.
         25    2    1    2    0    0  0.12787183007E+02 -0.92672775546E+01 -0.11402401795E+02  0.12659924129E+03  0.12509180087E+03 0.  0.
          5    1    3    3  502    0  0.79165688724E+01 -0.48383305719E+02  0.38780107922E+02  0.62649704752E+02  0.41800000000E+01 0. -1.
         -5    1    3    3    0  502  0.48706141349E+01  0.39116028164E+02 -0.50182509717E+02  0.63949536534E+02  0.41800000000E+01 0. -1.
        -11    1    1    2    0    0 -0.16376462515E+02  0.30858202345E+02 -0.28953882222E+02  0.45373389472E+02  0.00000000000E+00 0. -1.
         11    1    1    2    0    0  0.35892795080E+01 -0.21590924790E+02  0.40851313736E+02  0.46345234865E+02  0.00000000000E+00 0.  1.
</event>
<event>
 7    1  0.2384639E-009  0.1807762E+03  0.7561462E-02  0.1167054E+00
         -1   -1    0    0    0  501 -0.00000000000E+00  0.00000000000E+00  0.14735599566E+03  0.14735599566E+03  0.00000000000E+00 0.  1.
          1   -1    0    0  501    0  0.00000000000E+00 -0.00000000000E+00 -0.23820068119E+03  0.23820068119E+03  0.00000000000E+00 0. -1.
         25    2    1    2    0    0 -0.12030400027E+03  0.86491749135E+02 -0.87379433030E+02  0.21268807982E+03  0.12508868386E+03 0.  0.
          5    1    3    3  502    0 -0.31426087815E+02 -0.32393248526E+02 -0.23209879348E+02  0.50922415936E+02  0.41800000000E+01 0. -1.
         -5    1    3    3    0  502 -0.88877912453E+02  0.11888499766E+03 -0.64169553681E+02  0.16176566388E+03  0.41800000000E+01 0. -1.
        -11    1    1    2    0    0  0.12900975321E+03 -0.64820543142E+02 -0.17790539287E+02  0.14547069301E+03  0.00000000000E+00 0.  1.
         11    1    1    2    0    0 -0.87057529461E+01 -0.21671205992E+02  0.14325286788E+02  0.27397904027E+02  0.00000000000E+00 0. -1.
</event>
<event>
 7    1  0.2384639E-009  0.1234489E+03  0.7561462E-02  0.1237513E+00
         -2   -1    0    0    0  501 -0.00000000000E+00  0.00000000000E+00  0.23716462828E+02  0.23716462828E+02  0.00000000000E+00 0.  1.
          2   -1    0    0  501    0  0.00000000000E+00 -0.00000000000E+00 -0.70756928486E+03  0.70756928486E+03  0.00000000000E+00 0. -1.
         25    2    1    2    0    0 -0.42191034185E+02 -0.58169117865E+02 -0.43386366442E+03  0.45721899470E+03  0.12509116745E+03 0.  0.
          5    1    3    3  502    0  0.21246578465E+02  0.23239745891E+02 -0.18602113128E+03  0.18871363642E+03  0.41800000000E+01 0. -1.
         -5    1    3    3    0  502 -0.63437612650E+02 -0.81408863756E+02 -0.24784253314E+03  0.26850535828E+03  0.41800000000E+01 0. -1.
        -11    1    1    2    0    0  0.41641576571E+02 -0.10680752763E+02 -0.10876183405E+03  0.11694971537E+03  0.00000000000E+00 0.  1.
         11    1    1    2    0    0  0.54945761441E+00  0.68849870628E+02 -0.14122732356E+03  0.15711703762E+03  0.00000000000E+00 0. -1.
</event>
<event>
 7    1  0.2384639E-009  0.1037078E+03  0.7561462E-02  0.1272687E+00
          1   -1    0    0  501    0  0.00000000000E+00  0.00000000000E+00  0.47150173015E+03  0.47150173015E+03  0.00000000000E+00 0. -1.
         -1   -1    0    0    0  501 -0.00000000000E+00 -0.00000000000E+00 -0.30328957567E+02  0.30328957567E+02  0.00000000000E+00 0.  1.
         25    2    1    2    0    0  0.25141296309E+02 -0.39852737411E+02  0.27651135644E+03  0.30712628619E+03  0.12509076693E+03 0.  0.
          5    1    3    3  502    0 -0.31635179652E+02 -0.34504049640E+02  0.34108397234E+02  0.58070381392E+02  0.41800000000E+01 0. -1.
         -5    1    3    3    0  502  0.56776475961E+02 -0.53486877711E+01  0.24240295920E+03  0.24905590480E+03  0.41800000000E+01 0. -1.
        -11    1    1    2    0    0 -0.31628055456E+02 -0.23594351056E+02  0.52463964878E+02  0.65646743288E+02  0.00000000000E+00 0. -1.
         11    1    1    2    0    0  0.64867591466E+01  0.63447088468E+02  0.11219745126E+03  0.12905765824E+03  0.00000000000E+00 0.  1.
</event>
<event>
 7    1  0.2384639E-009  0.1072137E+03  0.7561462E-02  0.1265818E+00
          1   -1    0    0  501    0  0.00000000000E+00  0.00000000000E+00  0.15435231529E+03  0.15435231529E+03  0.00000000000E+00 0. -1.
         -1   -1    0    0    0  501 -0.00000000000E+00 -0.00000000000E+00 -0.13026906395E+03  0.13026906395E+03  0.00000000000E+00 0.  1.
         25    2    1    2    0    0 -0.68209022081E+02  0.10116915763E+00 -0.46563675230E+02  0.14987873122E+03  0.12507188850E+03 0.  0.
          5    1    3    3  502    0 -0.73178337347E+01  0.30716043976E+02  0.32435631066E+02  0.45459527172E+02  0.41800000000E+01 0. -1.
         -5    1    3    3    0  502 -0.60891188347E+02 -0.30614874818E+02 -0.78999306296E+02  0.10441920405E+03  0.41800000000E+01 0. -1.
        -11    1    1    2    0    0  0.43779885084E+02  0.45137053526E+02  0.44726287565E+02  0.77165230112E+02  0.00000000000E+00 0. -1.
         11    1    1    2    0    0  0.24429136998E+02 -0.45238222684E+02  0.25920639003E+02  0.57577417903E+02  0.00000000000E+00 0.  1.
</event>
<event>
 7    1  0.2384639E-009  0.1174829E+03  0.7561462E-02  0.1247308E+00
          1   -1    0    0  501    0  0.00000000000E+00  0.00000000000E+00  0.63117266723E+03  0.63117266723E+03  0.00000000000E+00 0. -1.
         -1   -1    0    0    0  501 -0.00000000000E+00 -0.00000000000E+00 -0.25824764665E+02  0.25824764665E+02  0.00000000000E+00 0.  1.
         25    2    1    2    0    0 -0.25663180050E+02 -0.45939504884E+02  0.44088982730E+03  0.46130204994E+03  0.12508678805E+03 0.  0.
          5    1    3    3  502    0 -0.45380431340E+02 -0.82320850293E+02  0.30209037647E+03  0.31640507881E+03  0.41800000000E+01 0.  1.
         -5    1    3    3    0  502  0.19717251290E+02  0.36381345409E+02  0.13879945082E+03  0.14489697113E+03  0.41800000000E+01 0.  1.
        -11    1    1    2    0    0  0.51959193356E+02  0.71941152935E+01  0.51925116408E+02  0.73808744624E+02  0.00000000000E+00 0.  1.
         11    1    1    2    0    0 -0.26296013305E+02  0.38745389590E+02  0.11253295886E+03  0.12188663733E+03  0.00000000000E+00 0. -1.
</event>
<event>
 7    1  0.2384639E-009  0.8068764E+02  0.7561462E-02  0.1327111E+00
         -1   -1    0    0    0  501 -0.00000000000E+00  0.00000000000E+00  0.33696900794E+02  0.33696900794E+02  0.00000000000E+00 0.  1.
          1   -1    0    0  501    0  0.00000000000E+00 -0.00000000000E+00 -0.34467074128E+03  0.34467074128E+03  0.00000000000E+00 0. -1.
         25    2    1    2    0    0  0.69499980613E+01 -0.97604905337E+01 -0.21910213720E+03  0.25258063453E+03  0.12509061022E+03 0.  0.
          5    1    3    3  502    0  0.18707485092E+02  0.50627479693E+02 -0.54542471605E+02  0.76847025364E+02  0.41800000000E+01 0. -1.
         -5    1    3    3    0  502 -0.11757487031E+02 -0.60387970227E+02 -0.16455966560E+03  0.17573360917E+03  0.41800000000E+01 0. -1.
        -11    1    1    2    0    0 -0.17115233799E+02 -0.12440673631E+02 -0.98288541049E+02  0.10054023518E+03  0.00000000000E+00 0. -1.
         11    1    1    2    0    0  0.10165235738E+02  0.22201164165E+02  0.64168377652E+01  0.25246772364E+02  0.00000000000E+00 0.  1.
</event>
<event>
 7    1  0.2384639E-009  0.7084196E+02  0.7561462E-02  0.1357253E+00
          2   -1    0    0  501    0  0.00000000000E+00  0.00000000000E+00  0.84056362641E+03  0.84056362641E+03  0.00000000000E+00 0. -1.
         -2   -1    0    0    0  501 -0.00000000000E+00 -0.00000000000E+00 -0.16362438213E+02  0.16362438213E+02  0.00000000000E+00 0.  1.
         25    2    1    2    0    0 -0.37579410025E+02  0.13054062490E+02  0.39528509425E+03  0.41650947517E+03  0.12508883469E+03 0.  0.
          5    1    3    3  502    0 -0.21042247447E+02  0.13059540333E+01  0.82805234437E+00  0.21509062374E+02  0.41800000000E+01 0.  1.
         -5    1    3    3    0  502 -0.16537162578E+02  0.11748108457E+02  0.39445704191E+03  0.39500041280E+03  0.41800000000E+01 0.  1.
        -11    1    1    2    0    0  0.46102988057E+01 -0.49856336566E+02  0.19366199636E+03  0.20002969276E+03  0.00000000000E+00 0. -1.
         11    1    1    2    0    0  0.32969111219E+02  0.36802274076E+02  0.23525409759E+03  0.24038689670E+03  0.00000000000E+00 0.  1.
</event>
<event>
 7    1  0.2384639E-009  0.1150385E+03  0.7561462E-02  0.1251514E+00
          3   -1    0    0  501    0  0.00000000000E+00  0.00000000000E+00  0.37231272711E+02  0.37231272711E+02  0.00000000000E+00 0. -1.
         -3   -1    0    0    0  501 -0.00000000000E+00 -0.00000000000E+00 -0.45300918432E+03  0.45300918432E+03  0.00000000000E+00 0.  1.
         25    2    1    2    0    0 -0.41787030347E+02  0.40746567561E+01 -0.12227657727E+03  0.17989316543E+03  0.12508889194E+03 0.  0.
          5    1    3    3  502    0 -0.40834272913E+02  0.61391974535E+02 -0.77324740675E+02  0.10692520892E+03  0.41800000000E+01 0. -1.
         -5    1    3    3    0  502 -0.95275743466E+00 -0.57317317779E+02 -0.44951836598E+02  0.72967956512E+02  0.41800000000E+01 0. -1.
        -11    1    1    2    0    0  0.55857088003E+02 -0.34203218773E+02 -0.16277504345E+03  0.17545822644E+03  0.00000000000E+00 0.  1.
         11    1    1    2    0    0 -0.14070057655E+02  0.30128562017E+02 -0.13072629088E+03  0.13488906516E+03  0.00000000000E+00 0. -1.
</event>
<event>
 7    1  0.2384639E-009  0.7972573E+02  0.7561462E-02  0.1329832E+00
          3   -1    0    0  501    0  0.00000000000E+00  0.00000000000E+00  0.55017238830E+02  0.55017238830E+02  0.00000000000E+00 0. -1.
         -3   -1    0    0    0  501 -0.00000000000E+00 -0.00000000000E+00 -0.28547606738E+03  0.28547606738E+03  0.00000000000E+00 0.  1.
         25    2    1    2    0    0  0.49934739124E+02  0.24166163069E+02 -0.13447151512E+03  0.19185470537E+03  0.12509259764E+03 0.  0.
          5    1    3    3  502    0  0.44070637247E+01 -0.14363584438E+02  0.20495253731E+02  0.25753885028E+02  0.41800000000E+01 0. -1.
         -5    1    3    3    0  502  0.45527675399E+02  0.38529747507E+02 -0.15496676885E+03  0.16610082034E+03  0.41800000000E+01 0. -1.
        -11    1    1    2    0    0 -0.53879388336E+02  0.54818981490E+01 -0.10436324199E+03  0.11757859488E+03  0.00000000000E+00 0.  1.
         11    1    1    2    0    0  0.39446492115E+01 -0.29648061218E+02  0.83759285576E+01  0.31060005966E+02  0.00000000000E+00 0. -1.
</event>
<event>
 7    1  0.2847482E-009  0.1784332E+03  0.7561462E-02  0.1169328E+00
         -2   -1    0    0    0  501 -0.00000000000E+00  0.00000000000E+00  0.47462501990E+02  0.47462501990E+02  0.00000000000E+00 0.  1.
          2   -1    0    0  501    0  0.00000000000E+00 -0.00000000000E+00 -0.75421557642E+03  0.75421557642E+03  0.00000000000E+00 0. -1.
         25    2    1    2    0    0  0.15001224845E+03 -0.36049381730E+02 -0.35337842069E+03  0.40537438250E+03  0.12509536030E+03 0.  0.
          5    1    3    3  502    0  0.14622092391E+03 -0.49478847315E+01 -0.34161091138E+03  0.37164570134E+03  0.41800000000E+01 0.  1.
         -5    1    3    3    0  502  0.37913245498E+01 -0.31101496998E+02 -0.11767509310E+02  0.33728681159E+02  0.41800000000E+01 0.  1.
        -11    1    1    2    0    0 -0.92315962534E+02 -0.24238682409E+02 -0.17366867524E+03  0.19816800807E+03  0.00000000000E+00 0. -1.
         11    1    1    2    0    0 -0.57696285921E+02  0.60288064139E+02 -0.17970597850E+03  0.19813568784E+03  0.00000000000E+00 0.  1.
</event>
<event>
 7    1  0.2384639E-009  0.7526049E+02  0.7561462E-02  0.1343066E+00
         -2   -1    0    0    0  501 -0.00000000000E+00  0.00000000000E+00  0.27645917607E+03  0.27645917607E+03  0.00000000000E+00 0.  1.
          2   -1    0    0  501    0  0.00000000000E+00 -0.00000000000E+00 -0.49899215841E+02  0.49899215841E+02  0.00000000000E+00 0. -1.
         25    2    1    2    0    0  0.75069105909E+00  0.51935876802E+01  0.19119941546E+03  0.22854420992E+03  0.12509077713E+03 0.  0.
          5    1    3    3  502    0  0.46015424623E+02  0.32999054166E+02  0.15238565813E+03  0.16261985759E+03  0.41800000000E+01 0. -1.
         -5    1    3    3    0  502 -0.45264733564E+02 -0.27805466486E+02  0.38813757330E+02  0.65924352323E+02  0.41800000000E+01 0. -1.
        -11    1    1    2    0    0  0.17530064098E+02 -0.11672029572E+02 -0.26001122209E+02  0.33460391178E+02  0.00000000000E+00 0. -1.
         11    1    1    2    0    0 -0.18280755157E+02  0.64784418916E+01  0.61361666972E+02  0.64353790814E+02  0.00000000000E+00 0.  1.
</event>
<event>
 7    1  0.2384639E-009  0.9931931E+02  0.7561462E-02  0.1281734E+00
         -2   -1    0    0    0  501 -0.00000000000E+00  0.00000000000E+00  0.25815741368E+02  0.25815741368E+02  0.00000000000E+00 0.  1.
          2   -1    0    0  501    0  0.00000000000E+00 -0.00000000000E+00 -0.64620131176E+03  0.64620131176E+03  0.00000000000E+00 0. -1.
         25    2    1    2    0    0 -0.53810464972E+02 -0.29692591956E+02 -0.20778839797E+03  0.25019995028E+03  0.12508709217E+03 0.  0.
          5    1    3    3  502    0 -0.56101984603E+02 -0.59691668674E+02 -0.66246187597E+02  0.10543508788E+03  0.41800000000E+01 0.  1.
         -5    1    3    3    0  502  0.22915196313E+01  0.29999076718E+02 -0.14154221038E+03  0.14476486239E+03  0.41800000000E+01 0.  1.
        -11    1    1    2    0    0  0.14601587119E+02 -0.18846983983E+02 -0.82572004112E+02  0.85945046481E+02  0.00000000000E+00 0.  1.
         11    1    1    2    0    0  0.39208877853E+02  0.48539575938E+02 -0.33002516830E+03  0.33587205637E+03  0.00000000000E+00 0. -1.
</event>
<event>
 7    1  0.2384639E-009  0.1026646E+03  0.7561462E-02  0.1274790E+00
          2   -1    0    0  501    0  0.00000000000E+00  0.00000000000E+00  0.25501580745E+02  0.25501580745E+02  0.00000000000E+00 0. -1.
         -2   -1    0    0    0  501 -0.00000000000E+00 -0.00000000000E+00 -0.86266519054E+03  0.86266519054E+03  0.00000000000E+00 0.  1.
         25    2    1    2    0    0  0.26104006863E+02  0.42256013199E+02 -0.77157462619E+03  0.78322443226E+03  0.12508444221E+03 0.  0.
          5    1    3    3  502    0  0.70782982061E+02  0.48724419833E+02 -0.58073961367E+03  0.58707773840E+03  0.41800000000E+01 0. -1.
         -5    1    3    3    0  502 -0.44678975198E+02 -0.64684066334E+01 -0.19083501251E+03  0.19614669386E+03  0.41800000000E+01 0. -1.
        -11    1    1    2    0    0  0.13785182034E+02 -0.28681239470E+02 -0.66807285177E+01  0.32515794236E+02  0.00000000000E+00 0. -1.
         11    1    1    2    0    0 -0.39889188897E+02 -0.13574773729E+02 -0.58908255091E+02  0.72426544793E+02  0.00000000000E+00 0.  1.
</event>
<event>
 7    1  0.2384639E-009  0.1143519E+03  0.7561462E-02  0.1252717E+00
          1   -1    0    0  501    0  0.00000000000E+00  0.00000000000E+00  0.83025003271E+02  0.83025003271E+02  0.00000000000E+00 0. -1.
         -1   -1    0    0    0  501 -0.00000000000E+00 -0.00000000000E+00 -0.19368797799E+03  0.19368797799E+03  0.00000000000E+00 0.  1.
         25    2    1    2    0    0 -0.36164239915E+02 -0.54416338803E+02 -0.68128212701E+02  0.15671017257E+03  0.12509050582E+03 0.  0.
          5    1    3    3  502    0  0.42817991656E+02  0.24631357442E+01 -0.14275395912E+02  0.45395008267E+02  0.41800000000E+01 0. -1.
         -5    1    3    3    0  502 -0.78982231571E+02 -0.56879474547E+02 -0.53852816789E+02  0.11131516431E+03  0.41800000000E+01 0. -1.
        -11    1    1    2    0    0  0.52747240253E+02  0.43063871075E+02  0.51178050364E+01  0.68285871706E+02  0.00000000000E+00 0. -1.
         11    1    1    2    0    0 -0.16583000338E+02  0.11352467728E+02 -0.47652567058E+02  0.51716936983E+02  0.00000000000E+00 0.  1.
</event>
<event>
 7    1  0.2384639E-009  0.1005205E+03  0.7561462E-02  0.1279205E+00
          2   -1    0    0  501    0  0.00000000000E+00  0.00000000000E+00  0.47862563927E+03  0.47862563927E+03  0.00000000000E+00 0.  1.
         -2   -1    0    0    0  501 -0.00000000000E+00 -0.00000000000E+00 -0.41178849709E+02  0.41178849709E+02  0.00000000000E+00 0. -1.
         25    2    1    2    0    0  0.49168423635E+01  0.84273008211E+02  0.29097430434E+03  0.32777922712E+03  0.12508821164E+03 0.  0.
          5    1    3    3  502    0  0.46002698553E+01  0.78369437198E+02  0.65883825867E+02  0.10257232609E+03  0.41800000000E+01 0.  1.
         -5    1    3    3    0  502  0.31657250817E+00  0.59035710125E+01  0.22509047847E+03  0.22520690102E+03  0.41800000000E+01 0.  1.
        -11    1    1    2    0    0 -0.29363182194E+02 -0.20836424444E+01  0.74397557732E+02  0.80009590868E+02  0.00000000000E+00 0. -1.
         11    1    1    2    0    0  0.24446339830E+02 -0.82189365766E+02  0.72074927493E+02  0.11201567100E+03  0.00000000000E+00 0.  1.
</event>
<event>
 7    1  0.2384639E-009  0.7855721E+02  0.7561462E-02  0.1333196E+00
          1   -1    0    0  501    0  0.00000000000E+00  0.00000000000E+00  0.93308100771E+03  0.93308100771E+03  0.00000000000E+00 0. -1.
         -1   -1    0    0    0  501 -0.00000000000E+00 -0.00000000000E+00 -0.18580427618E+02  0.18580427618E+02  0.00000000000E+00 0.  1.
         25    2    1    2    0    0  0.53185182262E+02 -0.16533881568E+02  0.70745967399E+03  0.72058922703E+03  0.12509041108E+03 0.  0.
          5    1    3    3  502    0  0.29520004260E+02 -0.28179494850E+02  0.60609798059E+02  0.73188350181E+02  0.41800000000E+01 0. -1.
         -5    1    3    3    0  502  0.23665178002E+02  0.11645613282E+02  0.64684987593E+03  0.64740087685E+03  0.41800000000E+01 0. -1.
        -11    1    1    2    0    0 -0.56789486872E+02 -0.14121646575E+02  0.73189440412E+02  0.93707848705E+02  0.00000000000E+00 0.  1.
         11    1    1    2    0    0  0.36043046102E+01  0.30655528144E+02  0.13385146569E+03  0.13736435959E+03  0.00000000000E+00 0. -1.
</event>
<event>
 7    1  0.2384639E-009  0.1069665E+03  0.7561462E-02  0.1266293E+00
          1   -1    0    0  501    0  0.00000000000E+00  0.00000000000E+00  0.44922895682E+03  0.44922895682E+03  0.00000000000E+00 0. -1.
         -1   -1    0    0    0  501 -0.00000000000E+00 -0.00000000000E+00 -0.43606224612E+02  0.43606224612E+02  0.00000000000E+00 0.  1.
         25    2    1    2    0    0 -0.34144187950E+02 -0.38096814802E+01  0.94828143844E+02  0.16069513826E+03  0.12510080477E+03 0.  0.
          5    1    3    3  502    0 -0.67537176108E+02 -0.19986600277E+02  0.10063672986E+03  0.12290629823E+03  0.41800000000E+01 0.  1.
         -5    1    3    3    0  502  0.33392988158E+02  0.16176918797E+02 -0.58085860144E+01  0.37788840037E+02  0.41800000000E+01 0.  1.
        -11    1    1    2    0    0  0.66815119472E+01  0.51000767330E+02  0.81029563468E+02  0.95976617080E+02  0.00000000000E+00 0.  1.
         11    1    1    2    0    0  0.27462676002E+02 -0.47191085850E+02  0.22976502489E+03  0.23616342609E+03  0.00000000000E+00 0. -1.
</event>
<event>
 7    1  0.2384639E-009  0.1138823E+03  0.7561462E-02  0.1253545E+00
         -2   -1    0    0    0  501 -0.00000000000E+00  0.00000000000E+00  0.70122233853E+02  0.70122233853E+02  0.00000000000E+00 0.  1.
          2   -1    0    0  501    0  0.00000000000E+00 -0.00000000000E+00 -0.22493935465E+03  0.22493935465E+03  0.00000000000E+00 0. -1.
         25    2    1    2    0    0  0.51454614418E+02 -0.49158589378E+01 -0.13490531653E+03  0.19109626343E+03  0.12508634800E+03 0.  0.
          5    1    3    3  502    0 -0.41068984936E+02 -0.78949372232E+01 -0.33663754336E+02  0.53848976902E+02  0.41800000000E+01 0.  1.
         -5    1    3    3    0  502  0.92523599354E+02  0.29790782854E+01 -0.10124156220E+03  0.13724728653E+03  0.41800000000E+01 0.  1.
        -11    1    1    2    0    0 -0.68063780273E+02 -0.12279178926E+02  0.51194897139E+01  0.69351752646E+02  0.00000000000E+00 0.  1.
         11    1    1    2    0    0  0.16609165855E+02  0.17195037864E+02 -0.25031293983E+02  0.34613572425E+02  0.00000000000E+00 0. -1.
</event>
<event>
 7    1  0.2384639E-009  0.1361887E+03  0.7561462E-02  0.1218551E+00
          1   -1    0    0  501    0  0.00000000000E+00  0.00000000000E+00  0.78559513411E+03  0.78559513411E+03  0.00000000000E+00 0. -1.
         -1   -1    0    0    0  501 -0.00000000000E+00 -0.00000000000E+00 -0.26138944712E+02  0.26138944712E+02  0.00000000000E+00 0.  1.
         25    2    1    2    0    0  0.78218210305E+02  0.52710282058E+02  0.48116073932E+03  0.50602334104E+03  0.12508997704E+03 0.  0.
          5    1    3    3  502    0  0.55564956804E+02  0.92933470625E+02  0.37119605384E+03  0.38668860492E+03  0.41800000000E+01 0.  1.
         -5    1    3    3    0  502  0.22653253501E+02 -0.40223188567E+02  0.10996468548E+03  0.11933473612E+03  0.41800000000E+01 0.  1.
        -11    1    1    2    0    0 -0.28080406171E+02  0.16221567108E+02  0.13622775926E+03  0.14003446305E+03  0.00000000000E+00 0. -1.
         11    1    1    2    0    0 -0.50137804133E+02 -0.68931849166E+02  0.14206769082E+03  0.16567627473E+03  0.00000000000E+00 0.  1.
</event>
<event>
 7    1  0.2384639E-009  0.1735379E+03  0.7561462E-02  0.1174208E+00
          1   -1    0    0  501    0  0.00000000000E+00  0.00000000000E+00  0.31430470889E+03  0.31430470889E+03  0.00000000000E+00 0. -1.
         -1   -1    0    0    0  501 -0.00000000000E+00 -0.00000000000E+00 -0.12732232188E+03  0.12732232188E+03  0.00000000000E+00 0.  1.
         25    2    1    2    0    0 -0.72237942453E+02  0.12520397833E+03  0.42104808109E+01  0.19120626659E+03  0.12509097376E+03 0.  0.
          5    1    3    3  502    0  0.35939570271E+02  0.30498099899E+02  0.14385656513E+01  0.47342672927E+02  0.41800000000E+01 0.  1.
         -5    1    3    3    0  502 -0.10817751272E+03  0.94705878428E+02  0.27719151597E+01  0.14386359366E+03  0.41800000000E+01 0.  1.
        -11    1    1    2    0    0 -0.10240090674E+02 -0.17284838146E+02 -0.29752617076E+01  0.20309536405E+02  0.00000000000E+00 0.  1.
         11    1    1    2    0    0  0.82478033127E+02 -0.10791914018E+03  0.18574716791E+03  0.23011122778E+03  0.00000000000E+00 0. -1.
</event>
<event>
 7    1  0.2384639E-009  0.6637842E+02  0.7561462E-02  0.1372860E+00
          2   -1    0    0  501    0  0.00000000000E+00  0.00000000000E+00  0.31283118396E+02  0.31283118396E+02  0.00000000000E+00 0. -1.
         -2   -1    0    0    0  501 -0.00000000000E+00 -0.00000000000E+00 -0.44756295514E+03  0.44756295514E+03  0.00000000000E+00 0.  1.
         25    2    1    2    0    0  0.29623532861E+02 -0.28757334033E+02 -0.19178214880E+03  0.23266414991E+03  0.12509067149E+03 0.  0.
          5    1    3    3  502    0 -0.11583391354E+02 -0.22863981601E+02 -0.18895710032E+03  0.19073330797E+03  0.41800000000E+01 0. -1.
         -5    1    3    3    0  502  0.41206924215E+02 -0.58933524321E+01 -0.28250484807E+01  0.41930841931E+02  0.41800000000E+01 0. -1.
        -11    1    1    2    0    0 -0.36201165911E+02  0.77773554149E+00 -0.21160450855E+03  0.21468022109E+03  0.00000000000E+00 0.  1.
         11    1    1    2    0    0  0.65776330496E+01  0.27979598491E+02 -0.12893179389E+02  0.31501702541E+02  0.00000000000E+00 0. -1.
</event>
<event>
 7    1  0.2384639E-009  0.9308956E+02  0.7561462E-02  0.1295538E+00
          1   -1    0    0  501    0  0.00000000000E+00  0.00000000000E+00  0.91146292652E+02  0.91146292652E+02  0.00000000000E+00 0. -1.
         -1   -1    0    0    0  501 -0.00000000000E+00 -0.00000000000E+00 -0.15950619644E+03  0.15950619644E+03  0.00000000000E+00 0.  1.
         25    2    1    2    0    0 -0.49856125558E+02 -0.36216472869E+00 -0.28102800923E+02  0.13755907181E+03  0.12508783473E+03 0.  0.
          5    1    3    3  502    0 -0.33051349916E+02  0.60794591105E+02 -0.35323044905E+01  0.69414145632E+02  0.41800000000E+01 0.  1.
         -5    1    3    3    0  502 -0.16804775642E+02 -0.61156755833E+02 -0.24570496433E+02  0.68144926175E+02  0.41800000000E+01 0.  1.
        -11    1    1    2    0    0  0.12361952935E+02 -0.82000135234E+01 -0.65454732338E+02  0.67114678630E+02  0.00000000000E+00 0.  1.
         11    1    1    2    0    0  0.37494172623E+02  0.85621782521E+01  0.25197629474E+02  0.45978738654E+02  0.00000000000E+00 0. -1.
</event>
<event>
 7    1  0.2384639E-009  0.1795442E+03  0.7561462E-02  0.1168245E+00
         -2   -1    0    0    0  501 -0.00000000000E+00  0.00000000000E+00  0.15394370568E+03  0.15394370568E+03  0.00000000000E+00 0.  1.
          2   -1    0    0  501    0  0.00000000000E+00 -0.00000000000E+00 -0.43481904901E+03  0.43481904901E+03  0.00000000000E+00 0. -1.
         25    2    1    2    0    0  0.11539483353E+03 -0.85370669888E+02  0.66661189871E+02  0.20173483956E+03  0.12509641231E+03 0.  0.
          5    1    3    3  502    0  0.82142540891E+02  0.14499022696E+02  0.16810694475E+02  0.85192080218E+02  0.41800000000E+01 0. -1.
         -5    1    3    3    0  502  0.33252292641E+02 -0.99869692584E+02  0.49850495396E+02  0.11654275934E+03  0.41800000000E+01 0. -1.
        -11    1    1    2    0    0 -0.61693318677E+02  0.97307300914E+02 -0.22921463114E+03  0.25654263488E+03  0.00000000000E+00 0. -1.
         11    1    1    2    0    0 -0.53701514855E+02 -0.11936631026E+02 -0.11832190206E+03  0.13048528026E+03  0.00000000000E+00 0.  1.
</event>
<event>
 7    1  0.2384639E-009  0.2374991E+03  0.7561462E-02  0.1121470E+00
         -1   -1    0    0    0  501 -0.00000000000E+00  0.00000000000E+00  0.15610171368E+03  0.15610171368E+03  0.00000000000E+00 0.  1.
          1   -1    0    0  501    0  0.00000000000E+00 -0.00000000000E+00 -0.54823981650E+03  0.54823981650E+03  0.00000000000E+00 0. -1.
         25    2    1    2    0    0 -0.42439731086E+01  0.21876047467E+03 -0.39436369857E+03  0.46802257814E+03  0.12509296668E+03 0.  0.
          5    1    3    3  502    0 -0.56422412799E+02  0.14290525438E+03 -0.29407187803E+03  0.33181492167E+03  0.41800000000E+01 0.  1.
         -5    1    3    3    0  502  0.52178439690E+02  0.75855220292E+02 -0.10029182055E+03  0.13620765648E+03  0.41800000000E+01 0.  1.
        -11    1    1    2    0    0 -0.31741953636E+02 -0.89533655253E+02  0.29422282984E+02  0.99445954064E+02  0.00000000000E+00 0.  1.
         11    1    1    2    0    0  0.35985926744E+02 -0.12922681941E+03 -0.27196687228E+02  0.13687299798E+03  0.00000000000E+00 0. -1.
</event>
<event>
 7    1  0.2384639E-009  0.1072098E+03  0.7561462E-02  0.1265826E+00
          1   -1    0    0  501    0  0.00000000000E+00  0.00000000000E+00  0.33563324696E+03  0.33563324696E+03  0.00000000000E+00 0. -1.
         -1   -1    0    0    0  501 -0.00000000000E+00 -0.00000000000E+00 -0.43008958409E+02  0.43008958409E+02  0.00000000000E+00 0.  1.
         25    2    1    2    0    0  0.15628469668E+02 -0.10048895474E+02  0.85982004580E+02  0.15292473019E+03  0.12509132115E+03 0.  0.
          5    1    3    3  502    0  0.37334864454E+02 -0.59145030479E+02  0.33235663085E+02  0.77550683007E+02  0.41800000000E+01 0. -1.
         -5    1    3    3    0  502 -0.21706394786E+02  0.49096135006E+02  0.52746341495E+02  0.75374047180E+02  0.41800000000E+01 0. -1.
        -11    1    1    2    0    0 -0.34182841642E+02 -0.30566465336E+02  0.11394258990E+03  0.12282381389E+03  0.00000000000E+00 0.  1.
         11    1    1    2    0    0  0.18554371974E+02  0.40615360810E+02  0.92699694075E+02  0.10289366129E+03  0.00000000000E+00 0. -1.
</event>
<event>
 7    1  0.2711696E-009  0.9228443E+02  0.7561462E-02  0.1297412E+00
         -1   -1    0    0    0  501 -0.00000000000E+00  0.00000000000E+00  0.47365391090E+02  0.47365391090E+02  0.00000000000E+00 0.  1.
          1   -1    0    0  501    0  0.00000000000E+00 -0.00000000000E+00 -0.33355568387E+03  0.33355568387E+03  0.00000000000E+00 0. -1.
         25    2    1    2    0    0 -0.50613820273E+02  0.15229213157E+01 -0.10119591445E+03  0.16867074069E+03  0.12508048437E+03 0.  0.
          5    1    3    3  502    0  0.21159253216E+02 -0.36180013078E+02 -0.44175083271E+01  0.42352026195E+02  0.41800000000E+01 0.  1.
         -5    1    3    3    0  502 -0.71773073489E+02  0.37702934394E+02 -0.96778406123E+02  0.12631871449E+03  0.41800000000E+01 0.  1.
        -11    1    1    2    0    0  0.13870305130E+02  0.15475691197E+02  0.20425996450E+01  0.20881920308E+02  0.00000000000E+00 0.  1.
         11    1    1    2    0    0  0.36743515143E+02 -0.16998612513E+02 -0.18703697797E+03  0.19136841396E+03  0.00000000000E+00 0. -1.
</event>
<event>
 7    1  0.3187200E-009  0.1167367E+03  0.7561462E-02  0.1248580E+00
          2   -1    0    0  501    0  0.00000000000E+00  0.00000000000E+00  0.50548391207E+03  0.50548391207E+03  0.00000000000E+00 0. -1.
         -2   -1    0    0    0  501 -0.00000000000E+00 -0.00000000000E+00 -0.36832853263E+02  0.36832853263E+02  0.00000000000E+00 0.  1.
         25    2    1    2    0    0  0.29178661740E+02  0.63488727867E+02  0.34408898759E+03  0.37272945720E+03  0.12509118281E+03 0.  0.
          5    1    3    3  502    0  0.63167119051E+02  0.81002541521E+02  0.27603917014E+03  0.29456169560E+03  0.41800000000E+01 0. -1.
         -5    1    3    3    0  502 -0.33988457312E+02 -0.17513813654E+02  0.68049817450E+02  0.78167761603E+02  0.41800000000E+01 0. -1.
        -11    1    1    2    0    0  0.11057897680E+02 -0.47726733415E+02  0.11546232155E+03  0.12542593783E+03  0.00000000000E+00 0. -1.
         11    1    1    2    0    0 -0.40236559419E+02 -0.15761994452E+02  0.90997496728E+01  0.44161370304E+02  0.00000000000E+00 0.  1.
</event>
<event>
 7    1  0.2384639E-009  0.1075482E+03  0.7561462E-02  0.1265179E+00
          1   -1    0    0  501    0  0.00000000000E+00  0.00000000000E+00  0.69684072996E+03  0.69684072996E+03  0.00000000000E+00 0. -1.
         -1   -1    0    0    0  501 -0.00000000000E+00 -0.00000000000E+00 -0.31655059123E+02  0.31655059123E+02  0.00000000000E+00 0.  1.
         25    2    1    2    0    0 -0.33747605570E+02 -0.90927722201E+02  0.44530942334E+03  0.47260486496E+03  0.12509246309E+03 0.  0.
          5    1    3    3  502    0 -0.32237002267E+02 -0.98851738926E+02  0.45034934053E+03  0.46221520044E+03  0.41800000000E+01 0. -1.
         -5    1    3    3    0  502 -0.15106033035E+01  0.79240167250E+01 -0.50399171934E+01  0.10389664514E+02  0.41800000000E+01 0. -1.
        -11    1    1    2    0    0  0.35838999165E+02  0.53080884838E+02  0.20567000246E+03  0.21541161554E+03  0.00000000000E+00 0. -1.
         11    1    1    2    0    0 -0.20913935944E+01  0.37846837362E+02  0.14206245034E+02  0.40479308584E+02  0.00000000000E+00 0.  1.
</event>
<event>
 7    1  0.2384639E-009  0.1081206E+03  0.7561462E-02  0.1264090E+00
         -2   -1    0    0    0  501 -0.00000000000E+00  0.00000000000E+00  0.20235126523E+03  0.20235126523E+03  0.00000000000E+00 0. -1.
          2   -1    0    0  501    0  0.00000000000E+00 -0.00000000000E+00 -0.74483721075E+02  0.74483721075E+02  0.00000000000E+00 0.  1.
         25    2    1    2    0    0 -0.25962544825E+02 -0.19355212963E+02  0.18319406124E+02  0.13051150338E+03  0.12509585873E+03 0.  0.
          5    1    3    3  502    0 -0.39993710540E+02 -0.67001174997E+02  0.23711895284E+01  0.78177677591E+02  0.41800000000E+01 0. -1.
         -5    1    3    3    0  502  0.14031165715E+02  0.47645962034E+02  0.15948216596E+02  0.52333825792E+02  0.41800000000E+01 0. -1.
        -11    1    1    2    0    0 -0.24017519984E+02  0.28684282512E+02  0.77945741850E+02  0.86459053904E+02  0.00000000000E+00 0. -1.
         11    1    1    2    0    0  0.49980064809E+02 -0.93290695485E+01  0.31602396177E+02  0.59864429013E+02  0.00000000000E+00 0.  1.
</event>
<event>
 7    1  0.2384639E-009  0.1390461E+03  0.7561462E-02  0.1214618E+00
         -2   -1    0    0    0  501 -0.00000000000E+00  0.00000000000E+00  0.24691166515E+02  0.24691166515E+02  0.00000000000E+00 0.  1.
          2   -1    0    0  501    0  0.00000000000E+00 -0.00000000000E+00 -0.98522987510E+03  0.98522987510E+03  0.00000000000E+00 0. -1.
         25    2    1    2    0    0  0.38383404108E+01 -0.11070248290E+03 -0.57310995336E+03  0.59696928909E+03  0.12509013107E+03 0.  0.
          5    1    3    3  502    0 -0.51897401250E+02 -0.96117964915E+02 -0.37761794748E+03  0.39312185146E+03  0.41800000000E+01 0.  1.
         -5    1    3    3    0  502  0.55735741660E+02 -0.14584517989E+02 -0.19549200588E+03  0.20384743763E+03  0.41800000000E+01 0.  1.
        -11    1    1    2    0    0  0.16968560955E+01  0.57528176943E+02 -0.68028045486E+02  0.89107718160E+02  0.00000000000E+00 0. -1.
         11    1    1    2    0    0 -0.55351965063E+01  0.53174305960E+02 -0.31940070974E+03  0.32384403437E+03  0.00000000000E+00 0.  1.
</event>
<event>
 7    1  0.2384639E-009  0.9750378E+02  0.7561462E-02  0.1285634E+00
         -2   -1    0    0    0  501 -0.00000000000E+00  0.00000000000E+00  0.11613533186E+03  0.11613533186E+03  0.00000000000E+00 0.  1.
          2   -1    0    0  501    0  0.00000000000E+00 -0.00000000000E+00 -0.13840537827E+03  0.13840537827E+03  0.00000000000E+00 0. -1.
         25    2    1    2    0    0  0.35241250885E+02 -0.22429506104E+02  0.39476125114E+02  0.13766388631E+03  0.12509177684E+03 0.  0.
          5    1    3    3  502    0  0.67080302040E+02  0.11349763287E+02 -0.10907290226E+02  0.69029163608E+02  0.41800000000E+01 0. -1.
         -5    1    3    3    0  502 -0.31839051155E+02 -0.33779269391E+02  0.50383415340E+02  0.68634722702E+02  0.41800000000E+01 0. -1.
        -11    1    1    2    0    0  0.20670833908E+02  0.22362289681E+01  0.10520147283E+02  0.23301450455E+02  0.00000000000E+00 0.  1.
         11    1    1    2    0    0 -0.55912084793E+02  0.20193277136E+02 -0.72266318806E+02  0.93575373369E+02  0.00000000000E+00 0. -1.
</event>
<event>
 7    1  0.2384639E-009  0.1204818E+03  0.7561462E-02  0.1242304E+00
         -1   -1    0    0    0  501 -0.00000000000E+00  0.00000000000E+00  0.17281267935E+03  0.17281267935E+03  0.00000000000E+00 0.  1.
          1   -1    0    0  501    0  0.00000000000E+00 -0.00000000000E+00 -0.10509884050E+03  0.10509884050E+03  0.00000000000E+00 0. -1.
         25    2    1    2    0    0  0.43343471871E+02  0.35828253556E+02  0.72762441591E+02  0.15525561769E+03  0.12509042174E+03 0.  0.
          5    1    3    3  502    0  0.34387243264E+02 -0.33615450453E+02 -0.72935214792E+01  0.48817505713E+02  0.41800000000E+01 0.  1.
         -5    1    3    3    0  502  0.89562286067E+01  0.69443704009E+02  0.80055963070E+02  0.10643811197E+03  0.41800000000E+01 0.  1.
        -11    1    1    2    0    0 -0.66566344511E+02  0.13597482815E+02 -0.30961464222E+01  0.68011439355E+02  0.00000000000E+00 0. -1.
         11    1    1    2    0    0  0.23222872640E+02 -0.49425736370E+02 -0.19524563169E+01  0.54644462804E+02  0.00000000000E+00 0.  1.
</event>
<event>
 7    1  0.2384639E-009  0.1008452E+03  0.7561462E-02  0.1278529E+00
         -3   -1    0    0    0  501 -0.00000000000E+00  0.00000000000E+00  0.14585405706E+03  0.14585405706E+03  0.00000000000E+00 0.  1.
          3   -1    0    0  501    0  0.00000000000E+00 -0.00000000000E+00 -0.88866272207E+02  0.88866272207E+02  0.00000000000E+00 0. -1.
         25    2    1    2    0    0  0.25548646234E+02 -0.57973846958E+01  0.95289778805E+01  0.12816419932E+03  0.12509563371E+03 0.  0.
          5    1    3    3  502    0  0.59627078147E+02 -0.27420130860E+02  0.40399359664E+02  0.77180520119E+02  0.41800000000E+01 0. -1.
         -5    1    3    3    0  502 -0.34078431912E+02  0.21622746164E+02 -0.30870381783E+02  0.50983679199E+02  0.41800000000E+01 0. -1.
        -11    1    1    2    0    0 -0.28725733344E+02 -0.40109945923E+02  0.22809251391E+02  0.54352897505E+02  0.00000000000E+00 0. -1.
         11    1    1    2    0    0  0.31770871100E+01  0.45907330619E+02  0.24649555578E+02  0.52203232441E+02  0.00000000000E+00 0.  1.
</event>
<event>
 7    1  0.2384639E-009  0.2209887E+03  0.7561462E-02  0.1133148E+00
         -2   -1    0    0    0  501 -0.00000000000E+00  0.00000000000E+00  0.51548947328E+03  0.51548947328E+03  0.00000000000E+00 0.  1.
          2   -1    0    0  501    0  0.00000000000E+00 -0.00000000000E+00 -0.10136520328E+03  0.10136520328E+03  0.00000000000E+00 0. -1.
         25    2    1    2    0    0 -0.13634501691E+02 -0.19970920729E+03  0.23030591249E+03  0.32978793108E+03  0.12509835750E+03 0.  0.
          5    1    3    3  502    0 -0.23046080434E+02 -0.21369733929E+03  0.19412903705E+03  0.28965709049E+03  0.41800000000E+01 0.  1.
         -5    1    3    3    0  502  0.94115787425E+01  0.13988131994E+02  0.36176875432E+02  0.40130840598E+02  0.41800000000E+01 0.  1.
        -11    1    1    2    0    0  0.19599843447E+02  0.14637585415E+02 -0.22458517486E+01  0.24565354058E+02  0.00000000000E+00 0. -1.
         11    1    1    2    0    0 -0.59653417560E+01  0.18507162188E+03  0.18606420927E+03  0.26250139142E+03  0.00000000000E+00 0.  1.
</event>
<event>
 7    1  0.2384639E-009  0.1152348E+03  0.7561462E-02  0.1251172E+00
         -1   -1    0    0    0  501 -0.00000000000E+00  0.00000000000E+00  0.91757471915E+02  0.91757471915E+02  0.00000000000E+00 0.  1.
          1   -1    0    0  501    0  0.00000000000E+00 -0.00000000000E+00 -0.17216010109E+03  0.17216010109E+03  0.00000000000E+00 0. -1.
         25    2    1    2    0    0  0.12541733926E+02 -0.61111078641E+02 -0.48472556843E+02  0.14794733150E+03  0.12508782958E+03 0.  0.
          5    1    3    3  502    0 -0.21870554246E+02 -0.80659978619E+02  0.19643970817E+01  0.83699967442E+02  0.41800000000E+01 0.  1.
         -5    1    3    3    0  502  0.34412288172E+02  0.19548899978E+02 -0.50436953924E+02  0.64247364061E+02  0.41800000000E+01 0.  1.
        -11    1    1    2    0    0  0.32624579479E+02  0.51269114670E+02 -0.34119263346E+02  0.69692248038E+02  0.00000000000E+00 0. -1.
         11    1    1    2    0    0 -0.45166313406E+02  0.98419639710E+01  0.21891910185E+01  0.46277993461E+02  0.00000000000E+00 0.  1.
</event>
<event>
 7    1  0.2384639E-009  0.7032708E+02  0.7561462E-02  0.1358984E+00
         -2   -1    0    0    0  501 -0.00000000000E+00  0.00000000000E+00  0.10746189594E+03  0.10746189594E+03  0.00000000000E+00 0.  1.
          2   -1    0    0  501    0  0.00000000000E+00 -0.00000000000E+00 -0.14287213041E+03  0.14287213041E+03  0.00000000000E+00 0. -1.
         25    2    1    2    0    0  0.69509988230E+01  0.18947844102E+02 -0.80273352338E+02  0.14999502691E+03  0.12508940731E+03 0.  0.
          5    1    3    3  502    0 -0.14172165474E+02 -0.23077074077E+02 -0.96304975942E+02  0.10012753075E+03  0.41800000000E+01 0. -1.
         -5    1    3    3    0  502  0.21123164297E+02  0.42024918179E+02  0.16031623604E+02  0.49867496160E+02  0.41800000000E+01 0. -1.
        -11    1    1    2    0    0 -0.24955031776E+02 -0.34268085146E+02 -0.73494106637E+01  0.43024052664E+02  0.00000000000E+00 0. -1.
         11    1    1    2    0    0  0.18004032953E+02  0.15320241044E+02  0.52212528537E+02  0.57314946780E+02  0.00000000000E+00 0.  1.
</event>
<event>
 7    1  0.2384639E-009  0.4676555E+02  0.7561462E-02  0.1463611E+00
         -1   -1    0    0    0  501 -0.00000000000E+00  0.00000000000E+00  0.19251185861E+03  0.19251185861E+03  0.00000000000E+00 0.  1.
          1   -1    0    0  501    0  0.00000000000E+00 -0.00000000000E+00 -0.67222772388E+02  0.67222772388E+02  0.00000000000E+00 0. -1.
         25    2    1    2    0    0 -0.32850461225E+02  0.16541163310E+02  0.64285290939E+02  0.14536718587E+03  0.12508499994E+03 0.  0.
          5    1    3    3  502    0 -0.34753355241E+01 -0.29382599153E+01 -0.37274738807E+02  0.37783460422E+02  0.41800000000E+01 0. -1.
         -5    1    3    3    0  502 -0.29375125701E+02  0.19479423226E+02  0.10156002975E+03  0.10758372545E+03  0.41800000000E+01 0. -1.
        -11    1    1    2    0    0  0.24792083347E+02  0.79814500837E+01  0.78814422997E+02  0.83006410683E+02  0.00000000000E+00 0.  1.
         11    1    1    2    0    0  0.80583778775E+01 -0.24522613394E+02 -0.17810627716E+02  0.31361034443E+02  0.00000000000E+00 0. -1.
</event>
<event>
 7    1  0.2384639E-009  0.1218400E+03  0.7561462E-02  0.1240092E+00
         -2   -1    0    0    0  501 -0.00000000000E+00  0.00000000000E+00  0.23275835472E+03  0.23275835472E+03  0.00000000000E+00 0. -1.
          2   -1    0    0  501    0  0.00000000000E+00 -0.00000000000E+00 -0.13976873566E+03  0.13976873566E+03  0.00000000000E+00 0.  1.
         25    2    1    2    0    0 -0.57302509960E+02 -0.35751284568E+02  0.17786352028E+03  0.22769276760E+03  0.12508729982E+03 0.  0.
          5    1    3    3  502    0  0.32930438473E+02 -0.29226721907E+02  0.27253623412E+02  0.51950432535E+02  0.41800000000E+01 0.  1.
         -5    1    3    3    0  502 -0.90232948434E+02 -0.65245626613E+01  0.15060989687E+03  0.17574233507E+03  0.41800000000E+01 0.  1.
        -11    1    1    2    0    0 -0.21209678500E+02 -0.28474425016E+01 -0.42591103421E+02  0.47665086609E+02  0.00000000000E+00 0.  1.
         11    1    1    2    0    0  0.78512188460E+02  0.38598727070E+02 -0.42282797791E+02  0.97169236167E+02  0.00000000000E+00 0. -1.
</event>
<event>
 7    1  0.2384639E-009  0.7166919E+02  0.7561462E-02  0.1354507E+00
          1   -1    0    0  501    0  0.00000000000E+00  0.00000000000E+00  0.24130499427E+03  0.24130499427E+03  0.00000000000E+00 0. -1.
         -1   -1    0    0    0  501 -0.00000000000E+00 -0.00000000000E+00 -0.63671704346E+02  0.63671704346E+02  0.00000000000E+00 0.  1.
         25    2    1    2    0    0 -0.28900418891E+02  0.27775768448E+02  0.15683660662E+03  0.20457951305E+03  0.12509327903E+03 0.  0.
          5    1    3    3  502    0  0.68507778168E+01  0.48821184581E+02  0.81324005432E+01  0.50140298755E+02  0.41800000000E+01 0.  1.
         -5    1    3    3    0  502 -0.35751196708E+02 -0.21045416133E+02  0.14870420608E+03  0.15443921429E+03  0.41800000000E+01 0.  1.
        -11    1    1    2    0    0 -0.57646217410E+00 -0.22149848182E+02 -0.32440154883E+02  0.39285006452E+02  0.00000000000E+00 0.  1.
         11    1    1    2    0    0  0.29476881065E+02 -0.56259202661E+01  0.53236838183E+02  0.61112179113E+02  0.00000000000E+00 0. -1.
</event>
<event>
 7    1  0.2384639E-009  0.2925545E+03  0.7561462E-02  0.1089023E+00
         -2   -1    0    0    0  501 -0.00000000000E+00  0.00000000000E+00  0.51845574455E+02  0.51845574455E+02  0.00000000000E+00 0.  1.
          2   -1    0    0  501    0  0.00000000000E+00 -0.00000000000E+00 -0.18143684235E+04  0.18143684235E+04  0.00000000000E+00 0. -1.
         25    2    1    2    0    0  0.19905465347E+03 -0.20538647089E+03 -0.94722616140E+03  0.99734286646E+03  0.12509610285E+03 0.  0.
          5    1    3    3  502    0  0.94355199844E+02 -0.15678153955E+03 -0.42924394937E+03  0.46663818462E+03  0.41800000000E+01 0. -1.
         -5    1    3    3    0  502  0.10469945362E+03 -0.48604931338E+02 -0.51798221204E+03  0.53070468184E+03  0.41800000000E+01 0. -1.
        -11    1    1    2    0    0 -0.18471941925E+03  0.19655858882E+03 -0.80534205770E+03  0.84931288262E+03  0.00000000000E+00 0. -1.
         11    1    1    2    0    0 -0.14335234223E+02  0.88278820674E+01 -0.99546299678E+01  0.19558248895E+02  0.00000000000E+00 0.  1.
</event>
<event>
 7    1  0.2384639E-009  0.1700085E+03  0.7561462E-02  0.1177839E+00
         -1   -1    0    0    0  501 -0.00000000000E+00  0.00000000000E+00  0.28132879882E+03  0.28132879882E+03  0.00000000000E+00 0.  1.
          1   -1    0    0  501    0  0.00000000000E+00 -0.00000000000E+00 -0.13958040919E+03  0.13958040919E+03  0.00000000000E+00 0. -1.
         25    2    1    2    0    0 -0.36141503746E+02  0.14469754617E+03 -0.33051786473E+00  0.19465553974E+03  0.12508829580E+03 0.  0.
          5    1    3    3  502    0 -0.65149076669E+02  0.14352092748E+03 -0.20587675491E+02  0.15900938211E+03  0.41800000000E+01 0. -1.
         -5    1    3    3    0  502  0.29007572923E+02  0.11766186882E+01  0.20257157627E+02  0.35646157627E+02  0.41800000000E+01 0. -1.
        -11    1    1    2    0    0  0.42938477092E+02 -0.12314499542E+03  0.15309470560E+03  0.20111288272E+03  0.00000000000E+00 0.  1.
         11    1    1    2    0    0 -0.67969733463E+01 -0.21552550747E+02 -0.11015798112E+02  0.25140785557E+02  0.00000000000E+00 0. -1.
</event>
<event>
 7    1  0.2384639E-009  0.1059878E+03  0.7561462E-02  0.1268185E+00
         -3   -1    0    0    0  501 -0.00000000000E+00  0.00000000000E+00  0.31300824201E+02  0.31300824201E+02  0.00000000000E+00 0.  1.
          3   -1    0    0  501    0  0.00000000000E+00 -0.00000000000E+00 -0.40994261076E+03  0.40994261076E+03  0.00000000000E+00 0. -1.
         25    2    1    2    0    0 -0.17530722262E+02  0.23911132025E+02 -0.21620074555E+03  0.25153377445E+03  0.12508960330E+03 0.  0.
          5    1    3    3  502    0  0.31428496117E+02  0.50306755434E+02 -0.16659101385E+03  0.17688572104E+03  0.41800000000E+01 0. -1.
         -5    1    3    3    0  502 -0.48959218378E+02 -0.26395623409E+02 -0.49609731703E+02  0.74648053418E+02  0.41800000000E+01 0. -1.
        -11    1    1    2    0    0 -0.17864709751E+02 -0.49782441512E+02 -0.73526956292E+02  0.90574017461E+02  0.00000000000E+00 0.  1.
         11    1    1    2    0    0  0.35395432013E+02  0.25871309487E+02 -0.88914084711E+02  0.99135643045E+02  0.00000000000E+00 0. -1.
</event>
<event>
 7    1  0.2384639E-009  0.1801211E+03  0.7561462E-02  0.1167686E+00
          1   -1    0    0  501    0  0.00000000000E+00  0.00000000000E+00  0.13650841397E+03  0.13650841397E+03  0.00000000000E+00 0. -1.
         -1   -1    0    0    0  501 -0.00000000000E+00 -0.00000000000E+00 -0.36906207948E+03  0.36906207948E+03  0.00000000000E+00 0.  1.
         25    2    1    2    0    0  0.95025977941E+02 -0.10603421446E+03 -0.26582053491E+03  0.32647004929E+03  0.12509574407E+03 0.  0.
          5    1    3    3  502    0  0.12157971820E+03 -0.10335013384E+03 -0.24477932943E+03  0.29222811391E+03  0.41800000000E+01 0.  1.
         -5    1    3    3    0  502 -0.26553740261E+02 -0.26840806182E+01 -0.21041205477E+02  0.34241935380E+02  0.41800000000E+01 0.  1.
        -11    1    1    2    0    0 -0.11599014907E+03  0.94893326463E+02  0.38632885566E+02  0.15476097033E+03  0.00000000000E+00 0.  1.
         11    1    1    2    0    0  0.20964171134E+02  0.11140887993E+02 -0.53660161675E+01  0.24339473826E+02  0.00000000000E+00 0. -1.
</event>
<event>
 7    1  0.2384639E-009  0.9347803E+02  0.7561462E-02  0.1294641E+00
          3   -1    0    0  501    0  0.00000000000E+00  0.00000000000E+00  0.76511936113E+02  0.76511936113E+02  0.00000000000E+00 0. -1.
         -3   -1    0    0    0  501 -0.00000000000E+00 -0.00000000000E+00 -0.15162824598E+03  0.15162824598E+03  0.00000000000E+00 0.  1.
         25    2    1    2    0    0  0.65483684965E+01  0.21736252560E+01 -0.66652120388E+02  0.14191092038E+03  0.12509435796E+03 0.  0.
          5    1    3    3  502    0 -0.52911353116E+02 -0.24975064782E+02 -0.41008584091E+02  0.71571932478E+02  0.41800000000E+01 0.  1.
         -5    1    3    3    0  502  0.59459721613E+02  0.27148690038E+02 -0.25643536298E+02  0.70338987901E+02  0.41800000000E+01 0.  1.
        -11    1    1    2    0    0  0.28106417137E+02 -0.83442544644E+00  0.25301290809E+02  0.37826211371E+02  0.00000000000E+00 0. -1.
         11    1    1    2    0    0 -0.34654785634E+02 -0.13391998095E+01 -0.33765480288E+02  0.48403050343E+02  0.00000000000E+00 0.  1.
</event>
<event>
 7    1  0.2384639E-009  0.1220814E+03  0.7561462E-02  0.1239702E+00
         -2   -1    0    0    0  501 -0.00000000000E+00  0.00000000000E+00  0.22529439293E+03  0.22529439293E+03  0.00000000000E+00 0. -1.
          2   -1    0    0  501    0  0.00000000000E+00 -0.00000000000E+00 -0.12028583696E+03  0.12028583696E+03  0.00000000000E+00 0.  1.
         25    2    1    2    0    0  0.72708906859E+02  0.61038324649E+02  0.13980628983E+03  0.21025265642E+03  0.12509244039E+03 0.  0.
          5    1    3    3  502    0  0.92311656711E+02  0.21718732512E+02  0.13614144849E+03  0.16596720069E+03  0.41800000000E+01 0. -1.
         -5    1    3    3    0  502 -0.19602749853E+02  0.39319592137E+02  0.36648413453E+01  0.44285455735E+02  0.41800000000E+01 0. -1.
        -11    1    1    2    0    0 -0.66144263997E+02 -0.28691946563E+02 -0.60000658663E+02  0.93799629515E+02  0.00000000000E+00 0.  1.
         11    1    1    2    0    0 -0.65646428618E+01 -0.32346378086E+02  0.25202924793E+02  0.41527943957E+02  0.00000000000E+00 0. -1.
</event>
<event>
 7    1  0.2384639E-009  0.1314842E+03  0.7561462E-02  0.1225270E+00
          2   -1    0    0  501    0  0.00000000000E+00  0.00000000000E+00  0.12157710846E+04  0.12157710846E+04  0.00000000000E+00 0. -1.
         -2   -1    0    0    0  501 -0.00000000000E+00 -0.00000000000E+00 -0.21686666687E+02  0.21686666687E+02  0.00000000000E+00 0.  1.
         25    2    1    2    0    0 -0.23408208816E+01  0.10138721850E+03  0.89620857959E+03  0.91056072435E+03  0.12508463967E+03 0.  0.
          5    1    3    3  502    0 -0.75022692198E+01 -0.29105058093E+02  0.17517272366E+03  0.17778173125E+03  0.41800000000E+01 0. -1.
         -5    1    3    3    0  502  0.51614483383E+01  0.13049227659E+03  0.72103585593E+03  0.73277899311E+03  0.41800000000E+01 0. -1.
        -11    1    1    2    0    0  0.63195425297E+01 -0.76253667920E+02  0.29049325352E+03  0.30040121310E+03  0.00000000000E+00 0. -1.
         11    1    1    2    0    0 -0.39787216481E+01 -0.25133550580E+02  0.73825847497E+01  0.26495813788E+02  0.00000000000E+00 0.  1.
</event>
<event>
 7    1  0.2866377E-009  0.2084178E+03  0.7561462E-02  0.1142825E+00
         -2   -1    0    0    0  501 -0.00000000000E+00  0.00000000000E+00  0.18809279482E+02  0.18809279482E+02  0.00000000000E+00 0.  1.
          2   -1    0    0  501    0  0.00000000000E+00 -0.00000000000E+00 -0.26428178633E+04  0.26428178633E+04  0.00000000000E+00 0. -1.
         25    2    1    2    0    0 -0.10591644967E+02  0.17892076749E+03 -0.18153234828E+04  0.18284340846E+04  0.12508809061E+03 0.  0.
          5    1    3    3  502    0 -0.39594234771E+02  0.18275986303E+03 -0.14709170856E+04  0.14827620902E+04  0.41800000000E+01 0.  1.
         -5    1    3    3    0  502  0.29002589805E+02 -0.38390955470E+01 -0.34440639723E+03  0.34567199441E+03  0.41800000000E+01 0.  1.
        -11    1    1    2    0    0  0.49385666472E+02 -0.11915666351E+03 -0.54440672147E+03  0.55947826847E+03  0.00000000000E+00 0. -1.
         11    1    1    2    0    0 -0.38794021505E+02 -0.59764103974E+02 -0.26427837956E+03  0.27371478975E+03  0.00000000000E+00 0.  1.
</event>
<event>
 7    1  0.2384639E-009  0.1042834E+03  0.7561462E-02  0.1271538E+00
          3   -1    0    0  501    0  0.00000000000E+00  0.00000000000E+00  0.10120222749E+03  0.10120222749E+03  0.00000000000E+00 0. -1.
         -3   -1    0    0    0  501 -0.00000000000E+00 -0.00000000000E+00 -0.21292860048E+03  0.21292860048E+03  0.00000000000E+00 0.  1.
         25    2    1    2    0    0 -0.19671317265E+02  0.85644981722E+02 -0.10656822126E+03  0.18635935923E+03  0.12510396225E+03 0.  0.
          5    1    3    3  502    0 -0.11170513727E+02  0.24164676107E+02 -0.11977331752E+03  0.12276738956E+03  0.41800000000E+01 0. -1.
         -5    1    3    3    0  502 -0.85008035374E+01  0.61480305615E+02  0.13205096261E+02  0.63591969670E+02  0.41800000000E+01 0. -1.
        -11    1    1    2    0    0  0.16095108011E+02  0.13008515100E+02 -0.18991970407E+02  0.28088590333E+02  0.00000000000E+00 0.  1.
         11    1    1    2    0    0  0.35762092538E+01 -0.98653496822E+02  0.13833818682E+02  0.99682878405E+02  0.00000000000E+00 0. -1.
</event>
<event>
 7    1  0.2384639E-009  0.1055213E+03  0.7561462E-02  0.1269096E+00
          1   -1    0    0  501    0  0.00000000000E+00  0.00000000000E+00  0.20935161951E+03  0.20935161951E+03  0.00000000000E+00 0. -1.
         -1   -1    0    0    0  501 -0.00000000000E+00 -0.00000000000E+00 -0.90238494936E+02  0.90238494936E+02  0.00000000000E+00 0.  1.
         25    2    1    2    0    0  0.75568238173E+02  0.33928099577E+02  0.59429069432E+02  0.16137348526E+03  0.12509161798E+03 0.  0.
          5    1    3    3  502    0  0.92185961527E+02  0.76395086191E+01 -0.17534327223E+01  0.92612960869E+02  0.41800000000E+01 0.  1.
         -5    1    3    3    0  502 -0.16617723355E+02  0.26288590958E+02  0.61182502154E+02  0.68760524386E+02  0.41800000000E+01 0.  1.
        -11    1    1    2    0    0 -0.15883637585E+02 -0.20423065242E+02 -0.23497907695E+02  0.34950582297E+02  0.00000000000E+00 0.  1.
         11    1    1    2    0    0 -0.59684600588E+02 -0.13505034335E+02  0.83181962842E+02  0.10326604690E+03  0.00000000000E+00 0. -1.
</event>
<event>
 7    1  0.2384639E-009  0.1666683E+03  0.7561462E-02  0.1181368E+00
          1   -1    0    0  501    0  0.00000000000E+00  0.00000000000E+00  0.18151263869E+03  0.18151263869E+03  0.00000000000E+00 0. -1.
         -1   -1    0    0    0  501 -0.00000000000E+00 -0.00000000000E+00 -0.19588907572E+03  0.19588907572E+03  0.00000000000E+00 0.  1.
         25    2    1    2    0    0 -0.35714010020E+02  0.14477972483E+03 -0.46076228255E+02  0.20001567848E+03  0.12508634454E+03 0.  0.
          5    1    3    3  502    0  0.71972846192E+01  0.87444879456E+02 -0.81663809631E+02  0.11993689196E+03  0.41800000000E+01 0. -1.
         -5    1    3    3    0  502 -0.42911294639E+02  0.57334845377E+02  0.35587581376E+02  0.80078786518E+02  0.41800000000E+01 0. -1.
        -11    1    1    2    0    0 -0.27360114250E+02 -0.74302882394E+02  0.22751000712E+02  0.82383871099E+02  0.00000000000E+00 0.  1.
         11    1    1    2    0    0  0.63074124270E+02 -0.70476842440E+02  0.89487905094E+01  0.95002164840E+02  0.00000000000E+00 0. -1.
</event>
<event>
 7    1  0.2384639E-009  0.1320880E+03  0.7561462E-02  0.1224390E+00
          2   -1    0    0  501    0  0.00000000000E+00  0.00000000000E+00  0.60114667875E+03  0.60114667875E+03  0.00000000000E+00 0. -1.
         -2   -1    0    0    0  501 -0.00000000000E+00 -0.00000000000E+00 -0.56360807166E+02  0.56360807166E+02  0.00000000000E+00 0.  1.
         25    2    1    2    0    0  0.10721325643E+03  0.58165540666E+02  0.13791240323E+03  0.22258899532E+03  0.12509243540E+03 0.  0.
          5    1    3    3  502    0  0.60465020007E+02  0.40132419180E+02  0.15358846418E+03  0.16992209522E+03  0.41800000000E+01 0. -1.
         -5    1    3    3    0  502  0.46748236425E+02  0.18033121485E+02 -0.15676060947E+02  0.52666900100E+02  0.41800000000E+01 0. -1.
        -11    1    1    2    0    0 -0.56472447626E+02  0.88340482418E+01  0.86312299525E+02  0.10352289987E+03  0.00000000000E+00 0. -1.
         11    1    1    2    0    0 -0.50740808806E+02 -0.66999588908E+02  0.32056116883E+03  0.33139559073E+03  0.00000000000E+00 0.  1.
</event>
<event>
 7    1  0.2384639E-009  0.1068681E+03  0.7561462E-02  0.1266482E+00
          1   -1    0    0  501    0  0.00000000000E+00  0.00000000000E+00  0.39434855968E+02  0.39434855968E+02  0.00000000000E+00 0. -1.
         -1   -1    0    0    0  501 -0.00000000000E+00 -0.00000000000E+00 -0.34389059455E+03  0.34389059455E+03  0.00000000000E+00 0.  1.
         25    2    1    2    0    0  0.64398134800E+01  0.53707595143E+02 -0.13066305911E+03  0.18879693935E+03  0.12508186247E+03 0.  0.
          5    1    3    3  502    0  0.62517830233E+02  0.48973653259E+02 -0.70017819966E+02  0.10595690314E+03  0.41800000000E+01 0.  1.
         -5    1    3    3    0  502 -0.56078016753E+02  0.47339418838E+01 -0.60645239141E+02  0.82840036210E+02  0.41800000000E+01 0.  1.
        -11    1    1    2    0    0 -0.18966409024E+02 -0.60587078560E+02 -0.93772931556E+02  0.11324257791E+03  0.00000000000E+00 0. -1.
         11    1    1    2    0    0  0.12526595544E+02  0.68794834167E+01 -0.80019747915E+02  0.81285933250E+02  0.00000000000E+00 0.  1.
</event>
<event>
 7    1  0.2384639E-009  0.1172697E+03  0.7561462E-02  0.1247670E+00
         -2   -1    0    0    0  501 -0.00000000000E+00  0.00000000000E+00  0.72809675076E+02  0.72809675076E+02  0.00000000000E+00 0.  1.
          2   -1    0    0  501    0  0.00000000000E+00 -0.00000000000E+00 -0.20408951800E+03  0.20408951800E+03  0.00000000000E+00 0. -1.
         25    2    1    2    0    0 -0.16857573352E+02 -0.50663969330E+02 -0.58608433864E+02  0.14810157470E+03  0.12509241520E+03 0.  0.
          5    1    3    3  502    0 -0.24952672939E+02  0.38645863999E+02 -0.21764333441E+02  0.51061700923E+02  0.41800000000E+01 0. -1.
         -5    1    3    3    0  502  0.80950995867E+01 -0.89309833329E+02 -0.36844100423E+02  0.97039873776E+02  0.41800000000E+01 0. -1.
        -11    1    1    2    0    0 -0.33387737893E+02  0.13209883346E+02 -0.51234371235E+02  0.62563590494E+02  0.00000000000E+00 0. -1.
         11    1    1    2    0    0  0.50245311245E+02  0.37454085983E+02 -0.21437037827E+02  0.66234027884E+02  0.00000000000E+00 0.  1.
</event>
<event>
 7    1  0.2384639E-009  0.1063341E+03  0.7561462E-02  0.1267513E+00
          2   -1    0    0  501    0  0.00000000000E+00  0.00000000000E+00  0.59130393394E+03  0.59130393394E+03  0.00000000000E+00 0. -1.
         -2   -1    0    0    0  501 -0.00000000000E+00 -0.00000000000E+00 -0.22958578987E+02  0.22958578987E+02  0.00000000000E+00 0.  1.
         25    2    1    2    0    0  0.28458028451E+02  0.32731799158E+02  0.37053687609E+03  0.39348010734E+03  0.12509111986E+03 0.  0.
          5    1    3    3  502    0  0.36587120067E+02  0.70418438330E+02  0.32033558129E+03  0.33004504367E+03  0.41800000000E+01 0. -1.
         -5    1    3    3    0  502 -0.81290916166E+01 -0.37686639173E+02  0.50201294802E+02  0.63435063667E+02  0.41800000000E+01 0. -1.
        -11    1    1    2    0    0 -0.42544275766E+02  0.14646524581E+02  0.12437316137E+03  0.13226193463E+03  0.00000000000E+00 0. -1.
         11    1    1    2    0    0  0.14086247315E+02 -0.47378323738E+02  0.73435317488E+02  0.88520470955E+02  0.00000000000E+00 0.  1.
</event>
<event>
 7    1  0.2384639E-009  0.9069042E+02  0.7561462E-02  0.1301188E+00
         -2   -1    0    0    0  501 -0.00000000000E+00  0.00000000000E+00  0.21366155664E+02  0.21366155664E+02  0.00000000000E+00 0.  1.
          2   -1    0    0  501    0  0.00000000000E+00 -0.00000000000E+00 -0.11203082257E+04  0.11203082257E+04  0.00000000000E+00 0. -1.
         25    2    1    2    0    0 -0.14573742917E+02  0.52164083204E+01 -0.99202948498E+03  0.10000054945E+04  0.12509550398E+03 0.  0.
          5    1    3    3  502    0  0.15714260913E+01 -0.44842373464E+02 -0.15778642721E+03  0.16409551136E+03  0.41800000000E+01 0.  1.
         -5    1    3    3    0  502 -0.16145169008E+02  0.50058781784E+02 -0.83424305778E+03  0.83590998317E+03  0.41800000000E+01 0.  1.
        -11    1    1    2    0    0 -0.75888795508E+00  0.37840140056E+02 -0.80320031100E+02  0.88790537256E+02  0.00000000000E+00 0. -1.
         11    1    1    2    0    0  0.15332630872E+02 -0.43056548376E+02 -0.26592553940E+02  0.52878349563E+02  0.00000000000E+00 0.  1.
</event>
<event>
 7    1  0.2384639E-009  0.1426726E+03  0.7561462E-02  0.1209777E+00
          2   -1    0    0  501    0  0.00000000000E+00  0.00000000000E+00  0.12237865809E+03  0.12237865809E+03  0.00000000000E+00 0. -1.
         -2   -1    0    0    0  501 -0.00000000000E+00 -0.00000000000E+00 -0.18515007592E+03  0.18515007592E+03  0.00000000000E+00 0.  1.
         25    2    1    2    0    0 -0.76212352689E+02 -0.57172705857E+02 -0.78238390934E+02  0.17563102200E+03  0.12509184257E+03 0.  0.
          5    1    3    3  502    0  0.21592123151E+02  0.20026587352E+02 -0.27149202353E+01  0.29868498038E+02  0.41800000000E+01 0.  1.
         -5    1    3    3    0  502 -0.97804475840E+02 -0.77199293209E+02 -0.75523470699E+02  0.14576252397E+03  0.41800000000E+01 0.  1.
        -11    1    1    2    0    0  0.92907965085E+02  0.27518047157E+02  0.97118184323E+01  0.97383018606E+02  0.00000000000E+00 0.  1.
         11    1    1    2    0    0 -0.16695612396E+02  0.29654658700E+02  0.57551546710E+01  0.34514693410E+02  0.00000000000E+00 0. -1.
</event>
<event>
 7    1  0.2384639E-009  0.1154312E+03  0.7561462E-02  0.1250830E+00
          2   -1    0    0  501    0  0.00000000000E+00  0.00000000000E+00  0.30034045995E+03  0.30034045995E+03  0.00000000000E+00 0. -1.
         -2   -1    0    0    0  501 -0.00000000000E+00 -0.00000000000E+00 -0.56618203033E+02  0.56618203033E+02  0.00000000000E+00 0.  1.
         25    2    1    2    0    0  0.21300132259E+02 -0.49998550409E+02  0.19872556640E+03  0.24102414901E+03  0.12508892433E+03 0.  0.
          5    1    3    3  502    0  0.72399651618E+02 -0.14759146970E+02  0.10204217387E+03  0.12605403454E+03  0.41800000000E+01 0. -1.
         -5    1    3    3    0  502 -0.51099519359E+02 -0.35239403439E+02  0.96683392522E+02  0.11497011448E+03  0.41800000000E+01 0. -1.
        -11    1    1    2    0    0  0.17695318339E+02  0.52662758219E+02  0.52151297972E+02  0.76198741948E+02  0.00000000000E+00 0. -1.
         11    1    1    2    0    0 -0.38995450598E+02 -0.26642078097E+01 -0.71546074485E+01  0.39735772023E+02  0.00000000000E+00 0.  1.
</event>
<event>
 7    1  0.2384639E-009  0.9039651E+02  0.7561462E-02  0.1301894E+00
          1   -1    0    0  501    0  0.00000000000E+00  0.00000000000E+00  0.86993140038E+03  0.86993140038E+03  0.00000000000E+00 0. -1.
         -1   -1    0    0    0  501 -0.00000000000E+00 -0.00000000000E+00 -0.23095059304E+02  0.23095059304E+02  0.00000000000E+00 0.  1.
         25    2    1    2    0    0  0.31307167995E+02 -0.13143794532E+02  0.76276033721E+03  0.77369464832E+03  0.12508868342E+03 0.  0.
          5    1    3    3  502    0  0.69942420749E+02 -0.21684832408E+02  0.28522427381E+03  0.29450387594E+03  0.41800000000E+01 0.  1.
         -5    1    3    3    0  502 -0.38635252754E+02  0.85410378763E+01  0.47753606340E+03  0.47919077238E+03  0.41800000000E+01 0.  1.
        -11    1    1    2    0    0 -0.46286216828E+02  0.20905282452E+02  0.22611861474E+02  0.55594433013E+02  0.00000000000E+00 0.  1.
         11    1    1    2    0    0  0.14979048833E+02 -0.77614879206E+01  0.61464142390E+02  0.63737378346E+02  0.00000000000E+00 0. -1.
</event>
<event>
 7    1  0.2384639E-009  0.1704519E+03  0.7561462E-02  0.1177377E+00
          3   -1    0    0  501    0  0.00000000000E+00  0.00000000000E+00  0.25897076773E+03  0.25897076773E+03  0.00000000000E+00 0. -1.
         -3   -1    0    0    0  501 -0.00000000000E+00 -0.00000000000E+00 -0.14955329688E+03  0.14955329688E+03  0.00000000000E+00 0.  1.
         25    2    1    2    0    0  0.25468460495E+02  0.14809444965E+03  0.12948622121E+03  0.23450970764E+03  0.12509001958E+03 0.  0.
          5    1    3    3  502    0  0.14766031464E+02  0.15820393456E+03  0.14321523972E+03  0.21394998922E+03  0.41800000000E+01 0. -1.
         -5    1    3    3    0  502  0.10702429031E+02 -0.10109484913E+02 -0.13729018516E+02  0.20559718427E+02  0.41800000000E+01 0. -1.
        -11    1    1    2    0    0  0.21450196736E+02 -0.16858439414E+02  0.13819497789E+02  0.30582616609E+02  0.00000000000E+00 0. -1.
         11    1    1    2    0    0 -0.46918657231E+02 -0.13123601024E+03 -0.33888248142E+02  0.14343174035E+03  0.00000000000E+00 0.  1.
</event>
<event>
 7    1  0.2384639E-009  0.1459937E+03  0.7561462E-02  0.1205484E+00
         -4   -1    0    0    0  501 -0.00000000000E+00  0.00000000000E+00  0.79908531680E+02  0.79908531680E+02  0.00000000000E+00 0. -1.
          4   -1    0    0  501    0  0.00000000000E+00 -0.00000000000E+00 -0.28649897623E+03  0.28649897623E+03  0.00000000000E+00 0.  1.
         25    2    1    2    0    0 -0.85468785966E+02 -0.62229988741E+02 -0.10306461689E+03  0.19351129039E+03  0.12508724708E+03 0.  0.
          5    1    3    3  502    0 -0.51778260008E+02 -0.95895590510E+02 -0.95778953317E+02  0.14514831307E+03  0.41800000000E+01 0. -1.
         -5    1    3    3    0  502 -0.33690525958E+02  0.33665601769E+02 -0.72856635705E+01  0.48362977322E+02  0.41800000000E+01 0. -1.
        -11    1    1    2    0    0 -0.10470542509E+02  0.33301851101E+02 -0.11253627607E+02  0.36678190816E+02  0.00000000000E+00 0. -1.
         11    1    1    2    0    0  0.95939328474E+02  0.28928137640E+02 -0.92272200055E+02  0.13621802670E+03  0.00000000000E+00 0.  1.
</event>
<event>
 7    1  0.2384639E-009  0.1290297E+03  0.7561462E-02  0.1228903E+00
         -1   -1    0    0    0  501 -0.00000000000E+00  0.00000000000E+00  0.22334959603E+03  0.22334959603E+03  0.00000000000E+00 0.  1.
          1   -1    0    0  501    0  0.00000000000E+00 -0.00000000000E+00 -0.90780154832E+02  0.90780154832E+02  0.00000000000E+00 0. -1.
         25    2    1    2    0    0 -0.13051705609E+02 -0.71215202004E+02  0.13354109952E+03  0.19676990696E+03  0.12507285479E+03 0.  0.
          5    1    3    3  502    0 -0.48191165998E+02  0.14707896579E+02  0.58565143420E+02  0.77369626636E+02  0.41800000000E+01 0. -1.
         -5    1    3    3    0  502  0.35139460389E+02 -0.85923098583E+02  0.74975956105E+02  0.11940028032E+03  0.41800000000E+01 0. -1.
        -11    1    1    2    0    0  0.49417338620E+02  0.57231593268E+02  0.11427394381E+02  0.76472962323E+02  0.00000000000E+00 0. -1.
         11    1    1    2    0    0 -0.36365633011E+02  0.13983608736E+02 -0.12399052707E+02  0.40886881583E+02  0.00000000000E+00 0.  1.
</event>
<event>
 7    1  0.2384639E-009  0.2143401E+03  0.7561462E-02  0.1138174E+00
          1   -1    0    0  501    0  0.00000000000E+00  0.00000000000E+00  0.88850067262E+02  0.88850067262E+02  0.00000000000E+00 0. -1.
         -1   -1    0    0    0  501 -0.00000000000E+00 -0.00000000000E+00 -0.75936213601E+03  0.75936213601E+03  0.00000000000E+00 0.  1.
         25    2    1    2    0    0  0.26756510526E+01  0.19797300587E+03 -0.13329532593E+03  0.26947150905E+03  0.12508709013E+03 0.  0.
          5    1    3    3  502    0  0.24063012522E+02  0.20598250171E+03 -0.10383867138E+03  0.23196500093E+03  0.41800000000E+01 0.  1.
         -5    1    3    3    0  502 -0.21387361469E+02 -0.80094958430E+01 -0.29456654555E+02  0.37506508127E+02  0.41800000000E+01 0.  1.
        -11    1    1    2    0    0  0.77929214709E+00 -0.10094536155E+03 -0.38644934578E+03  0.39941666236E+03  0.00000000000E+00 0.  1.
         11    1    1    2    0    0 -0.34549431997E+01 -0.97027644319E+02 -0.15076739704E+03  0.17932403186E+03  0.00000000000E+00 0. -1.
</event>
<event>
 7    1  0.2384639E-009  0.9569369E+02  0.7561462E-02  0.1289621E+00
         -1   -1    0    0    0  501 -0.00000000000E+00  0.00000000000E+00  0.50252326540E+02  0.50252326540E+02  0.00000000000E+00 0.  1.
          1   -1    0    0  501    0  0.00000000000E+00 -0.00000000000E+00 -0.28333983332E+03  0.28333983332E+03  0.00000000000E+00 0. -1.
         25    2    1    2    0    0  0.27365513126E+02  0.30686652091E+02 -0.91679836732E+02  0.16045183348E+03  0.12509618891E+03 0.  0.
          5    1    3    3  502    0  0.15038817729E+02 -0.29958289102E+02  0.15070404227E+02  0.36989925766E+02  0.41800000000E+01 0. -1.
         -5    1    3    3    0  502  0.12326695397E+02  0.60644941193E+02 -0.10675024096E+03  0.12346190771E+03  0.41800000000E+01 0. -1.
        -11    1    1    2    0    0  0.23229739063E+02  0.14800571913E+02 -0.66326066296E+02  0.71817997579E+02  0.00000000000E+00 0. -1.
         11    1    1    2    0    0 -0.50595252189E+02 -0.45487224004E+02 -0.75081603750E+02  0.10132232880E+03  0.00000000000E+00 0.  1.
</event>
<event>
 7    1  0.2384639E-009  0.7873194E+02  0.7561462E-02  0.1332689E+00
         -2   -1    0    0    0  501 -0.00000000000E+00  0.00000000000E+00  0.96456539989E+02  0.96456539989E+02  0.00000000000E+00 0.  1.
          2   -1    0    0  501    0  0.00000000000E+00 -0.00000000000E+00 -0.12903904352E+03  0.12903904352E+03  0.00000000000E+00 0. -1.
         25    2    1    2    0    0  0.95708956573E+01  0.35496417305E+01 -0.48393560079E+02  0.13451231117E+03  0.12508966064E+03 0.  0.
          5    1    3    3  502    0  0.25085425305E+02  0.54849576180E+02  0.24657843821E+01  0.60508735423E+02  0.41800000000E+01 0.  1.
         -5    1    3    3    0  502 -0.15514529648E+02 -0.51299934450E+02 -0.50859344462E+02  0.74003575750E+02  0.41800000000E+01 0.  1.
        -11    1    1    2    0    0 -0.24298779107E+02  0.68177227833E+01 -0.31498245364E+02  0.40361509772E+02  0.00000000000E+00 0. -1.
         11    1    1    2    0    0  0.14727883450E+02 -0.10367364514E+02  0.47309301912E+02  0.50621762566E+02  0.00000000000E+00 0.  1.
</event>
<event>
 7    1  0.2384639E-009  0.1091649E+03  0.7561462E-02  0.1262124E+00
         -2   -1    0    0    0  501 -0.00000000000E+00  0.00000000000E+00  0.18681032837E+02  0.18681032837E+02  0.00000000000E+00 0.  1.
          2   -1    0    0  501    0  0.00000000000E+00 -0.00000000000E+00 -0.79879432717E+03  0.79879432717E+03  0.00000000000E+00 0. -1.
         25    2    1    2    0    0  0.30804491728E+02 -0.30913830521E+02 -0.54796369212E+03  0.56375250878E+03  0.12509237247E+03 0.  0.
          5    1    3    3  502    0 -0.19129916669E+02 -0.56460646148E+02 -0.41645371902E+03  0.42071953932E+03  0.41800000000E+01 0. -1.
         -5    1    3    3    0  502  0.49934408397E+02  0.25546815627E+02 -0.13150997310E+03  0.14303296947E+03  0.41800000000E+01 0. -1.
        -11    1    1    2    0    0 -0.64112560567E+02  0.22763386976E+02 -0.15033626657E+03  0.16501389412E+03  0.00000000000E+00 0.  1.
         11    1    1    2    0    0  0.33308068838E+02  0.81504435455E+01 -0.81813335649E+02  0.88708957100E+02  0.00000000000E+00 0. -1.
</event>
<event>
 7    1  0.2384639E-009  0.1076509E+03  0.7561462E-02  0.1264983E+00
         -2   -1    0    0    0  501 -0.00000000000E+00  0.00000000000E+00  0.42226067068E+02  0.42226067068E+02  0.00000000000E+00 0.  1.
          2   -1    0    0  501    0  0.00000000000E+00 -0.00000000000E+00 -0.40995772676E+03  0.40995772676E+03  0.00000000000E+00 0. -1.
         25    2    1    2    0    0  0.41473049646E+02 -0.40138157966E+02 -0.12591390665E+03  0.18663452784E+03  0.12508816699E+03 0.  0.
          5    1    3    3  502    0 -0.15040044325E+02  0.19392956779E+02 -0.95991775697E+02  0.99167449838E+02  0.41800000000E+01 0. -1.
         -5    1    3    3    0  502  0.56513093971E+02 -0.59531114746E+02 -0.29922130955E+02  0.87467078000E+02  0.41800000000E+01 0. -1.
        -11    1    1    2    0    0 -0.60740617423E+02 -0.31626101692E+01 -0.15730711546E+03  0.16865631705E+03  0.00000000000E+00 0.  1.
         11    1    1    2    0    0  0.19267567777E+02  0.43300768135E+02 -0.84510637582E+02  0.96892948937E+02  0.00000000000E+00 0. -1.
</event>
<event>
 7    1  0.2384639E-009  0.1245336E+03  0.7561462E-02  0.1235800E+00
          2   -1    0    0  501    0  0.00000000000E+00  0.00000000000E+00  0.49271192678E+03  0.49271192678E+03  0.00000000000E+00 0. -1.
         -2   -1    0    0    0  501 -0.00000000000E+00 -0.00000000000E+00 -0.57610375592E+02  0.57610375592E+02  0.00000000000E+00 0.  1.
         25    2    1    2    0    0  0.78708757019E+02 -0.68911617013E+02  0.32090770261E+03  0.35996072898E+03  0.12508434524E+03 0.  0.
          5    1    3    3  502    0  0.10298976384E+02 -0.12726207819E+02  0.23801053555E+03  0.23860954028E+03  0.41800000000E+01 0.  1.
         -5    1    3    3    0  502  0.68409780635E+02 -0.56185409194E+02  0.82897167060E+02  0.12135118870E+03  0.41800000000E+01 0.  1.
        -11    1    1    2    0    0 -0.13999803003E+02  0.77064935877E+02  0.93423172587E+02  0.12191344471E+03  0.00000000000E+00 0. -1.
         11    1    1    2    0    0 -0.64708954016E+02 -0.81533188637E+01  0.20770675994E+02  0.68448128678E+02  0.00000000000E+00 0.  1.
</event>
<event>
 7    1  0.2384639E-009  0.1105397E+03  0.7561462E-02  0.1259574E+00
         -1   -1    0    0    0  501 -0.00000000000E+00  0.00000000000E+00  0.32083359118E+03  0.32083359118E+03  0.00000000000E+00 0.  1.
          1   -1    0    0  501    0  0.00000000000E+00 -0.00000000000E+00 -0.55706214303E+02  0.55706214303E+02  0.00000000000E+00 0. -1.
         25    2    1    2    0    0 -0.76431437256E+02 -0.14941498466E+02  0.13577316755E+03  0.20036511861E+03  0.12508722857E+03 0.  0.
          5    1    3    3  502    0  0.25241638286E+02  0.22692262277E+02  0.56313821009E+02  0.65884731973E+02  0.41800000000E+01 0.  1.
         -5    1    3    3    0  502 -0.10167307554E+03 -0.37633760743E+02  0.79459346545E+02  0.13448038664E+03  0.41800000000E+01 0.  1.
        -11    1    1    2    0    0  0.41276033776E+02  0.35396134824E+01 -0.22483157899E+00  0.41428135091E+02  0.00000000000E+00 0. -1.
         11    1    1    2    0    0  0.35155403480E+02  0.11401884984E+02  0.12957904090E+03  0.13474655177E+03  0.00000000000E+00 0.  1.
</event>
<event>
 7    1  0.2384639E-009  0.1552875E+03  0.7561462E-02  0.1194122E+00
          2   -1    0    0  501    0  0.00000000000E+00  0.00000000000E+00  0.27267093758E+03  0.27267093758E+03  0.00000000000E+00 0. -1.
         -2   -1    0    0    0  501 -0.00000000000E+00 -0.00000000000E+00 -0.11340753017E+03  0.11340753017E+03  0.00000000000E+00 0.  1.
         25    2    1    2    0    0  0.54038497816E+02 -0.10171562862E+03  0.76359560021E-01  0.17004003262E+03  0.12508948201E+03 0.  0.
          5    1    3    3  502    0 -0.33329582730E+01  0.27204861193E+02  0.73441101750E+01  0.28681377890E+02  0.41800000000E+01 0. -1.
         -5    1    3    3    0  502  0.57371456089E+02 -0.12892048981E+03 -0.72677506150E+01  0.14135865473E+03  0.41800000000E+01 0. -1.
        -11    1    1    2    0    0  0.18180906162E+02  0.16255930524E+01  0.42209392690E+02  0.45987180093E+02  0.00000000000E+00 0. -1.
         11    1    1    2    0    0 -0.72219403978E+02  0.10009003557E+03  0.11697765516E+03  0.17005125503E+03  0.00000000000E+00 0.  1.
</event>
<event>
 7    1  0.2384639E-009  0.1950284E+03  0.7561462E-02  0.1154003E+00
          2   -1    0    0  501    0  0.00000000000E+00  0.00000000000E+00  0.24059262515E+03  0.24059262515E+03  0.00000000000E+00 0. -1.
         -2   -1    0    0    0  501 -0.00000000000E+00 -0.00000000000E+00 -0.23667154653E+03  0.23667154653E+03  0.00000000000E+00 0.  1.
         25    2    1    2    0    0 -0.14367956430E+03 -0.10546543213E+03  0.11707942254E+03  0.24722722090E+03  0.12508770124E+03 0.  0.
          5    1    3    3  502    0 -0.14383273836E+03 -0.60097243539E+02  0.12638727270E+03  0.20072555993E+03  0.41800000000E+01 0.  1.
         -5    1    3    3    0  502  0.15317406859E+00 -0.45368188588E+02 -0.93078501694E+01  0.46501660968E+02  0.41800000000E+01 0.  1.
        -11    1    1    2    0    0  0.12350034163E+03  0.56922929064E+02 -0.43514813558E+02  0.14277987685E+03  0.00000000000E+00 0. -1.
         11    1    1    2    0    0  0.20179222669E+02  0.48542503062E+02 -0.69643530355E+02  0.87257073933E+02  0.00000000000E+00 0.  1.
</event>
<event>
 7    1  0.2384639E-009  0.1185788E+03  0.7561462E-02  0.1245460E+00
          2   -1    0    0  501    0  0.00000000000E+00  0.00000000000E+00  0.12507702373E+03  0.12507702373E+03  0.00000000000E+00 0. -1.
         -2   -1    0    0    0  501 -0.00000000000E+00 -0.00000000000E+00 -0.13361764269E+03  0.13361764269E+03  0.00000000000E+00 0.  1.
         25    2    1    2    0    0 -0.66820394869E+02 -0.14704826034E+02  0.47301680853E+01  0.14266106298E+03  0.12509439365E+03 0.  0.
          5    1    3    3  502    0 -0.98144683455E+02  0.80193143485E+01  0.20489876096E+02  0.10066774913E+03  0.41800000000E+01 0. -1.
         -5    1    3    3    0  502  0.31324288586E+02 -0.22724140383E+02 -0.15759708010E+02  0.41993313850E+02  0.41800000000E+01 0. -1.
        -11    1    1    2    0    0  0.81162357322E+02  0.30954078165E+01 -0.34203440688E+02  0.88129365994E+02  0.00000000000E+00 0.  1.
         11    1    1    2    0    0 -0.14341962453E+02  0.11609418218E+02  0.20932653642E+02  0.27904237435E+02  0.00000000000E+00 0. -1.
</event>
<event>
 7    1  0.2384639E-009  0.7938977E+02  0.7561462E-02  0.1330792E+00
          1   -1    0    0  501    0  0.00000000000E+00  0.00000000000E+00  0.13561031680E+04  0.13561031680E+04  0.00000000000E+00 0. -1.
         -1   -1    0    0    0  501 -0.00000000000E+00 -0.00000000000E+00 -0.15106428403E+02  0.15106428403E+02  0.00000000000E+00 0.  1.
         25    2    1    2    0    0  0.19807742958E+02  0.62210230029E+02  0.10612041224E+04  0.10705439394E+04  0.12509067605E+03 0.  0.
          5    1    3    3  502    0 -0.22335639167E-01  0.42324674612E+02  0.10177380218E+04  0.10186262966E+04  0.41800000000E+01 0.  1.
         -5    1    3    3    0  502  0.19830078597E+02  0.19885555417E+02  0.43466100583E+02  0.51917642776E+02  0.41800000000E+01 0.  1.
        -11    1    1    2    0    0  0.20071404825E+02 -0.32213905836E+02  0.21780856012E+03  0.22109085436E+03  0.00000000000E+00 0. -1.
         11    1    1    2    0    0 -0.39879147783E+02 -0.29996324193E+02  0.61984057020E+02  0.79574802656E+02  0.00000000000E+00 0.  1.
</event>
<event>
 7    1  0.2384639E-009  0.1525835E+03  0.7561462E-02  0.1197334E+00
         -1   -1    0    0    0  501 -0.00000000000E+00  0.00000000000E+00  0.12304899503E+03  0.12304899503E+03  0.00000000000E+00 0.  1.
          1   -1    0    0  501    0  0.00000000000E+00 -0.00000000000E+00 -0.19557527728E+03  0.19557527728E+03  0.00000000000E+00 0. -1.
         25    2    1    2    0    0 -0.10092450588E+03 -0.46187336201E+02 -0.44096974753E+02  0.17294764511E+03  0.12508924356E+03 0.  0.
          5    1    3    3  502    0  0.25932443051E+02  0.98847957829E+01 -0.12004812877E+02  0.30525214536E+02  0.41800000000E+01 0.  1.
         -5    1    3    3    0  502 -0.12685694893E+03 -0.56072131984E+02 -0.32092161876E+02  0.14242243058E+03  0.41800000000E+01 0.  1.
        -11    1    1    2    0    0  0.95877693983E+02  0.41129439563E+01 -0.36251566884E+02  0.10258471920E+03  0.00000000000E+00 0. -1.
         11    1    1    2    0    0  0.50468119002E+01  0.42074392245E+02  0.78222593914E+01  0.43091908001E+02  0.00000000000E+00 0.  1.
</event>
<event>
 7    1  0.2384639E-009  0.2453051E+03  0.7561462E-02  0.1116308E+00
         -1   -1    0    0    0  501 -0.00000000000E+00  0.00000000000E+00  0.99934743571E+02  0.99934743571E+02  0.00000000000E+00 0.  1.
          1   -1    0    0  501    0  0.00000000000E+00 -0.00000000000E+00 -0.85478164200E+03  0.85478164200E+03  0.00000000000E+00 0. -1.
         25    2    1    2    0    0 -0.20995469481E+03 -0.11833067388E+03 -0.59722940749E+03  0.65605781661E+03  0.12508305764E+03 0.  0.
          5    1    3    3  502    0 -0.93393653063E+02 -0.49991715774E+02 -0.41991161998E+03  0.43308750510E+03  0.41800000000E+01 0. -1.
         -5    1    3    3    0  502 -0.11656104174E+03 -0.68338958103E+02 -0.17731778752E+03  0.22297031151E+03  0.41800000000E+01 0. -1.
        -11    1    1    2    0    0  0.93806139149E+02  0.17120691903E+02 -0.87410026507E+02  0.12935695794E+03  0.00000000000E+00 0. -1.
         11    1    1    2    0    0  0.11614855566E+03  0.10120998197E+03 -0.70207464426E+02  0.16930161102E+03  0.00000000000E+00 0.  1.
</event>
<event>
 7    1  0.2384639E-009  0.9645517E+02  0.7561462E-02  0.1287932E+00
          2   -1    0    0  501    0  0.00000000000E+00  0.00000000000E+00  0.75607807020E+03  0.75607807020E+03  0.00000000000E+00 0. -1.
         -2   -1    0    0    0  501 -0.00000000000E+00 -0.00000000000E+00 -0.16431156682E+02  0.16431156682E+02  0.00000000000E+00 0.  1.
         25    2    1    2    0    0 -0.12146218783E+01  0.14330141307E+02  0.35225642665E+03  0.37408355253E+03  0.12508831240E+03 0.  0.
          5    1    3    3  502    0  0.20706042992E+01  0.58174921549E+02  0.30017845142E+03  0.30579925441E+03  0.41800000000E+01 0.  1.
         -5    1    3    3    0  502 -0.32852261775E+01 -0.43844780242E+02  0.52077975231E+02  0.68284298120E+02  0.41800000000E+01 0.  1.
        -11    1    1    2    0    0  0.27650896029E+02 -0.43165894029E+02  0.17065973570E+03  0.17819262568E+03  0.00000000000E+00 0. -1.
         11    1    1    2    0    0 -0.26436274150E+02  0.28835752722E+02  0.21673075116E+03  0.22023304867E+03  0.00000000000E+00 0.  1.
</event>
<event>
 7    1  0.2384639E-009  0.4004969E+03  0.7561462E-02  0.1043608E+00
         -1   -1    0    0    0  501 -0.00000000000E+00  0.00000000000E+00  0.20048562707E+03  0.20048562707E+03  0.00000000000E+00 0.  1.
          1   -1    0    0  501    0  0.00000000000E+00 -0.00000000000E+00 -0.85078433876E+03  0.85078433876E+03  0.00000000000E+00 0. -1.
         25    2    1    2    0    0  0.38740941811E+03  0.80613353774E+02 -0.27413236763E+03  0.49737462880E+03  0.12509355039E+03 0.  0.
          5    1    3    3  502    0  0.82351814860E+02  0.54908693764E+02 -0.23778337725E+02  0.10188065472E+03  0.41800000000E+01 0.  1.
         -5    1    3    3    0  502  0.30505760325E+03  0.25704660010E+02 -0.25035402990E+03  0.39549397408E+03  0.41800000000E+01 0.  1.
        -11    1    1    2    0    0 -0.86741615184E+02 -0.20786654923E+02 -0.14381268578E+03  0.16922848879E+03  0.00000000000E+00 0. -1.
         11    1    1    2    0    0 -0.30066780292E+03 -0.59826698850E+02 -0.23235365829E+03  0.38466684823E+03  0.00000000000E+00 0.  1.
</event>
<event>
 7    1  0.2384639E-009  0.1533324E+03  0.7561462E-02  0.1196437E+00
          1   -1    0    0  501    0  0.00000000000E+00  0.00000000000E+00  0.27299659273E+03  0.27299659273E+03  0.00000000000E+00 0. -1.
         -1   -1    0    0    0  501 -0.00000000000E+00 -0.00000000000E+00 -0.10754595318E+03  0.10754595318E+03  0.00000000000E+00 0.  1.
         25    2    1    2    0    0 -0.96771024746E+02  0.72788087350E+02  0.30293637725E+02  0.17671282533E+03  0.12508789414E+03 0.  0.
          5    1    3    3  502    0 -0.11907309036E+03  0.76755001152E+02  0.45799396101E+02  0.14894558783E+03  0.41800000000E+01 0.  1.
         -5    1    3    3    0  502  0.22302065615E+02 -0.39669138018E+01 -0.15505758377E+02  0.27767237505E+02  0.41800000000E+01 0.  1.
        -11    1    1    2    0    0 -0.95127499614E+01 -0.22280866205E+02 -0.51927700181E+00  0.24232190559E+02  0.00000000000E+00 0.  1.
         11    1    1    2    0    0  0.10628377471E+03 -0.50507221145E+02  0.13567627883E+03  0.17959753002E+03  0.00000000000E+00 0. -1.
</event>
<event>
 7    1  0.2384639E-009  0.1206109E+03  0.7561462E-02  0.1242093E+00
         -2   -1    0    0    0  501 -0.00000000000E+00  0.00000000000E+00  0.19273402209E+02  0.19273402209E+02  0.00000000000E+00 0.  1.
          2   -1    0    0  501    0  0.00000000000E+00 -0.00000000000E+00 -0.10712191877E+04  0.10712191877E+04  0.00000000000E+00 0. -1.
         25    2    1    2    0    0 -0.19692034201E+02  0.90828315041E+02 -0.64136869726E+03  0.66002905865E+03  0.12508794272E+03 0.  0.
          5    1    3    3  502    0  0.21925419368E+02  0.54903875951E+02 -0.10292302463E+03  0.11876776081E+03  0.41800000000E+01 0.  1.
         -5    1    3    3    0  502 -0.41617453569E+02  0.35924439090E+02 -0.53844567264E+03  0.54126129785E+03  0.41800000000E+01 0.  1.
        -11    1    1    2    0    0 -0.33265721516E+02 -0.49512658828E+02 -0.15147015469E+03  0.16279225833E+03  0.00000000000E+00 0.  1.
         11    1    1    2    0    0  0.52957755717E+02 -0.41315656212E+02 -0.25910693357E+03  0.26767127295E+03  0.00000000000E+00 0. -1.
</event>
<event>
 7    1  0.2384639E-009  0.1131525E+03  0.7561462E-02  0.1254841E+00
          1   -1    0    0  501    0  0.00000000000E+00  0.00000000000E+00  0.70697988805E+03  0.70697988805E+03  0.00000000000E+00 0. -1.
         -1   -1    0    0    0  501 -0.00000000000E+00 -0.00000000000E+00 -0.22530895001E+02  0.22530895001E+02  0.00000000000E+00 0.  1.
         25    2    1    2    0    0 -0.59165493520E+02 -0.62311131047E+01  0.44317790549E+03  0.46432114713E+03  0.12509232336E+03 0.  0.
          5    1    3    3  502    0  0.11888368879E+02 -0.52258297079E+02  0.17254709176E+03  0.18072696037E+03  0.41800000000E+01 0.  1.
         -5    1    3    3    0  502 -0.71053862399E+02  0.46027183975E+02  0.27063081372E+03  0.28359418676E+03  0.41800000000E+01 0.  1.
        -11    1    1    2    0    0  0.38629773064E+02 -0.28109217210E+02  0.20720094092E+03  0.21263729066E+03  0.00000000000E+00 0. -1.
         11    1    1    2    0    0  0.20535720456E+02  0.34340330315E+02  0.34070146640E+02  0.52552345265E+02  0.00000000000E+00 0.  1.
</event>
<event>
 7    1  0.2384639E-009  0.1052904E+03  0.7561462E-02  0.1269548E+00
         -1   -1    0    0    0  501 -0.00000000000E+00  0.00000000000E+00  0.11075122440E+03  0.11075122440E+03  0.00000000000E+00 0.  1.
          1   -1    0    0  501    0  0.00000000000E+00 -0.00000000000E+00 -0.11664407610E+03  0.11664407610E+03  0.00000000000E+00 0. -1.
         25    2    1    2    0    0 -0.29697364272E+02 -0.60423585923E+01  0.12011193313E+02  0.12926694946E+03  0.12508889605E+03 0.  0.
          5    1    3    3  502    0  0.42045998098E+02  0.62730012221E+01 -0.22855562931E+02  0.48446523686E+02  0.41800000000E+01 0.  1.
         -5    1    3    3    0  502 -0.71743362370E+02 -0.12315359814E+02  0.34866756244E+02  0.80820425775E+02  0.41800000000E+01 0.  1.
        -11    1    1    2    0    0  0.51331381604E+02 -0.25015051382E+02 -0.21837811587E+01  0.57143962351E+02  0.00000000000E+00 0.  1.
         11    1    1    2    0    0 -0.21634017331E+02  0.31057409974E+02 -0.15720263854E+02  0.40984388684E+02  0.00000000000E+00 0. -1.
</event>
<event>
 7    1  0.2384639E-009  0.1611210E+03  0.7561462E-02  0.1187437E+00
          2   -1    0    0  501    0  0.00000000000E+00  0.00000000000E+00  0.46015848287E+03  0.46015848287E+03  0.00000000000E+00 0. -1.
         -2   -1    0    0    0  501 -0.00000000000E+00 -0.00000000000E+00 -0.67318918733E+02  0.67318918733E+02  0.00000000000E+00 0.  1.
         25    2    1    2    0    0  0.11395783343E+03  0.40786163026E+02  0.31025650584E+03  0.35574780086E+03  0.12508996566E+03 0.  0.
          5    1    3    3  502    0  0.11438935763E+03  0.75963765465E+02  0.22805234322E+03  0.26623441260E+03  0.41800000000E+01 0.  1.
         -5    1    3    3    0  502 -0.43152420353E+00 -0.35177602439E+02  0.82204162615E+02  0.89513388260E+02  0.41800000000E+01 0.  1.
        -11    1    1    2    0    0 -0.62477984150E+02 -0.67046659183E+02  0.40258203895E+02  0.10009733259E+03  0.00000000000E+00 0. -1.
         11    1    1    2    0    0 -0.51479849280E+02  0.26260496157E+02  0.42324854409E+02  0.71632268156E+02  0.00000000000E+00 0.  1.
</event>
<event>
 7    1  0.2384639E-009  0.1025485E+03  0.7561462E-02  0.1275026E+00
          2   -1    0    0  501    0  0.00000000000E+00  0.00000000000E+00  0.12853251527E+03  0.12853251527E+03  0.00000000000E+00 0. -1.
         -2   -1    0    0    0  501 -0.00000000000E+00 -0.00000000000E+00 -0.10983383616E+03  0.10983383616E+03  0.00000000000E+00 0.  1.
         25    2    1    2    0    0  0.41409920295E+02 -0.12151398801E+01 -0.89301933434E+01  0.13207318405E+03  0.12508924625E+03 0.  0.
          5    1    3    3  502    0 -0.26992913071E+02  0.33316066234E+02  0.23139632011E+02  0.48902889434E+02  0.41800000000E+01 0. -1.
         -5    1    3    3    0  502  0.68402833366E+02 -0.34531206114E+02 -0.32069825354E+02  0.83170294616E+02  0.41800000000E+01 0. -1.
        -11    1    1    2    0    0 -0.48415702603E+02  0.29124938450E+02  0.45392407699E+02  0.72476292503E+02  0.00000000000E+00 0. -1.
         11    1    1    2    0    0  0.70057823084E+01 -0.27909798570E+02 -0.17763535249E+02  0.33816874878E+02  0.00000000000E+00 0.  1.
</event>
<event>
 7    1  0.2384639E-009  0.1107722E+03  0.7561462E-02  0.1259146E+00
         -1   -1    0    0    0  501 -0.00000000000E+00  0.00000000000E+00  0.33759429498E+02  0.33759429498E+02  0.00000000000E+00 0.  1.
          1   -1    0    0  501    0  0.00000000000E+00 -0.00000000000E+00 -0.53163101739E+03  0.53163101739E+03  0.00000000000E+00 0. -1.
         25    2    1    2    0    0  0.62112516260E+02  0.26302426287E+02 -0.35757441831E+03  0.38477960322E+03  0.12508435603E+03 0.  0.
          5    1    3    3  502    0 -0.26977211749E+02 -0.69596732901E+01 -0.21371739541E+02  0.35361428945E+02  0.41800000000E+01 0.  1.
         -5    1    3    3    0  502  0.89089728009E+02  0.33262099577E+02 -0.33620267877E+03  0.34941817428E+03  0.41800000000E+01 0.  1.
        -11    1    1    2    0    0 -0.33750843838E+01 -0.38120218012E+02 -0.10338001552E+03  0.11023597337E+03  0.00000000000E+00 0. -1.
         11    1    1    2    0    0 -0.58737431876E+02  0.11817791725E+02 -0.36917154059E+02  0.70374870291E+02  0.00000000000E+00 0.  1.
</event>
<event>
 7    1  0.2384639E-009  0.1566800E+03  0.7561462E-02  0.1192497E+00
         -1   -1    0    0    0  501 -0.00000000000E+00  0.00000000000E+00  0.10718552404E+03  0.10718552404E+03  0.00000000000E+00 0.  1.
          1   -1    0    0  501    0  0.00000000000E+00 -0.00000000000E+00 -0.50325320995E+03  0.50325320995E+03  0.00000000000E+00 0. -1.
         25    2    1    2    0    0  0.11098575492E+03  0.69437721668E+02  0.25119698649E+01  0.18108680604E+03  0.12508671530E+03 0.  0.
          5    1    3    3  502    0  0.57425844013E+02  0.85883731298E+02  0.42846328583E+02  0.11192418477E+03  0.41800000000E+01 0. -1.
         -5    1    3    3    0  502  0.53559910903E+02 -0.16446009630E+02 -0.40334358718E+02  0.69162621277E+02  0.41800000000E+01 0. -1.
        -11    1    1    2    0    0 -0.11840835377E+03 -0.42449438584E+02 -0.27146177641E+03  0.29918888537E+03  0.00000000000E+00 0.  1.
         11    1    1    2    0    0  0.74225988565E+01 -0.26988283085E+02 -0.12711787937E+03  0.13016304258E+03  0.00000000000E+00 0. -1.
</event>
<event>
 7    1  0.2384639E-009  0.1133126E+03  0.7561462E-02  0.1254556E+00
          2   -1    0    0  501    0  0.00000000000E+00  0.00000000000E+00  0.14062052491E+04  0.14062052491E+04  0.00000000000E+00 0. -1.
         -2   -1    0    0    0  501 -0.00000000000E+00 -0.00000000000E+00 -0.97986298054E+01  0.97986298054E+01  0.00000000000E+00 0.  1.
         25    2    1    2    0    0  0.37815878267E+02 -0.19924297836E+02  0.87236188241E+03  0.88232078641E+03  0.12509075888E+03 0.  0.
          5    1    3    3  502    0 -0.42931283759E+02 -0.46258593084E+01  0.44491432457E+03  0.44702429722E+03  0.41800000000E+01 0.  1.
         -5    1    3    3    0  502  0.80747162026E+02 -0.15298438528E+02  0.42744755783E+03  0.43529648918E+03  0.41800000000E+01 0.  1.
        -11    1    1    2    0    0 -0.35643832671E+02  0.55147375514E+02  0.33638085944E+03  0.34272992054E+03  0.00000000000E+00 0. -1.
         11    1    1    2    0    0 -0.21720455960E+01 -0.35223077678E+02  0.18766387745E+03  0.19095317197E+03  0.00000000000E+00 0.  1.
</event>
<event>
 7    1  0.2384639E-009  0.1760715E+03  0.7561462E-02  0.1171660E+00
         -2   -1    0    0    0  501 -0.00000000000E+00  0.00000000000E+00  0.55601197186E+02  0.55601197186E+02  0.00000000000E+00 0.  1.
          2   -1    0    0  501    0  0.00000000000E+00 -0.00000000000E+00 -0.63808656700E+03  0.63808656700E+03  0.00000000000E+00 0. -1.
         25    2    1    2    0    0  0.13176682325E+03 -0.79973976954E+02 -0.31214013625E+03  0.36991501136E+03  0.12508924122E+03 0.  0.
          5    1    3    3  502    0  0.59950847746E+02 -0.10318445989E+03 -0.22368586120E+03  0.25356256389E+03  0.41800000000E+01 0. -1.
         -5    1    3    3    0  502  0.71815975502E+02  0.23210482937E+02 -0.88454275056E+02  0.11635244747E+03  0.41800000000E+01 0. -1.
        -11    1    1    2    0    0 -0.73702327061E+01  0.15203109587E+02  0.24156547396E+01  0.17067227633E+02  0.00000000000E+00 0.  1.
         11    1    1    2    0    0 -0.12439659054E+03  0.64770867367E+02 -0.27276088830E+03  0.30670552519E+03  0.00000000000E+00 0. -1.
</event>
<event>
 7    1  0.2384639E-009  0.1333069E+03  0.7561462E-02  0.1222630E+00
          2   -1    0    0  501    0  0.00000000000E+00  0.00000000000E+00  0.56809453222E+03  0.56809453222E+03  0.00000000000E+00 0. -1.
         -2   -1    0    0    0  501 -0.00000000000E+00 -0.00000000000E+00 -0.54709781606E+02  0.54709781606E+02  0.00000000000E+00 0.  1.
         25    2    1    2    0    0 -0.60658655753E+02 -0.84915796878E+02  0.43312258318E+03  0.46274456563E+03  0.12508875203E+03 0.  0.
          5    1    3    3  502    0 -0.99245926240E+02 -0.59991718828E+02  0.28929880460E+03  0.31170503837E+03  0.41800000000E+01 0.  1.
         -5    1    3    3    0  502  0.38587270487E+02 -0.24924078050E+02  0.14382377858E+03  0.15103952726E+03  0.41800000000E+01 0.  1.
        -11    1    1    2    0    0  0.37570391352E+02  0.48987968981E+02 -0.77622596718E+01  0.62222247520E+02  0.00000000000E+00 0.  1.
         11    1    1    2    0    0  0.23088264401E+02  0.35927827897E+02  0.88024427105E+02  0.97837500671E+02  0.00000000000E+00 0. -1.
</event>
<event>
 7    1  0.2384639E-009  0.1564721E+03  0.7561462E-02  0.1192738E+00
         -2   -1    0    0    0  501 -0.00000000000E+00  0.00000000000E+00  0.28526367809E+02  0.28526367809E+02  0.00000000000E+00 0.  1.
          2   -1    0    0  501    0  0.00000000000E+00 -0.00000000000E+00 -0.12276154745E+04  0.12276154745E+04  0.00000000000E+00 0. -1.
         25    2    1    2    0    0  0.13016416488E+03 -0.50967809386E+02 -0.80261499583E+03  0.82424465110E+03  0.12509190988E+03 0.  0.
          5    1    3    3  502    0  0.58391520850E+02 -0.73025614586E+01 -0.96266374657E+02  0.11290520095E+03  0.41800000000E+01 0. -1.
         -5    1    3    3    0  502  0.71772644028E+02 -0.43665247928E+02 -0.70634862117E+03  0.71133945015E+03  0.41800000000E+01 0. -1.
        -11    1    1    2    0    0  0.15920695295E+02  0.50480674411E+01 -0.58748348681E+02  0.61076345636E+02  0.00000000000E+00 0.  1.
         11    1    1    2    0    0 -0.14608486017E+03  0.45919741945E+02 -0.33772576216E+03  0.37082084556E+03  0.00000000000E+00 0. -1.
</event>
<event>
 7    1  0.2384639E-009  0.1424602E+03  0.7561462E-02  0.1210056E+00
         -2   -1    0    0    0  501 -0.00000000000E+00  0.00000000000E+00  0.28868277030E+03  0.28868277030E+03  0.00000000000E+00 0.  1.
          2   -1    0    0  501    0  0.00000000000E+00 -0.00000000000E+00 -0.94390857904E+02  0.94390857904E+02  0.00000000000E+00 0. -1.
         25    2    1    2    0    0 -0.33302810736E+02 -0.12092899863E+03  0.10431652934E+03  0.20557588060E+03  0.12508638807E+03 0.  0.
          5    1    3    3  502    0  0.13811868619E+02 -0.77206886212E+02  0.11602305123E+03  0.14010885700E+03  0.41800000000E+01 0. -1.
         -5    1    3    3    0  502 -0.47114679355E+02 -0.43722112421E+02 -0.11706521888E+02  0.65467023607E+02  0.41800000000E+01 0. -1.
        -11    1    1    2    0    0  0.40980671539E+02  0.30187700632E+02  0.65966603739E+02  0.83320498788E+02  0.00000000000E+00 0. -1.
         11    1    1    2    0    0 -0.76778608038E+01  0.90741298001E+02  0.24008779319E+02  0.94177248812E+02  0.00000000000E+00 0.  1.
</event>
<event>
 7    1  0.2384639E-009  0.1538447E+03  0.7561462E-02  0.1195827E+00
          1   -1    0    0  501    0  0.00000000000E+00  0.00000000000E+00  0.29510429744E+03  0.29510429744E+03  0.00000000000E+00 0. -1.
         -1   -1    0    0    0  501 -0.00000000000E+00 -0.00000000000E+00 -0.11876086115E+03  0.11876086115E+03  0.00000000000E+00 0.  1.
         25    2    1    2    0    0  0.12947421252E+03 -0.74865831484E+02  0.59891597935E+02  0.20396707037E+03  0.12508836021E+03 0.  0.
          5    1    3    3  502    0  0.13193217101E+03 -0.75956326233E+02  0.87685785901E+02  0.17573198539E+03  0.41800000000E+01 0. -1.
         -5    1    3    3    0  502 -0.24579584906E+01  0.10904947491E+01 -0.27794187966E+02  0.28235084973E+02  0.41800000000E+01 0. -1.
        -11    1    1    2    0    0 -0.34773513122E+02  0.28624652658E+02 -0.91295094183E+01  0.45955586133E+02  0.00000000000E+00 0.  1.
         11    1    1    2    0    0 -0.94700699395E+02  0.46241178826E+02  0.12558134777E+03  0.16394250209E+03  0.00000000000E+00 0. -1.
</event>
<event>
 7    1  0.2384639E-009  0.5086861E+02  0.7561462E-02  0.1440712E+00
          2   -1    0    0  501    0  0.00000000000E+00  0.00000000000E+00  0.28454991596E+03  0.28454991596E+03  0.00000000000E+00 0. -1.
         -2   -1    0    0    0  501 -0.00000000000E+00 -0.00000000000E+00 -0.37342050502E+02  0.37342050502E+02  0.00000000000E+00 0.  1.
         25    2    1    2    0    0  0.94742332026E+01 -0.28837397737E+01  0.14271376476E+03  0.19003376580E+03  0.12509011329E+03 0.  0.
          5    1    3    3  502    0  0.22989899461E+02 -0.90976317146E+01 -0.16535511282E+02  0.30036609552E+02  0.41800000000E+01 0.  1.
         -5    1    3    3    0  502 -0.13515666259E+02  0.62138919408E+01  0.15924927604E+03  0.15999715625E+03  0.41800000000E+01 0.  1.
        -11    1    1    2    0    0 -0.24311681306E+02  0.24809515748E+02  0.13795841525E+02  0.37375060709E+02  0.00000000000E+00 0.  1.
         11    1    1    2    0    0  0.14837448104E+02 -0.21925775975E+02  0.90698259169E+02  0.94483139949E+02  0.00000000000E+00 0. -1.
</event>
<event>
 7    1  0.2384639E-009  0.8247896E+02  0.7561462E-02  0.1322160E+00
         -2   -1    0    0    0  501 -0.00000000000E+00  0.00000000000E+00  0.19993022251E+03  0.19993022251E+03  0.00000000000E+00 0. -1.
          2   -1    0    0  501    0  0.00000000000E+00 -0.00000000000E+00 -0.59326493696E+02  0.59326493696E+02  0.00000000000E+00 0.  1.
         25    2    1    2    0    0 -0.78986226941E+01  0.10329514060E+02  0.62234848518E+02  0.14032015191E+03  0.12508989392E+03 0.  0.
          5    1    3    3  502    0  0.34088652939E+02  0.44063144472E+02  0.65634532733E+02  0.86191422120E+02  0.41800000000E+01 0.  1.
         -5    1    3    3    0  502 -0.41987275633E+02 -0.33733630413E+02 -0.33996842159E+01  0.54128729790E+02  0.41800000000E+01 0.  1.
        -11    1    1    2    0    0  0.30509392520E+02 -0.76487582059E+00 -0.59697080889E+01  0.31097354897E+02  0.00000000000E+00 0.  1.
         11    1    1    2    0    0 -0.22610769826E+02 -0.95646382390E+01  0.84338588383E+02  0.87839209396E+02  0.00000000000E+00 0. -1.
</event>
<event>
 7    1  0.2384639E-009  0.9582050E+02  0.7561462E-02  0.1289339E+00
          1   -1    0    0  501    0  0.00000000000E+00  0.00000000000E+00  0.13106146875E+03  0.13106146875E+03  0.00000000000E+00 0. -1.
         -1   -1    0    0    0  501 -0.00000000000E+00 -0.00000000000E+00 -0.11963224097E+03  0.11963224097E+03  0.00000000000E+00 0.  1.
         25    2    1    2    0    0 -0.16442015787E+02 -0.55905771073E+02  0.29407780672E+02  0.14109372378E+03  0.12508727435E+03 0.  0.
          5    1    3    3  502    0 -0.10267663258E+02  0.30218632003E+02  0.42866274487E+02  0.53605788095E+02  0.41800000000E+01 0.  1.
         -5    1    3    3    0  502 -0.61743525299E+01 -0.86124403076E+02 -0.13458493815E+02  0.87487935683E+02  0.41800000000E+01 0.  1.
        -11    1    1    2    0    0  0.29343264659E+02  0.21837806916E+02  0.31421464316E+02  0.48220591156E+02  0.00000000000E+00 0. -1.
         11    1    1    2    0    0 -0.12901248872E+02  0.34067964158E+02 -0.49400017207E+02  0.61379394786E+02  0.00000000000E+00 0.  1.
</event>
<event>
 7    1  0.2384639E-009  0.1352608E+03  0.7561462E-02  0.1219852E+00
         -1   -1    0    0    0  501 -0.00000000000E+00  0.00000000000E+00  0.67267250914E+02  0.67267250914E+02  0.00000000000E+00 0.  1.
          1   -1    0    0  501    0  0.00000000000E+00 -0.00000000000E+00 -0.31876116423E+03  0.31876116423E+03  0.00000000000E+00 0. -1.
         25    2    1    2    0    0 -0.44306631276E+02  0.87618726495E+02 -0.13080832570E+03  0.20591001236E+03  0.12509195142E+03 0.  0.
          5    1    3    3  502    0 -0.75563445253E+02  0.50505156811E+02 -0.12811273314E+03  0.15713354166E+03  0.41800000000E+01 0.  1.
         -5    1    3    3    0  502  0.31256813977E+02  0.37113569684E+02 -0.26955925623E+01  0.48776470700E+02  0.41800000000E+01 0.  1.
        -11    1    1    2    0    0  0.59118835900E+02 -0.21230912682E+02 -0.39494024799E+02  0.74199504084E+02  0.00000000000E+00 0.  1.
         11    1    1    2    0    0 -0.14812204624E+02 -0.66387813814E+02 -0.81191562820E+02  0.10591889870E+03  0.00000000000E+00 0. -1.
</event>
<event>
 7    1  0.2384639E-009  0.1443720E+03  0.7561462E-02  0.1207564E+00
         -2   -1    0    0    0  501 -0.00000000000E+00  0.00000000000E+00  0.31680117207E+02  0.31680117207E+02  0.00000000000E+00 0.  1.
          2   -1    0    0  501    0  0.00000000000E+00 -0.00000000000E+00 -0.90382825700E+03  0.90382825700E+03  0.00000000000E+00 0. -1.
         25    2    1    2    0    0 -0.11432737636E+03  0.43795439509E+02 -0.34930438817E+03  0.39070309847E+03  0.12508623446E+03 0.  0.
          5    1    3    3  502    0 -0.40682532106E+02 -0.26002063503E+02 -0.33348413523E+02  0.58828265396E+02  0.41800000000E+01 0.  1.
         -5    1    3    3    0  502 -0.73644844250E+02  0.69797503013E+02 -0.31595597465E+03  0.33187483308E+03  0.41800000000E+01 0.  1.
        -11    1    1    2    0    0  0.69842716203E+02 -0.59298794435E+02 -0.44059916888E+03  0.45002442117E+03  0.00000000000E+00 0. -1.
         11    1    1    2    0    0  0.44484660154E+02  0.15503354925E+02 -0.82244582734E+02  0.94780854564E+02  0.00000000000E+00 0.  1.
</event>
<event>
 7    1  0.2384639E-009  0.9830289E+02  0.7561462E-02  0.1283906E+00
         -1   -1    0    0    0  501 -0.00000000000E+00  0.00000000000E+00  0.18473495433E+03  0.18473495433E+03  0.00000000000E+00 0.  1.
          1   -1    0    0  501    0  0.00000000000E+00 -0.00000000000E+00 -0.14759509583E+03  0.14759509583E+03  0.00000000000E+00 0. -1.
         25    2    1    2    0    0 -0.52944221541E+02 -0.64149632485E+02 -0.72810106375E+02  0.16693863162E+03  0.12509568016E+03 0.  0.
          5    1    3    3  502    0 -0.61008494552E+02 -0.19347099309E+02 -0.96174433499E+02  0.11559991660E+03  0.41800000000E+01 0.  1.
         -5    1    3    3    0  502  0.80642730113E+01 -0.44802533176E+02  0.23364327124E+02  0.51338715023E+02  0.41800000000E+01 0.  1.
        -11    1    1    2    0    0  0.46930901028E+02  0.39381626351E+02  0.12251171337E+03  0.13697642818E+03  0.00000000000E+00 0.  1.
         11    1    1    2    0    0  0.60133205123E+01  0.24768006135E+02 -0.12561748498E+02  0.28414990354E+02  0.00000000000E+00 0. -1.
</event>
<event>
 7    1  0.2384639E-009  0.9821728E+02  0.7561462E-02  0.1284090E+00
          2   -1    0    0  501    0  0.00000000000E+00  0.00000000000E+00  0.36750681761E+03  0.36750681761E+03  0.00000000000E+00 0. -1.
         -2   -1    0    0    0  501 -0.00000000000E+00 -0.00000000000E+00 -0.35929419660E+02  0.35929419660E+02  0.00000000000E+00 0.  1.
         25    2    1    2    0    0 -0.30785503205E+02  0.73610215387E+01  0.14019659212E+03  0.19053708200E+03  0.12508942134E+03 0.  0.
          5    1    3    3  502    0  0.14733237330E+01  0.63723433524E+02  0.72785763846E+02  0.96840520866E+02  0.41800000000E+01 0. -1.
         -5    1    3    3    0  502 -0.32258826938E+02 -0.56362411985E+02  0.67410828275E+02  0.93696561137E+02  0.41800000000E+01 0. -1.
        -11    1    1    2    0    0 -0.11085280129E+02  0.16053337624E+02  0.45834088547E+01  0.20039978073E+02  0.00000000000E+00 0.  1.
         11    1    1    2    0    0  0.41870783334E+02 -0.23414359163E+02  0.18679739697E+03  0.19285917719E+03  0.00000000000E+00 0. -1.
</event>
<event>
 7    1  0.2384639E-009  0.9013844E+02  0.7561462E-02  0.1302517E+00
          3   -1    0    0  501    0  0.00000000000E+00  0.00000000000E+00  0.25123330964E+03  0.25123330964E+03  0.00000000000E+00 0. -1.
         -3   -1    0    0    0  501 -0.00000000000E+00 -0.00000000000E+00 -0.60147037368E+02  0.60147037368E+02  0.00000000000E+00 0.  1.
         25    2    1    2    0    0  0.21448576664E+02 -0.14980311109E+02  0.41300859228E+02  0.13430034049E+03  0.12508544808E+03 0.  0.
          5    1    3    3  502    0  0.49821670207E+02  0.10529072390E+02 -0.25617377953E+02  0.57155775218E+02  0.41800000000E+01 0. -1.
         -5    1    3    3    0  502 -0.28373093544E+02 -0.25509383499E+02  0.66918237181E+02  0.77144565273E+02  0.41800000000E+01 0. -1.
        -11    1    1    2    0    0  0.34053253774E+02  0.54459135541E+01  0.81981750007E+02  0.88939807742E+02  0.00000000000E+00 0.  1.
         11    1    1    2    0    0 -0.55501830438E+02  0.95343975546E+01  0.67803663035E+02  0.88140198773E+02  0.00000000000E+00 0. -1.
</event>
<event>
 7    1  0.2384639E-009  0.1892479E+03  0.7561462E-02  0.1159141E+00
          1   -1    0    0  501    0  0.00000000000E+00  0.00000000000E+00  0.15603287660E+03  0.15603287660E+03  0.00000000000E+00 0. -1.
         -1   -1    0    0    0  501 -0.00000000000E+00 -0.00000000000E+00 -0.29003181680E+03  0.29003181680E+03  0.00000000000E+00 0.  1.
         25    2    1    2    0    0  0.80221178241E+02 -0.15018031084E+03 -0.13636889589E+03  0.25145667572E+03  0.12507765907E+03 0.  0.
          5    1    3    3  502    0 -0.18096529150E+02 -0.13649081621E+02  0.12974546808E+02  0.26449821573E+02  0.41800000000E+01 0.  1.
         -5    1    3    3    0  502  0.98317707391E+02 -0.13653122922E+03 -0.14934344270E+03  0.22500685415E+03  0.41800000000E+01 0.  1.
        -11    1    1    2    0    0 -0.84624328097E+02  0.78800560406E+02  0.27408386842E+02  0.11883612622E+03  0.00000000000E+00 0. -1.
         11    1    1    2    0    0  0.44031498560E+01  0.71379750431E+02 -0.25038431150E+02  0.75771891456E+02  0.00000000000E+00 0.  1.
</event>
<event>
 7    1  0.2384639E-009  0.1354132E+03  0.7561462E-02  0.1219638E+00
          2   -1    0    0  501    0  0.00000000000E+00  0.00000000000E+00  0.55565374409E+02  0.55565374409E+02  0.00000000000E+00 0. -1.
         -2   -1    0    0    0  501 -0.00000000000E+00 -0.00000000000E+00 -0.44193002957E+03  0.44193002957E+03  0.00000000000E+00 0.  1.
         25    2    1    2    0    0  0.84823808643E+02  0.69131024205E+02 -0.23599498264E+03  0.28864066230E+03  0.12508246514E+03 0.  0.
          5    1    3    3  502    0 -0.25037709873E+02  0.20671631502E+01 -0.78365347572E+01  0.26646646247E+02  0.41800000000E+01 0.  1.
         -5    1    3    3    0  502  0.10986151852E+03  0.67063861055E+02 -0.22815844788E+03  0.26199401606E+03  0.41800000000E+01 0.  1.
        -11    1    1    2    0    0 -0.14320824662E+02 -0.35867866448E+02 -0.11850217559E+03  0.12463689455E+03  0.00000000000E+00 0.  1.
         11    1    1    2    0    0 -0.70502983981E+02 -0.33263157757E+02 -0.31867496931E+02  0.84217847128E+02  0.00000000000E+00 0. -1.
</event>
<event>
 7    1  0.2384639E-009  0.1072632E+03  0.7561462E-02  0.1265724E+00
          1   -1    0    0  501    0  0.00000000000E+00  0.00000000000E+00  0.16154304699E+03  0.16154304699E+03  0.00000000000E+00 0. -1.
         -1   -1    0    0    0  501 -0.00000000000E+00 -0.00000000000E+00 -0.89134266566E+02  0.89134266566E+02  0.00000000000E+00 0.  1.
         25    2    1    2    0    0 -0.25029556386E+02  0.36514270360E+02  0.68602109453E+02  0.14937754887E+03  0.12509049546E+03 0.  0.
          5    1    3    3  502    0 -0.70007414855E+02  0.41551436435E+02  0.22338296845E+02  0.84522375206E+02  0.41800000000E+01 0.  1.
         -5    1    3    3    0  502  0.44977858469E+02 -0.50371660753E+01  0.46263812608E+02  0.64855173668E+02  0.41800000000E+01 0.  1.
        -11    1    1    2    0    0  0.81597884028E+01  0.23678770535E+02  0.24907630384E+02  0.35322179607E+02  0.00000000000E+00 0. -1.
         11    1    1    2    0    0  0.16869767983E+02 -0.60193040895E+02 -0.21100959414E+02  0.65977585074E+02  0.00000000000E+00 0.  1.
</event>
<event>
 7    1  0.2384639E-009  0.8690006E+02  0.7561462E-02  0.1310537E+00
         -1   -1    0    0    0  501 -0.00000000000E+00  0.00000000000E+00  0.31485161835E+02  0.31485161835E+02  0.00000000000E+00 0. -1.
          1   -1    0    0  501    0  0.00000000000E+00 -0.00000000000E+00 -0.47289448792E+03  0.47289448792E+03  0.00000000000E+00 0.  1.
         25    2    1    2    0    0 -0.46130009811E+02 -0.26793793933E+02 -0.20434199693E+03  0.24545416722E+03  0.12508481642E+03 0.  0.
          5    1    3    3  502    0  0.51964698469E+01 -0.28595249943E+02 -0.18959823569E+03  0.19185842435E+03  0.41800000000E+01 0.  1.
         -5    1    3    3    0  502 -0.51326479658E+02  0.18014560105E+01 -0.14743761236E+02  0.53595742865E+02  0.41800000000E+01 0.  1.
        -11    1    1    2    0    0 -0.15582723350E+02 -0.12303495621E+02 -0.11472948630E+03  0.11643475554E+03  0.00000000000E+00 0.  1.
         11    1    1    2    0    0  0.61712733161E+02  0.39097289554E+02 -0.12233784286E+03  0.14249072700E+03  0.00000000000E+00 0. -1.
</event>
<event>
 7    1  0.2834689E-009  0.2315390E+03  0.7561462E-02  0.1125561E+00
         -1   -1    0    0    0  501 -0.00000000000E+00  0.00000000000E+00  0.24340891053E+03  0.24340891053E+03  0.00000000000E+00 0.  1.
          1   -1    0    0  501    0  0.00000000000E+00 -0.00000000000E+00 -0.26538665040E+03  0.26538665040E+03  0.00000000000E+00 0. -1.
         25    2    1    2    0    0  0.21288345713E+03 -0.70351361350E+02  0.37346165087E+02  0.25944337923E+03  0.12508977023E+03 0.  0.
          5    1    3    3  502    0  0.11807854331E+03 -0.43631395752E+02 -0.42130017398E+02  0.13281058637E+03  0.41800000000E+01 0.  1.
         -5    1    3    3    0  502  0.94804913824E+02 -0.26719965597E+02  0.79476182485E+02  0.12663279287E+03  0.41800000000E+01 0.  1.
        -11    1    1    2    0    0 -0.98976970823E+02 -0.95003882654E+01 -0.35957795051E+01  0.99496873120E+02  0.00000000000E+00 0.  1.
         11    1    1    2    0    0 -0.11390648631E+03  0.79851749615E+02 -0.55728125456E+02  0.14985530857E+03  0.00000000000E+00 0. -1.
</event>
<event>
 7    1  0.2384639E-009  0.7666636E+02  0.7561462E-02  0.1338787E+00
          3   -1    0    0  501    0  0.00000000000E+00  0.00000000000E+00  0.67028650144E+03  0.67028650144E+03  0.00000000000E+00 0. -1.
         -3   -1    0    0    0  501 -0.00000000000E+00 -0.00000000000E+00 -0.21126494657E+02  0.21126494657E+02  0.00000000000E+00 0.  1.
         25    2    1    2    0    0 -0.18712120982E+02 -0.15162254745E+01  0.49661439076E+03  0.51247019539E+03  0.12508959046E+03 0.  0.
          5    1    3    3  502    0 -0.58904870883E+02 -0.28570758238E+02  0.38744338313E+03  0.39295791069E+03  0.41800000000E+01 0.  1.
         -5    1    3    3    0  502  0.40192749902E+02  0.27054532764E+02  0.10917100763E+03  0.11951228470E+03  0.41800000000E+01 0.  1.
        -11    1    1    2    0    0 -0.97751228787E+01  0.38781442026E+01 -0.96347488494E+01  0.14262587954E+02  0.00000000000E+00 0.  1.
         11    1    1    2    0    0  0.28487243860E+02 -0.23619187281E+01  0.16218036487E+03  0.16468021276E+03  0.00000000000E+00 0. -1.
</event>
<event>
 7    1  0.2384639E-009  0.8742377E+02  0.7561462E-02  0.1309213E+00
         -1   -1    0    0    0  501 -0.00000000000E+00  0.00000000000E+00  0.28557638998E+03  0.28557638998E+03  0.00000000000E+00 0.  1.
          1   -1    0    0  501    0  0.00000000000E+00 -0.00000000000E+00 -0.64007500970E+02  0.64007500970E+02  0.00000000000E+00 0. -1.
         25    2    1    2    0    0  0.44281341281E+02 -0.28315258060E+02  0.19878561392E+03  0.24067782748E+03  0.12508998887E+03 0.  0.
          5    1    3    3  502    0 -0.25159275311E+02  0.47696369610E+00  0.14724198874E+03  0.14943524443E+03  0.41800000000E+01 0. -1.
         -5    1    3    3    0  502  0.69440616592E+02 -0.28792221756E+02  0.51543625176E+02  0.91242583056E+02  0.41800000000E+01 0. -1.
        -11    1    1    2    0    0 -0.18389737520E+01  0.31438840277E+02  0.49491925899E+02  0.58662025465E+02  0.00000000000E+00 0.  1.
         11    1    1    2    0    0 -0.42442367529E+02 -0.31235822171E+01 -0.26708650804E+02  0.50244038006E+02  0.00000000000E+00 0. -1.
</event>
<event>
 7    1  0.2384639E-009  0.1097522E+03  0.7561462E-02  0.1261030E+00
         -1   -1    0    0    0  501 -0.00000000000E+00  0.00000000000E+00  0.14093408799E+02  0.14093408799E+02  0.00000000000E+00 0.  1.
          1   -1    0    0  501    0  0.00000000000E+00 -0.00000000000E+00 -0.96653003703E+03  0.96653003703E+03  0.00000000000E+00 0. -1.
         25    2    1    2    0    0 -0.16119251504E+02  0.16536181419E+02 -0.70032637472E+03  0.71178561423E+03  0.12509378053E+03 0.  0.
          5    1    3    3  502    0  0.21630980489E+02 -0.47698525440E+02 -0.29854929042E+03  0.30313726240E+03  0.41800000000E+01 0.  1.
         -5    1    3    3    0  502 -0.37750231994E+02  0.64234706859E+02 -0.40177708430E+03  0.40864835182E+03  0.41800000000E+01 0.  1.
        -11    1    1    2    0    0  0.49371884973E+02  0.92877475764E+01 -0.15656273047E+03  0.16442546595E+03  0.00000000000E+00 0. -1.
         11    1    1    2    0    0 -0.33252633469E+02 -0.25823928995E+02 -0.95547523032E+02  0.10441236564E+03  0.00000000000E+00 0.  1.
</event>
<event>
 7    1  0.2384639E-009  0.1036057E+03  0.7561462E-02  0.1272891E+00
          1   -1    0    0  501    0  0.00000000000E+00  0.00000000000E+00  0.70476690551E+02  0.70476690551E+02  0.00000000000E+00 0. -1.
         -1   -1    0    0    0  501 -0.00000000000E+00 -0.00000000000E+00 -0.18193681708E+03  0.18193681708E+03  0.00000000000E+00 0.  1.
         25    2    1    2    0    0  0.34018208255E+02 -0.29095672257E+01 -0.57448676945E+02  0.14182102822E+03  0.12508856658E+03 0.  0.
          5    1    3    3  502    0 -0.38378108711E+02  0.25391020792E+01 -0.57253278000E+02  0.69099468227E+02  0.41800000000E+01 0.  1.
         -5    1    3    3    0  502  0.72396316966E+02 -0.54486693049E+01 -0.19539894505E+00  0.72721559995E+02  0.41800000000E+01 0.  1.
        -11    1    1    2    0    0 -0.35186958454E+02 -0.39772537427E+02 -0.36527628550E+02  0.64453428350E+02  0.00000000000E+00 0.  1.
         11    1    1    2    0    0  0.11687501995E+01  0.42682104653E+02 -0.17483821036E+02  0.46139051059E+02  0.00000000000E+00 0. -1.
</event>
<event>
 7    1  0.2384639E-009  0.9275240E+02  0.7561462E-02  0.1296320E+00
         -1   -1    0    0    0  501 -0.00000000000E+00  0.00000000000E+00  0.11119465490E+03  0.11119465490E+03  0.00000000000E+00 0.  1.
          1   -1    0    0  501    0  0.00000000000E+00 -0.00000000000E+00 -0.14176388560E+03  0.14176388560E+03  0.00000000000E+00 0. -1.
         25    2    1    2    0    0 -0.15006947080E+01  0.31197556775E+02 -0.69309321413E+02  0.14637912473E+03  0.12509007350E+03 0.  0.
          5    1    3    3  502    0 -0.49496819071E+02  0.22605306396E+02  0.77207225397E+01  0.55118208715E+02  0.41800000000E+01 0.  1.
         -5    1    3    3    0  502  0.47996124363E+02  0.85922503791E+01 -0.77030043953E+02  0.91260916015E+02  0.41800000000E+01 0.  1.
        -11    1    1    2    0    0 -0.27967083356E+02  0.11394989310E+02  0.45226353627E+02  0.54382226832E+02  0.00000000000E+00 0.  1.
         11    1    1    2    0    0  0.29467778064E+02 -0.42592546085E+02 -0.64862629160E+01  0.52197188935E+02  0.00000000000E+00 0. -1.
</event>
<event>
 7    1  0.2384639E-009  0.1368854E+03  0.7561462E-02  0.1217582E+00
          1   -1    0    0  501    0  0.00000000000E+00  0.00000000000E+00  0.47004738201E+02  0.47004738201E+02  0.00000000000E+00 0. -1.
         -1   -1    0    0    0  501 -0.00000000000E+00 -0.00000000000E+00 -0.63926806583E+03  0.63926806583E+03  0.00000000000E+00 0.  1.
         25    2    1    2    0    0 -0.19496842256E+02  0.12488832521E+03 -0.42006022285E+03  0.45615345506E+03  0.12509261814E+03 0.  0.
          5    1    3    3  502    0 -0.45991354687E+02  0.94683240969E+02 -0.15122508636E+03  0.18430035261E+03  0.41800000000E+01 0. -1.
         -5    1    3    3    0  502  0.26494512431E+02  0.30205084242E+02 -0.26883513649E+03  0.27185310246E+03  0.41800000000E+01 0. -1.
        -11    1    1    2    0    0  0.20550558022E+02 -0.65837957004E+02 -0.28268485926E+02  0.74539045567E+02  0.00000000000E+00 0. -1.
         11    1    1    2    0    0 -0.10537157662E+01 -0.59050368206E+02 -0.14393461886E+03  0.15558030340E+03  0.00000000000E+00 0.  1.
</event>
<event>
 7    1  0.2384639E-009  0.9417333E+02  0.7561462E-02  0.1293049E+00
          2   -1    0    0  501    0  0.00000000000E+00  0.00000000000E+00  0.52972634347E+03  0.52972634347E+03  0.00000000000E+00 0. -1.
         -2   -1    0    0    0  501 -0.00000000000E+00 -0.00000000000E+00 -0.23970755421E+02  0.23970755421E+02  0.00000000000E+00 0.  1.
         25    2    1    2    0    0 -0.27415024714E+02 -0.11235695575E+02  0.26905303528E+03  0.29818496335E+03  0.12508761785E+03 0.  0.
          5    1    3    3  502    0  0.93912669053E+01 -0.52304115788E+02  0.53013735921E+02  0.75178753772E+02  0.41800000000E+01 0. -1.
         -5    1    3    3    0  502 -0.36806291619E+02  0.41068420213E+02  0.21603929936E+03  0.22300620958E+03  0.41800000000E+01 0. -1.
        -11    1    1    2    0    0 -0.14198507509E+02  0.30677919218E+02  0.35052327721E+02  0.48697002184E+02  0.00000000000E+00 0.  1.
         11    1    1    2    0    0  0.41613532223E+02 -0.19442223642E+02  0.20165022504E+03  0.20681513335E+03  0.00000000000E+00 0. -1.
</event>
<event>
 7    1  0.2384639E-009  0.1122115E+03  0.7561462E-02  0.1256528E+00
          2   -1    0    0  501    0  0.00000000000E+00  0.00000000000E+00  0.12657149385E+03  0.12657149385E+03  0.00000000000E+00 0.  1.
         -2   -1    0    0    0  501 -0.00000000000E+00 -0.00000000000E+00 -0.18395475944E+03  0.18395475944E+03  0.00000000000E+00 0. -1.
         25    2    1    2    0    0 -0.43331951483E+02 -0.37603592952E+02  0.60895310122E+02  0.15048948012E+03  0.12508859504E+03 0.  0.
          5    1    3    3  502    0 -0.76361434276E+02 -0.32932605352E+02  0.27331579775E+01  0.83310069574E+02  0.41800000000E+01 0.  1.
         -5    1    3    3    0  502  0.33029482793E+02 -0.46709876005E+01  0.58162152144E+02  0.67179410542E+02  0.41800000000E+01 0.  1.
        -11    1    1    2    0    0  0.56119193826E+02 -0.11081128394E+02 -0.57286914744E+02  0.80956444605E+02  0.00000000000E+00 0.  1.
         11    1    1    2    0    0 -0.12787242343E+02  0.48684721346E+02 -0.60991660968E+02  0.79080328571E+02  0.00000000000E+00 0. -1.
</event>
<event>
 7    1  0.2384639E-009  0.8439283E+02  0.7561462E-02  0.1317028E+00
          1   -1    0    0  501    0  0.00000000000E+00  0.00000000000E+00  0.31366113106E+03  0.31366113106E+03  0.00000000000E+00 0. -1.
         -1   -1    0    0    0  501 -0.00000000000E+00 -0.00000000000E+00 -0.40010518543E+02  0.40010518543E+02  0.00000000000E+00 0.  1.
         25    2    1    2    0    0 -0.91545121768E+01  0.19750768450E+01  0.18533491780E+03  0.22379362329E+03  0.12508736167E+03 0.  0.
          5    1    3    3  502    0 -0.11720324480E+02  0.46364727705E+02  0.19102415161E+02  0.51666513779E+02  0.41800000000E+01 0.  1.
         -5    1    3    3    0  502  0.25658123030E+01 -0.44389650860E+02  0.16623250264E+03  0.17212710951E+03  0.41800000000E+01 0.  1.
        -11    1    1    2    0    0  0.41348766851E+02 -0.10804987414E+02  0.87928864305E+01  0.43632363274E+02  0.00000000000E+00 0.  1.
         11    1    1    2    0    0 -0.32194254674E+02  0.88299105690E+01  0.79522808287E+02  0.86245663036E+02  0.00000000000E+00 0. -1.
</event>
<event>
 7    1  0.2384639E-009  0.1406361E+03  0.7561462E-02  0.1212476E+00
         -1   -1    0    0    0  501 -0.00000000000E+00  0.00000000000E+00  0.54473072360E+02  0.54473072360E+02  0.00000000000E+00 0.  1.
          1   -1    0    0  501    0  0.00000000000E+00 -0.00000000000E+00 -0.46515041752E+03  0.46515041752E+03  0.00000000000E+00 0. -1.
         25    2    1    2    0    0  0.83545374715E+02 -0.76347003176E+02 -0.25855307100E+03  0.30871804407E+03  0.12509374757E+03 0.  0.
          5    1    3    3  502    0  0.87745887791E+02 -0.92410497634E+02 -0.26188649662E+03  0.29127487089E+03  0.41800000000E+01 0.  1.
         -5    1    3    3    0  502 -0.42005130760E+01  0.16063494458E+02  0.33334256217E+01  0.17443173183E+02  0.41800000000E+01 0.  1.
        -11    1    1    2    0    0 -0.85466237332E+02  0.30474609110E+02 -0.13337167262E+03  0.16131082599E+03  0.00000000000E+00 0. -1.
         11    1    1    2    0    0  0.19208626168E+01  0.45872394066E+02 -0.18752601539E+02  0.49594619819E+02  0.00000000000E+00 0.  1.
</event>
<event>
 7    1  0.2384639E-009  0.1096610E+03  0.7561462E-02  0.1261199E+00
         -1   -1    0    0    0  501 -0.00000000000E+00  0.00000000000E+00  0.13937757918E+02  0.13937757918E+02  0.00000000000E+00 0.  1.
          1   -1    0    0  501    0  0.00000000000E+00 -0.00000000000E+00 -0.18702096824E+04  0.18702096824E+04  0.00000000000E+00 0. -1.
         25    2    1    2    0    0  0.96353833112E+01 -0.68965925101E+02 -0.14304671684E+04  0.14376136148E+04  0.12508975226E+03 0.  0.
          5    1    3    3  502    0 -0.10845685401E+02 -0.61807301698E+02 -0.28174062491E+03  0.28867459805E+03  0.41800000000E+01 0. -1.
         -5    1    3    3    0  502  0.20481068712E+02 -0.71586234025E+01 -0.11487265435E+04  0.11489390168E+04  0.41800000000E+01 0. -1.
        -11    1    1    2    0    0  0.47117407788E+02  0.28507185284E+01 -0.15933328155E+03  0.16617843218E+03  0.00000000000E+00 0. -1.
         11    1    1    2    0    0 -0.56752791099E+02  0.66115206573E+02 -0.26647147447E+03  0.28035539328E+03  0.00000000000E+00 0.  1.
</event>
<event>
 7    1  0.2440723E-009  0.2723523E+03  0.7561462E-02  0.1099941E+00
         -1   -1    0    0    0  501 -0.00000000000E+00  0.00000000000E+00  0.85783594385E+02  0.85783594385E+02  0.00000000000E+00 0.  1.
          1   -1    0    0  501    0  0.00000000000E+00 -0.00000000000E+00 -0.97221945634E+03  0.97221945634E+03  0.00000000000E+00 0. -1.
         25    2    1    2    0    0  0.20510368492E+03 -0.16729716312E+03 -0.52232381866E+03  0.59876966377E+03  0.12508827424E+03 0.  0.
          5    1    3    3  502    0  0.14123871362E+03 -0.10617285930E+03 -0.21168535115E+03  0.27577021334E+03  0.41800000000E+01 0. -1.
         -5    1    3    3    0  502  0.63864971308E+02 -0.61124303820E+02 -0.31063846751E+03  0.32299945043E+03  0.41800000000E+01 0. -1.
        -11    1    1    2    0    0 -0.13746363912E+03  0.54371346278E+02 -0.20472687991E+03  0.25251849583E+03  0.00000000000E+00 0. -1.
         11    1    1    2    0    0 -0.67640045802E+02  0.11292581685E+03 -0.15938516338E+03  0.20671489112E+03  0.00000000000E+00 0.  1.
</event>
<event>
 7    1  0.2384639E-009  0.1092487E+03  0.7561462E-02  0.1261968E+00
         -2   -1    0    0    0  501 -0.00000000000E+00  0.00000000000E+00  0.55558235085E+03  0.55558235085E+03  0.00000000000E+00 0.  1.
          2   -1    0    0  501    0  0.00000000000E+00 -0.00000000000E+00 -0.31672119111E+02  0.31672119111E+02  0.00000000000E+00 0. -1.
         25    2    1    2    0    0 -0.20666142921E+02  0.41382404538E+02  0.27888258938E+03  0.30913323820E+03  0.12509303509E+03 0.  0.
          5    1    3    3  502    0 -0.30091871463E+02 -0.33742198577E+02  0.47799184437E+02  0.65926406893E+02  0.41800000000E+01 0.  1.
         -5    1    3    3    0  502  0.94257285413E+01  0.75124603115E+02  0.23108340495E+03  0.24320683130E+03  0.41800000000E+01 0.  1.
        -11    1    1    2    0    0  0.53670866694E+02 -0.33711347740E+02  0.23408524096E+03  0.24251374586E+03  0.00000000000E+00 0.  1.
         11    1    1    2    0    0 -0.33004723772E+02 -0.76710567978E+01  0.10942401393E+02  0.35607485897E+02  0.00000000000E+00 0. -1.
</event>
<event>
 7    1  0.2384639E-009  0.1029277E+03  0.7561462E-02  0.1274257E+00
          1   -1    0    0  501    0  0.00000000000E+00  0.00000000000E+00  0.15106893232E+03  0.15106893232E+03  0.00000000000E+00 0. -1.
         -1   -1    0    0    0  501 -0.00000000000E+00 -0.00000000000E+00 -0.89757875039E+02  0.89757875039E+02  0.00000000000E+00 0.  1.
         25    2    1    2    0    0 -0.22698181208E+02 -0.25753600575E+02  0.58254412603E+02  0.14219629130E+03  0.12509098008E+03 0.  0.
          5    1    3    3  502    0 -0.50302328022E+02  0.21034219441E+02  0.67566021847E+02  0.86921817170E+02  0.41800000000E+01 0.  1.
         -5    1    3    3    0  502  0.27604146813E+02 -0.46787820016E+02 -0.93116092432E+01  0.55274474126E+02  0.41800000000E+01 0.  1.
        -11    1    1    2    0    0  0.23890237530E+02  0.58878909111E+02 -0.71643190105E+01  0.63943700661E+02  0.00000000000E+00 0.  1.
         11    1    1    2    0    0 -0.11920563217E+01 -0.33125308536E+02  0.10220963684E+02  0.34686815399E+02  0.00000000000E+00 0. -1.
</event>
<event>
 7    1  0.2384639E-009  0.1113591E+03  0.7561462E-02  0.1258073E+00
          1   -1    0    0  501    0  0.00000000000E+00  0.00000000000E+00  0.17368604245E+04  0.17368604245E+04  0.00000000000E+00 0. -1.
         -1   -1    0    0    0  501 -0.00000000000E+00 -0.00000000000E+00 -0.10487065430E+02  0.10487065430E+02  0.00000000000E+00 0.  1.
         25    2    1    2    0    0 -0.50625695621E+02  0.14094520138E+02  0.13573427742E+04  0.13641069833E+04  0.12508732395E+03 0.  0.
          5    1    3    3  502    0 -0.76748846687E+02  0.49222530835E+02  0.86369626323E+03  0.86850558463E+03  0.41800000000E+01 0. -1.
         -5    1    3    3    0  502  0.26123151065E+02 -0.35128010696E+02  0.49364651098E+03  0.49560139867E+03  0.41800000000E+01 0. -1.
        -11    1    1    2    0    0  0.32616382496E+02 -0.42660588024E+02  0.31485772962E+03  0.31940435827E+03  0.00000000000E+00 0. -1.
         11    1    1    2    0    0  0.18009313125E+02  0.28566067886E+02  0.54172855221E+02  0.63836148353E+02  0.00000000000E+00 0.  1.
</event>
<event>
 7    1  0.2384639E-009  0.1044465E+03  0.7561462E-02  0.1271214E+00
         -2   -1    0    0    0  501 -0.00000000000E+00  0.00000000000E+00  0.30881674355E+02  0.30881674355E+02  0.00000000000E+00 0. -1.
          2   -1    0    0  501    0  0.00000000000E+00 -0.00000000000E+00 -0.79706661678E+03  0.79706661678E+03  0.00000000000E+00 0.  1.
         25    2    1    2    0    0 -0.20091709815E+02  0.10174469432E+02 -0.70432472590E+03  0.71570251682E+03  0.12509826708E+03 0.  0.
          5    1    3    3  502    0 -0.66925172406E+02 -0.15206300870E+01 -0.54669671451E+03  0.55079584337E+03  0.41800000000E+01 0.  1.
         -5    1    3    3    0  502  0.46833462590E+02  0.11695099519E+02 -0.15762801139E+03  0.16490667344E+03  0.41800000000E+01 0.  1.
        -11    1    1    2    0    0 -0.34895733844E+02 -0.15379773795E+02 -0.20937477868E+02  0.43504340726E+02  0.00000000000E+00 0.  1.
         11    1    1    2    0    0  0.54987443660E+02  0.52053043626E+01 -0.40922738652E+02  0.68741433594E+02  0.00000000000E+00 0. -1.
</event>
<event>
 7    1  0.2384639E-009  0.9279270E+02  0.7561462E-02  0.1296226E+00
          4   -1    0    0  501    0  0.00000000000E+00  0.00000000000E+00  0.47049190130E+02  0.47049190130E+02  0.00000000000E+00 0.  1.
         -4   -1    0    0    0  501 -0.00000000000E+00 -0.00000000000E+00 -0.52797345413E+03  0.52797345413E+03  0.00000000000E+00 0. -1.
         25    2    1    2    0    0  0.77113988643E+02 -0.21144592071E+02 -0.41127941479E+03  0.43725548092E+03  0.12509171652E+03 0.  0.
          5    1    3    3  502    0  0.51297347103E+02 -0.38218408467E+02 -0.39831202836E+03  0.40343773857E+03  0.41800000000E+01 0.  1.
         -5    1    3    3    0  502  0.25816641540E+02  0.17073816396E+02 -0.12967386436E+02  0.33817742351E+02  0.41800000000E+01 0.  1.
        -11    1    1    2    0    0 -0.77338554800E+02  0.87293170173E+01 -0.11938511546E+02  0.78739958675E+02  0.00000000000E+00 0.  1.
         11    1    1    2    0    0  0.22456615740E+00  0.12415275053E+02 -0.57706337662E+02  0.59027204668E+02  0.00000000000E+00 0. -1.
</event>
<event>
 7    1  0.2384639E-009  0.1840941E+03  0.7561462E-02  0.1163899E+00
          1   -1    0    0  501    0  0.00000000000E+00  0.00000000000E+00  0.16820706785E+04  0.16820706785E+04  0.00000000000E+00 0. -1.
         -1   -1    0    0    0  501 -0.00000000000E+00 -0.00000000000E+00 -0.23182600663E+02  0.23182600663E+02  0.00000000000E+00 0.  1.
         25    2    1    2    0    0 -0.96641217240E+02 -0.13288145308E+03  0.85558796514E+03  0.88015558412E+03  0.12508429443E+03 0.  0.
          5    1    3    3  502    0 -0.28031660105E+02  0.20002932301E+02  0.90515144778E+02  0.96934798205E+02  0.41800000000E+01 0. -1.
         -5    1    3    3    0  502 -0.68609557135E+02 -0.15288438538E+03  0.76507282036E+03  0.78322078591E+03  0.41800000000E+01 0. -1.
        -11    1    1    2    0    0  0.72564099953E+01  0.23608429946E+02  0.29267940839E+02  0.38296550909E+02  0.00000000000E+00 0.  1.
         11    1    1    2    0    0  0.89384807245E+02  0.10927302313E+03  0.77403217188E+03  0.78680114416E+03  0.00000000000E+00 0. -1.
</event>
<event>
 7    1  0.2384639E-009  0.6263925E+02  0.7561462E-02  0.1387078E+00
         -2   -1    0    0    0  501 -0.00000000000E+00  0.00000000000E+00  0.34062254676E+03  0.34062254676E+03  0.00000000000E+00 0.  1.
          2   -1    0    0  501    0  0.00000000000E+00 -0.00000000000E+00 -0.37378018052E+02  0.37378018052E+02  0.00000000000E+00 0. -1.
         25    2    1    2    0    0  0.52595712001E+01  0.30811531382E+02  0.15520443776E+03  0.20177402038E+03  0.12508926511E+03 0.  0.
          5    1    3    3  502    0  0.23891212663E+01  0.26478623612E+02  0.17697244800E+03  0.17900710924E+03  0.41800000000E+01 0.  1.
         -5    1    3    3    0  502  0.28704499338E+01  0.43329077701E+01 -0.21768010245E+02  0.22766911134E+02  0.41800000000E+01 0.  1.
        -11    1    1    2    0    0  0.39980255651E+02 -0.21904633544E+02  0.98565229509E+02  0.10859713753E+03  0.00000000000E+00 0.  1.
         11    1    1    2    0    0 -0.45239826851E+02 -0.89068978385E+01  0.49474861442E+02  0.67629406897E+02  0.00000000000E+00 0. -1.
</event>
<event>
 7    1  0.2384639E-009  0.2033940E+03  0.7561462E-02  0.1146907E+00
         -1   -1    0    0    0  501 -0.00000000000E+00  0.00000000000E+00  0.12676917986E+03  0.12676917986E+03  0.00000000000E+00 0.  1.
          1   -1    0    0  501    0  0.00000000000E+00 -0.00000000000E+00 -0.38738380755E+03  0.38738380755E+03  0.00000000000E+00 0. -1.
         25    2    1    2    0    0  0.19238847111E+03 -0.36079380277E+01 -0.15346497934E+03  0.27609016497E+03  0.12509171945E+03 0.  0.
          5    1    3    3  502    0  0.23830788822E+01  0.16784711858E+02 -0.61583468981E+02  0.64010949601E+02  0.41800000000E+01 0.  1.
         -5    1    3    3    0  502  0.19000539223E+03 -0.20392649886E+02 -0.91881510364E+02  0.21207921537E+03  0.41800000000E+01 0.  1.
        -11    1    1    2    0    0 -0.13807818790E+03 -0.18957338455E+02 -0.32649370415E+02  0.14314659634E+03  0.00000000000E+00 0.  1.
         11    1    1    2    0    0 -0.54310283215E+02  0.22565276482E+02 -0.74500277933E+02  0.94916226103E+02  0.00000000000E+00 0. -1.
</event>
<event>
 7    1  0.2384639E-009  0.9844098E+02  0.7561462E-02  0.1283609E+00
          1   -1    0    0  501    0  0.00000000000E+00  0.00000000000E+00  0.15659826738E+03  0.15659826738E+03  0.00000000000E+00 0. -1.
         -1   -1    0    0    0  501 -0.00000000000E+00 -0.00000000000E+00 -0.99598513492E+02  0.99598513492E+02  0.00000000000E+00 0.  1.
         25    2    1    2    0    0  0.10338546101E+02 -0.99453186233E+01  0.93823226439E+02  0.15701994379E+03  0.12508665009E+03 0.  0.
          5    1    3    3  502    0 -0.56459559527E+02  0.45397484571E+01  0.50406215653E+02  0.75937804514E+02  0.41800000000E+01 0.  1.
         -5    1    3    3    0  502  0.66798105628E+02 -0.14485067080E+02  0.43417010786E+02  0.81082139275E+02  0.41800000000E+01 0.  1.
        -11    1    1    2    0    0  0.16869730690E+02  0.32269658485E+02  0.12574773595E+02  0.38523286506E+02  0.00000000000E+00 0. -1.
         11    1    1    2    0    0 -0.27208276791E+02 -0.22324339862E+02 -0.49398246142E+02  0.60653550581E+02  0.00000000000E+00 0.  1.
</event>
<event>
 7    1  0.2384639E-009  0.1142840E+03  0.7561462E-02  0.1252836E+00
         -2   -1    0    0    0  501 -0.00000000000E+00  0.00000000000E+00  0.44225565620E+02  0.44225565620E+02  0.00000000000E+00 0.  1.
          2   -1    0    0  501    0  0.00000000000E+00 -0.00000000000E+00 -0.45209965907E+03  0.45209965907E+03  0.00000000000E+00 0. -1.
         25    2    1    2    0    0  0.17504543503E+02 -0.67865634404E+02 -0.12321359059E+03  0.18905278981E+03  0.12508882864E+03 0.  0.
          5    1    3    3  502    0 -0.98246343596E+01 -0.90863663339E+02 -0.12274217569E+03  0.15308769660E+03  0.41800000000E+01 0.  1.
         -5    1    3    3    0  502  0.27329177863E+02  0.22998028935E+02 -0.47141489805E+00  0.35965093209E+02  0.41800000000E+01 0.  1.
        -11    1    1    2    0    0 -0.43437558020E+02  0.59892772476E+02 -0.26096652113E+03  0.27125171114E+03  0.00000000000E+00 0.  1.
         11    1    1    2    0    0  0.25933014517E+02  0.79728619278E+01 -0.23693981725E+02  0.36020723747E+02  0.00000000000E+00 0. -1.
</event>
<event>
 7    1  0.2384639E-009  0.8674263E+02  0.7561462E-02  0.1310937E+00
         -2   -1    0    0    0  501 -0.00000000000E+00  0.00000000000E+00  0.38946412251E+02  0.38946412251E+02  0.00000000000E+00 0.  1.
          2   -1    0    0  501    0  0.00000000000E+00 -0.00000000000E+00 -0.93061612412E+03  0.93061612412E+03  0.00000000000E+00 0. -1.
         25    2    1    2    0    0  0.44944675148E+02  0.68820469771E+01 -0.84776106042E+03  0.85814583249E+03  0.12509223743E+03 0.  0.
          5    1    3    3  502    0  0.30723884006E+02  0.44383518053E+02 -0.75574419175E+03  0.75768107373E+03  0.41800000000E+01 0.  1.
         -5    1    3    3    0  502  0.14220791143E+02 -0.37501471076E+02 -0.92016868668E+02  0.10046475876E+03  0.41800000000E+01 0.  1.
        -11    1    1    2    0    0 -0.20198070074E+02  0.29054960368E+02 -0.55906359570E+02  0.66163991696E+02  0.00000000000E+00 0. -1.
         11    1    1    2    0    0 -0.24746605074E+02 -0.35937007345E+02  0.11997708122E+02  0.45252712182E+02  0.00000000000E+00 0.  1.
</event>
<event>
 7    1  0.2384639E-009  0.7030326E+02  0.7561462E-02  0.1359065E+00
          1   -1    0    0  501    0  0.00000000000E+00  0.00000000000E+00  0.50864635154E+02  0.50864635154E+02  0.00000000000E+00 0. -1.
         -1   -1    0    0    0  501 -0.00000000000E+00 -0.00000000000E+00 -0.26807544475E+03  0.26807544475E+03  0.00000000000E+00 0.  1.
         25    2    1    2    0    0 -0.41092998003E+01  0.41553046123E+02 -0.10685185267E+03  0.16972921556E+03  0.12508855346E+03 0.  0.
          5    1    3    3  502    0 -0.92917193807E+01  0.45755913555E+02  0.13764897072E+02  0.48855751613E+02  0.41800000000E+01 0.  1.
         -5    1    3    3    0  502  0.51824195804E+01 -0.42028674321E+01 -0.12061674974E+03  0.12087346394E+03  0.41800000000E+01 0.  1.
        -11    1    1    2    0    0  0.37519383555E+02 -0.77162063014E+01 -0.89370091087E+02  0.97233004494E+02  0.00000000000E+00 0.  1.
         11    1    1    2    0    0 -0.33410083755E+02 -0.33836839821E+02 -0.20988865835E+02  0.51977859851E+02  0.00000000000E+00 0. -1.
</event>
<event>
 7    1  0.2384639E-009  0.3051577E+03  0.7561462E-02  0.1082690E+00
         -1   -1    0    0    0  501 -0.00000000000E+00  0.00000000000E+00  0.47598878110E+02  0.47598878110E+02  0.00000000000E+00 0.  1.
          1   -1    0    0  501    0  0.00000000000E+00 -0.00000000000E+00 -0.20967122397E+04  0.20967122397E+04  0.00000000000E+00 0. -1.
         25    2    1    2    0    0 -0.28456235593E+03 -0.73348203776E+02 -0.11818001540E+04  0.12241955836E+04  0.12509008608E+03 0.  0.
          5    1    3    3  502    0 -0.13405712347E+03  0.32936679583E+01 -0.33809945116E+03  0.36374561424E+03  0.41800000000E+01 0. -1.
         -5    1    3    3    0  502 -0.15050523246E+03 -0.76641871735E+02 -0.84370070279E+03  0.86044996937E+03  0.41800000000E+01 0. -1.
        -11    1    1    2    0    0  0.12982259215E+03  0.79699953459E+02 -0.43354778004E+03  0.45953200715E+03  0.00000000000E+00 0.  1.
         11    1    1    2    0    0  0.15473976378E+03 -0.63517496825E+01 -0.43376542763E+03  0.46058352709E+03  0.00000000000E+00 0. -1.
</event>
<event>
 7    1  0.2384639E-009  0.1050883E+03  0.7561462E-02  0.1269946E+00
         -1   -1    0    0    0  501 -0.00000000000E+00  0.00000000000E+00  0.42011512226E+02  0.42011512226E+02  0.00000000000E+00 0.  1.
          1   -1    0    0  501    0  0.00000000000E+00 -0.00000000000E+00 -0.41342394493E+03  0.41342394493E+03  0.00000000000E+00 0. -1.
         25    2    1    2    0    0  0.19947835362E+02  0.62313617461E+02 -0.14036043803E+03  0.19907171559E+03  0.12509033667E+03 0.  0.
          5    1    3    3  502    0  0.26603143993E+02 -0.18788662549E+02  0.42251184329E+01  0.33106874459E+02  0.41800000000E+01 0. -1.
         -5    1    3    3    0  502 -0.66553086314E+01  0.81102280010E+02 -0.14458555646E+03  0.16596484113E+03  0.41800000000E+01 0. -1.
        -11    1    1    2    0    0  0.15384002777E+02 -0.58304237305E+02 -0.20086149909E+03  0.20971741331E+03  0.00000000000E+00 0. -1.
         11    1    1    2    0    0 -0.35331838138E+02 -0.40093801559E+01 -0.30190495583E+02  0.46646328248E+02  0.00000000000E+00 0.  1.
</event>
<event>
 7    1  0.2384639E-009  0.1239651E+03  0.7561462E-02  0.1236696E+00
         -2   -1    0    0    0  501 -0.00000000000E+00  0.00000000000E+00  0.10347429886E+02  0.10347429886E+02  0.00000000000E+00 0.  1.
          2   -1    0    0  501    0  0.00000000000E+00 -0.00000000000E+00 -0.20356484113E+04  0.20356484113E+04  0.00000000000E+00 0. -1.
         25    2    1    2    0    0 -0.63086507728E+02  0.65051953824E+02 -0.13302006701E+04  0.13391390667E+04  0.12509177855E+03 0.  0.
          5    1    3    3  502    0  0.75681071615E+01 -0.12097412871E+02 -0.71055825341E+03  0.71071381550E+03  0.41800000000E+01 0.  1.
         -5    1    3    3    0  502 -0.70654614889E+02  0.77149366695E+02 -0.61964241667E+03  0.62842525118E+03  0.41800000000E+01 0.  1.
        -11    1    1    2    0    0 -0.23534764799E+02 -0.90454423933E+01 -0.14142836493E+03  0.14365823189E+03  0.00000000000E+00 0.  1.
         11    1    1    2    0    0  0.86621272527E+02 -0.56006511431E+02 -0.55367194640E+03  0.56319854262E+03  0.00000000000E+00 0. -1.
</event>
<event>
 7    1  0.2384639E-009  0.1755681E+03  0.7561462E-02  0.1172162E+00
          2   -1    0    0  501    0  0.00000000000E+00  0.00000000000E+00  0.21913439501E+03  0.21913439501E+03  0.00000000000E+00 0.  1.
         -2   -1    0    0    0  501 -0.00000000000E+00 -0.00000000000E+00 -0.18418839924E+03  0.18418839924E+03  0.00000000000E+00 0. -1.
         25    2    1    2    0    0 -0.13178169028E+03 -0.10523241467E+03  0.23235304669E+02  0.21125271317E+03  0.12509018527E+03 0.  0.
          5    1    3    3  502    0 -0.54059607613E+02 -0.48371534245E+02 -0.51685338078E+02  0.89168901937E+02  0.41800000000E+01 0.  1.
         -5    1    3    3    0  502 -0.77722082665E+02 -0.56860880422E+02  0.74920642746E+02  0.12208381124E+03  0.41800000000E+01 0.  1.
        -11    1    1    2    0    0  0.33127505326E+02 -0.57156810358E+01 -0.21540586641E+02  0.39926150473E+02  0.00000000000E+00 0. -1.
         11    1    1    2    0    0  0.98654184953E+02  0.11094809570E+03  0.33251277744E+02  0.15214393061E+03  0.00000000000E+00 0.  1.
</event>
<event>
 7    1  0.2384639E-009  0.9744436E+02  0.7561462E-02  0.1285764E+00
         -2   -1    0    0    0  501 -0.00000000000E+00  0.00000000000E+00  0.23045862499E+03  0.23045862499E+03  0.00000000000E+00 0.  1.
          2   -1    0    0  501    0  0.00000000000E+00 -0.00000000000E+00 -0.69600220512E+02  0.69600220512E+02  0.00000000000E+00 0. -1.
         25    2    1    2    0    0  0.56272113803E+02 -0.15713680605E+02  0.54636074723E+02  0.14847958848E+03  0.12509043522E+03 0.  0.
          5    1    3    3  502    0  0.21913634494E+02 -0.69014756109E+02  0.16573346836E+02  0.74400216147E+02  0.41800000000E+01 0.  1.
         -5    1    3    3    0  502  0.34358479309E+02  0.53301075504E+02  0.38062727888E+02  0.74079372328E+02  0.41800000000E+01 0.  1.
        -11    1    1    2    0    0 -0.11480624006E+02  0.46874593736E+00 -0.16468794615E+02  0.20080977227E+02  0.00000000000E+00 0. -1.
         11    1    1    2    0    0 -0.44791489797E+02  0.15244934667E+02  0.12269112437E+03  0.13149827980E+03  0.00000000000E+00 0.  1.
</event>
<event>
 7    1  0.2384639E-009  0.2484010E+03  0.7561462E-02  0.1114320E+00
          2   -1    0    0  501    0  0.00000000000E+00  0.00000000000E+00  0.10205881036E+04  0.10205881036E+04  0.00000000000E+00 0. -1.
         -2   -1    0    0    0  501 -0.00000000000E+00 -0.00000000000E+00 -0.70968534337E+02  0.70968534337E+02  0.00000000000E+00 0.  1.
         25    2    1    2    0    0  0.23514802682E+03 -0.25401727583E+02  0.62391763628E+03  0.67886621015E+03  0.12508505961E+03 0.  0.
          5    1    3    3  502    0  0.53332133060E+02  0.28810637878E+02  0.27548302144E+03  0.28210412399E+03  0.41800000000E+01 0.  1.
         -5    1    3    3    0  502  0.18181589376E+03 -0.54212365461E+02  0.34843461484E+03  0.39676208616E+03  0.41800000000E+01 0.  1.
        -11    1    1    2    0    0 -0.17935218113E+03 -0.10933791111E+02  0.18985565058E+03  0.26140375039E+03  0.00000000000E+00 0. -1.
         11    1    1    2    0    0 -0.55795845692E+02  0.36335518694E+02  0.13584628242E+03  0.15128667741E+03  0.00000000000E+00 0.  1.
</event>
<event>
 7    1  0.2384639E-009  0.1540667E+03  0.7561462E-02  0.1195563E+00
         -2   -1    0    0    0  501 -0.00000000000E+00  0.00000000000E+00  0.10632191792E+03  0.10632191792E+03  0.00000000000E+00 0.  1.
          2   -1    0    0  501    0  0.00000000000E+00 -0.00000000000E+00 -0.38389214979E+03  0.38389214979E+03  0.00000000000E+00 0. -1.
         25    2    1    2    0    0 -0.11068153207E+03  0.94288598535E+02 -0.37895354602E+02  0.19551131054E+03  0.12509145972E+03 0.  0.
          5    1    3    3  502    0 -0.82448065323E+01  0.65683132174E+01  0.38721417881E+02  0.40347740656E+02  0.41800000000E+01 0.  1.
         -5    1    3    3    0  502 -0.10243672553E+03  0.87720285317E+02 -0.76616772483E+02  0.15516356989E+03  0.41800000000E+01 0.  1.
        -11    1    1    2    0    0  0.34627387798E+02 -0.76186742919E+02 -0.74847545497E+02  0.11227480060E+03  0.00000000000E+00 0.  1.
         11    1    1    2    0    0  0.76054144269E+02 -0.18101855616E+02 -0.16482733178E+03  0.18242795657E+03  0.00000000000E+00 0. -1.
</event>
<event>
 7    1  0.2384639E-009  0.1423357E+03  0.7561462E-02  0.1210220E+00
          1   -1    0    0  501    0  0.00000000000E+00  0.00000000000E+00  0.29984351612E+03  0.29984351612E+03  0.00000000000E+00 0. -1.
         -1   -1    0    0    0  501 -0.00000000000E+00 -0.00000000000E+00 -0.75414430307E+02  0.75414430307E+02  0.00000000000E+00 0.  1.
         25    2    1    2    0    0 -0.21886719175E+02 -0.10048974363E+03  0.10093261527E+03  0.19082580634E+03  0.12509947438E+03 0.  0.
          5    1    3    3  502    0 -0.65525361151E+02 -0.56558346970E+02  0.94832073416E+02  0.12846405767E+03  0.41800000000E+01 0.  1.
         -5    1    3    3    0  502  0.43638641976E+02 -0.43931396659E+02  0.61005418513E+01  0.62361748667E+02  0.41800000000E+01 0.  1.
        -11    1    1    2    0    0  0.41846686274E+02  0.96535535632E+01  0.49870786949E+02  0.65813612874E+02  0.00000000000E+00 0.  1.
         11    1    1    2    0    0 -0.19959967100E+02  0.90836190066E+02  0.73625683593E+02  0.11861852721E+03  0.00000000000E+00 0. -1.
</event>
<event>
 7    1  0.2384639E-009  0.1416521E+03  0.7561462E-02  0.1211123E+00
         -1   -1    0    0    0  501 -0.00000000000E+00  0.00000000000E+00  0.20983089380E+03  0.20983089380E+03  0.00000000000E+00 0.  1.
          1   -1    0    0  501    0  0.00000000000E+00 -0.00000000000E+00 -0.13411726745E+03  0.13411726745E+03  0.00000000000E+00 0. -1.
         25    2    1    2    0    0  0.11786019602E+03  0.67109780479E+01 -0.96650248489E+01  0.17227604476E+03  0.12509820086E+03 0.  0.
          5    1    3    3  502    0 -0.11541019864E+02  0.30881577500E+01 -0.37690721624E+02  0.39759209680E+02  0.41800000000E+01 0.  1.
         -5    1    3    3    0  502  0.12940121588E+03  0.36228202980E+01  0.28025696775E+02  0.13251683508E+03  0.41800000000E+01 0.  1.
        -11    1    1    2    0    0 -0.10591910109E+03  0.23628608727E+02  0.39712010036E+02  0.11556042085E+03  0.00000000000E+00 0. -1.
         11    1    1    2    0    0 -0.11941094929E+02 -0.30339586775E+02  0.45666641161E+02  0.56111695650E+02  0.00000000000E+00 0.  1.
</event>
<event>
 7    1  0.2384639E-009  0.2668186E+03  0.7561462E-02  0.1103114E+00
          1   -1    0    0  501    0  0.00000000000E+00  0.00000000000E+00  0.64396079045E+03  0.64396079045E+03  0.00000000000E+00 0. -1.
         -1   -1    0    0    0  501 -0.00000000000E+00 -0.00000000000E+00 -0.14641956425E+03  0.14641956425E+03  0.00000000000E+00 0.  1.
         25    2    1    2    0    0  0.41365288074E+02  0.26172525580E+03  0.11169926927E+03  0.31358503425E+03  0.12509056866E+03 0.  0.
          5    1    3    3  502    0  0.23313602840E+02  0.14135822695E+03  0.12616120805E+03  0.19094448204E+03  0.41800000000E+01 0.  1.
         -5    1    3    3    0  502  0.18051685234E+02  0.12036702885E+03 -0.14461938781E+02  0.12264055221E+03  0.41800000000E+01 0.  1.
        -11    1    1    2    0    0 -0.45573253722E+02 -0.15121653182E+03  0.15731043018E+03  0.22291238726E+03  0.00000000000E+00 0.  1.
         11    1    1    2    0    0  0.42079656472E+01 -0.11050872398E+03  0.22853152674E+03  0.25388293319E+03  0.00000000000E+00 0. -1.
</event>
<event>
 7    1  0.2384639E-009  0.1851919E+03  0.7561462E-02  0.1162871E+00
         -1   -1    0    0    0  501 -0.00000000000E+00  0.00000000000E+00  0.40816482385E+02  0.40816482385E+02  0.00000000000E+00 0.  1.
          1   -1    0    0  501    0  0.00000000000E+00 -0.00000000000E+00 -0.91550204989E+03  0.91550204989E+03  0.00000000000E+00 0. -1.
         25    2    1    2    0    0  0.67622328030E+02  0.14045215064E+03 -0.37365278037E+03  0.42375122127E+03  0.12509640836E+03 0.  0.
          5    1    3    3  502    0  0.79038854162E+02  0.35913466758E+02 -0.11231302912E+03  0.14201621905E+03  0.41800000000E+01 0. -1.
         -5    1    3    3    0  502 -0.11416526132E+02  0.10453868388E+03 -0.26133975125E+03  0.28173500222E+03  0.41800000000E+01 0. -1.
        -11    1    1    2    0    0  0.13120406768E+02 -0.69528659926E+02 -0.15861855313E+03  0.17368426821E+03  0.00000000000E+00 0.  1.
         11    1    1    2    0    0 -0.80742734798E+02 -0.70923490716E+02 -0.34241423400E+03  0.35888304280E+03  0.00000000000E+00 0. -1.
</event>
<event>
 7    1  0.2384639E-009  0.9634129E+02  0.7561462E-02  0.1288183E+00
          1   -1    0    0  501    0  0.00000000000E+00  0.00000000000E+00  0.20509067735E+03  0.20509067735E+03  0.00000000000E+00 0. -1.
         -1   -1    0    0    0  501 -0.00000000000E+00 -0.00000000000E+00 -0.61455813571E+02  0.61455813571E+02  0.00000000000E+00 0.  1.
         25    2    1    2    0    0 -0.15674839608E+02  0.23452551971E+02  0.67629229516E+02  0.14496117058E+03  0.12507719816E+03 0.  0.
          5    1    3    3  502    0  0.51146823642E+01 -0.35128689001E+02  0.74153908991E+02  0.82319252823E+02  0.41800000000E+01 0. -1.
         -5    1    3    3    0  502 -0.20789521972E+02  0.58581240972E+02 -0.65246794755E+01  0.62641917754E+02  0.41800000000E+01 0. -1.
        -11    1    1    2    0    0  0.51358203632E+02  0.10194883255E+01  0.36725858356E+02  0.63146600137E+02  0.00000000000E+00 0.  1.
         11    1    1    2    0    0 -0.35683364024E+02 -0.24472040296E+02  0.39279775909E+02  0.58438720211E+02  0.00000000000E+00 0. -1.
</event>
<event>
 7    1  0.2384639E-009  0.7111063E+02  0.7561462E-02  0.1356357E+00
         -1   -1    0    0    0  501 -0.00000000000E+00  0.00000000000E+00  0.13200701290E+02  0.13200701290E+02  0.00000000000E+00 0.  1.
          1   -1    0    0  501    0  0.00000000000E+00 -0.00000000000E+00 -0.95150639772E+03  0.95150639772E+03  0.00000000000E+00 0. -1.
         25    2    1    2    0    0  0.14192393696E+02 -0.13645362936E+01 -0.67589376306E+03  0.68751931811E+03  0.12508855995E+03 0.  0.
          5    1    3    3  502    0  0.19904570959E+02  0.31510373289E+02 -0.62732400685E+03  0.62844409261E+03  0.41800000000E+01 0. -1.
         -5    1    3    3    0  502 -0.57121772633E+01 -0.32874909583E+02 -0.48569756215E+02  0.59075225501E+02  0.41800000000E+01 0. -1.
        -11    1    1    2    0    0  0.26986708997E+02 -0.93119323024E+01 -0.32007814159E+02  0.42889330992E+02  0.00000000000E+00 0.  1.
         11    1    1    2    0    0 -0.41179102693E+02  0.10676468596E+02 -0.23040411921E+03  0.23429844991E+03  0.00000000000E+00 0. -1.
</event>
<event>
 7    1  0.2384639E-009  0.1475724E+03  0.7561462E-02  0.1203488E+00
         -2   -1    0    0    0  501 -0.00000000000E+00  0.00000000000E+00  0.78209374208E+03  0.78209374208E+03  0.00000000000E+00 0.  1.
          2   -1    0    0  501    0  0.00000000000E+00 -0.00000000000E+00 -0.37473381627E+02  0.37473381627E+02  0.00000000000E+00 0. -1.
         25    2    1    2    0    0  0.13281565189E+02  0.10438486287E+03  0.20814310227E+03  0.26465795408E+03  0.12509069536E+03 0.  0.
          5    1    3    3  502    0  0.62737280243E+02  0.20753015502E+02  0.84048825201E+02  0.10699687567E+03  0.41800000000E+01 0. -1.
         -5    1    3    3    0  502 -0.49455715055E+02  0.83631847370E+02  0.12409427707E+03  0.15766107841E+03  0.41800000000E+01 0. -1.
        -11    1    1    2    0    0 -0.79371342679E+01  0.12428228112E+02  0.17328357074E+02  0.22753701089E+02  0.00000000000E+00 0. -1.
         11    1    1    2    0    0 -0.53444309206E+01 -0.11681309098E+03  0.51914890111E+03  0.53215546854E+03  0.00000000000E+00 0.  1.
</event>
<event>
 7    1  0.2384639E-009  0.1962889E+03  0.7561462E-02  0.1152908E+00
          1   -1    0    0  501    0  0.00000000000E+00  0.00000000000E+00  0.87196436677E+03  0.87196436677E+03  0.00000000000E+00 0. -1.
         -1   -1    0    0    0  501 -0.00000000000E+00 -0.00000000000E+00 -0.48209955022E+02  0.48209955022E+02  0.00000000000E+00 0.  1.
         25    2    1    2    0    0 -0.12975617781E+03  0.10721732872E+03  0.52679473660E+03  0.56700291166E+03  0.12508951223E+03 0.  0.
          5    1    3    3  502    0 -0.58279935818E+02  0.12289819242E+03  0.32680106400E+03  0.35400130572E+03  0.41800000000E+01 0.  1.
         -5    1    3    3    0  502 -0.71476241987E+02 -0.15680863702E+02  0.19999367259E+03  0.21300160594E+03  0.41800000000E+01 0.  1.
        -11    1    1    2    0    0  0.99191070332E+02 -0.35688505837E+02  0.11913207809E+03  0.15907542209E+03  0.00000000000E+00 0.  1.
         11    1    1    2    0    0  0.30565107473E+02 -0.71528822882E+02  0.17782759707E+03  0.19409598805E+03  0.00000000000E+00 0. -1.
</event>
<event>
 7    1  0.2384639E-009  0.7953275E+02  0.7561462E-02  0.1330383E+00
         -3   -1    0    0    0  501 -0.00000000000E+00  0.00000000000E+00  0.24770433606E+03  0.24770433606E+03  0.00000000000E+00 0.  1.
          3   -1    0    0  501    0  0.00000000000E+00 -0.00000000000E+00 -0.59818493143E+02  0.59818493143E+02  0.00000000000E+00 0. -1.
         25    2    1    2    0    0  0.86142120680E+01 -0.54758888602E+02  0.71336371745E+02  0.15430203302E+03  0.12508996335E+03 0.  0.
          5    1    3    3  502    0  0.59724660542E+01  0.23727486251E+02 -0.21355268013E+02  0.32744218214E+02  0.41800000000E+01 0. -1.
         -5    1    3    3    0  502  0.26417460138E+01 -0.78486374852E+02  0.92691639758E+02  0.12155781481E+03  0.41800000000E+01 0. -1.
        -11    1    1    2    0    0 -0.70421006552E+01  0.30965722742E+02 -0.24547917634E+01  0.31851109387E+02  0.00000000000E+00 0. -1.
         11    1    1    2    0    0 -0.15721114127E+01  0.23793165859E+02  0.11900426293E+03  0.12136968679E+03  0.00000000000E+00 0.  1.
</event>
<event>
 7    1  0.2384639E-009  0.1027776E+03  0.7561462E-02  0.1274561E+00
          1   -1    0    0  501    0  0.00000000000E+00  0.00000000000E+00  0.12395923817E+03  0.12395923817E+03  0.00000000000E+00 0. -1.
         -1   -1    0    0    0  501 -0.00000000000E+00 -0.00000000000E+00 -0.16478417332E+03  0.16478417332E+03  0.00000000000E+00 0.  1.
         25    2    1    2    0    0  0.40914737286E+02 -0.42371195972E+02  0.50704436937E+02  0.14726557038E+03  0.12508746667E+03 0.  0.
          5    1    3    3  502    0 -0.41276667559E+02  0.36905498895E+00 -0.17666130691E+00  0.41489795077E+02  0.41800000000E+01 0.  1.
         -5    1    3    3    0  502  0.82191404844E+02 -0.42740250961E+02  0.50881098244E+02  0.10577577530E+03  0.41800000000E+01 0.  1.
        -11    1    1    2    0    0 -0.17624967160E+02 -0.51908465574E+01  0.14203848917E+02  0.23223558716E+02  0.00000000000E+00 0. -1.
         11    1    1    2    0    0 -0.23289770126E+02  0.47562042530E+02 -0.10573322101E+03  0.11825428240E+03  0.00000000000E+00 0.  1.
</event>
<event>
 7    1  0.2384639E-009  0.1262330E+03  0.7561462E-02  0.1233155E+00
          1   -1    0    0  501    0  0.00000000000E+00  0.00000000000E+00  0.99617034355E+03  0.99617034355E+03  0.00000000000E+00 0. -1.
         -1   -1    0    0    0  501 -0.00000000000E+00 -0.00000000000E+00 -0.17976477273E+02  0.17976477273E+02  0.00000000000E+00 0.  1.
         25    2    1    2    0    0 -0.71604540003E+02 -0.32302759032E+02  0.53108374198E+03  0.55124251998E+03  0.12509075282E+03 0.  0.
          5    1    3    3  502    0 -0.40721513415E+01 -0.69767936662E+02  0.23326357812E+03  0.24354366483E+03  0.41800000000E+01 0.  1.
         -5    1    3    3    0  502 -0.67532388661E+02  0.37465177630E+02  0.29782016386E+03  0.30769885514E+03  0.41800000000E+01 0.  1.
        -11    1    1    2    0    0 -0.13396949817E+02 -0.18158427631E+01  0.11439834180E+02  0.17710035443E+02  0.00000000000E+00 0.  1.
         11    1    1    2    0    0  0.85001489819E+02  0.34118601795E+02  0.43567029012E+03  0.44519426541E+03  0.00000000000E+00 0. -1.
</event>
<event>
 7    1  0.2384639E-009  0.1116891E+03  0.7561462E-02  0.1257473E+00
          1   -1    0    0  501    0  0.00000000000E+00  0.00000000000E+00  0.12744748066E+04  0.12744748066E+04  0.00000000000E+00 0. -1.
         -1   -1    0    0    0  501 -0.00000000000E+00 -0.00000000000E+00 -0.13560226966E+02  0.13560226966E+02  0.00000000000E+00 0.  1.
         25    2    1    2    0    0  0.57862531509E+02  0.43567240637E+02  0.77248964222E+03  0.78589658694E+03  0.12508805302E+03 0.  0.
          5    1    3    3  502    0  0.64943307121E+02 -0.13171174508E+02  0.60973576220E+03  0.61334026860E+03  0.41800000000E+01 0. -1.
         -5    1    3    3    0  502 -0.70807756128E+01  0.56738415145E+02  0.16275388002E+03  0.17255631834E+03  0.41800000000E+01 0. -1.
        -11    1    1    2    0    0  0.14478672078E+02 -0.17598163995E+02  0.31988938251E+02  0.39276194973E+02  0.00000000000E+00 0.  1.
         11    1    1    2    0    0 -0.72341203586E+02 -0.25969076642E+02  0.45643599915E+03  0.46286225164E+03  0.00000000000E+00 0. -1.
</event>
<event>
 7    1  0.2384639E-009  0.8612517E+02  0.7561462E-02  0.1312516E+00
         -1   -1    0    0    0  501 -0.00000000000E+00  0.00000000000E+00  0.26599987357E+02  0.26599987357E+02  0.00000000000E+00 0.  1.
          1   -1    0    0  501    0  0.00000000000E+00 -0.00000000000E+00 -0.54562128081E+03  0.54562128081E+03  0.00000000000E+00 0. -1.
         25    2    1    2    0    0 -0.23291022816E+02  0.36816369660E+02 -0.21836327498E+03  0.25539225447E+03  0.12507904286E+03 0.  0.
          5    1    3    3  502    0  0.24554827903E+02  0.35316902535E+02 -0.13958040026E+02  0.45415002580E+02  0.41800000000E+01 0. -1.
         -5    1    3    3    0  502 -0.47845850720E+02  0.14994671248E+01 -0.20440523496E+03  0.20997725189E+03  0.41800000000E+01 0. -1.
        -11    1    1    2    0    0  0.32035509557E+02  0.98404444239E+01 -0.41414709722E+02  0.53275570390E+02  0.00000000000E+00 0.  1.
         11    1    1    2    0    0 -0.87444867404E+01 -0.46656814083E+02 -0.25924330875E+03  0.26355344331E+03  0.00000000000E+00 0. -1.
</event>
<event>
 7    1  0.2384639E-009  0.1233405E+03  0.7561462E-02  0.1237686E+00
          1   -1    0    0  501    0  0.00000000000E+00  0.00000000000E+00  0.15410633039E+03  0.15410633039E+03  0.00000000000E+00 0. -1.
         -1   -1    0    0    0  501 -0.00000000000E+00 -0.00000000000E+00 -0.16896567973E+03  0.16896567973E+03  0.00000000000E+00 0.  1.
         25    2    1    2    0    0 -0.73023165779E+02 -0.82704341372E+02  0.35172943468E+02  0.17045938890E+03  0.12508747535E+03 0.  0.
          5    1    3    3  502    0 -0.66814616812E+02 -0.39506583078E+02 -0.36941167499E+02  0.86064425766E+02  0.41800000000E+01 0.  1.
         -5    1    3    3    0  502 -0.62085489674E+01 -0.43197758294E+02  0.72114110967E+02  0.84394963134E+02  0.41800000000E+01 0.  1.
        -11    1    1    2    0    0  0.50915397841E+02  0.13814320820E+02  0.15510111767E+02  0.54988878548E+02  0.00000000000E+00 0. -1.
         11    1    1    2    0    0  0.22107767938E+02  0.68890020552E+02 -0.65542404581E+02  0.97623742671E+02  0.00000000000E+00 0.  1.
</event>
<event>
 7    1  0.2384639E-009  0.1033493E+03  0.7561462E-02  0.1273406E+00
         -2   -1    0    0    0  501 -0.00000000000E+00  0.00000000000E+00  0.55405735312E+02  0.55405735312E+02  0.00000000000E+00 0.  1.
          2   -1    0    0  501    0  0.00000000000E+00 -0.00000000000E+00 -0.34859407594E+03  0.34859407594E+03  0.00000000000E+00 0. -1.
         25    2    1    2    0    0 -0.57676110194E+00 -0.82579446586E+02 -0.19228462209E+03  0.24380331205E+03  0.12508789478E+03 0.  0.
          5    1    3    3  502    0  0.86185037357E+01  0.52057461402E+01 -0.14143109286E+03  0.14185064267E+03  0.41800000000E+01 0. -1.
         -5    1    3    3    0  502 -0.91952648376E+01 -0.87785192726E+02 -0.50853529234E+02  0.10195266938E+03  0.41800000000E+01 0. -1.
        -11    1    1    2    0    0  0.28742206970E+02  0.71686395158E+02 -0.29511409397E+02  0.82679967325E+02  0.00000000000E+00 0.  1.
         11    1    1    2    0    0 -0.28165445868E+02  0.10893051427E+02 -0.71392309135E+02  0.77516531875E+02  0.00000000000E+00 0. -1.
</event>
<event>
 7    1  0.2384639E-009  0.9138620E+02  0.7561462E-02  0.1299529E+00
          1   -1    0    0  501    0  0.00000000000E+00  0.00000000000E+00  0.74571796064E+02  0.74571796064E+02  0.00000000000E+00 0. -1.
         -1   -1    0    0    0  501 -0.00000000000E+00 -0.00000000000E+00 -0.21838216194E+03  0.21838216194E+03  0.00000000000E+00 0.  1.
         25    2    1    2    0    0  0.53800269620E+02 -0.17330670247E+02 -0.12055184310E+03  0.18269252634E+03  0.12509592784E+03 0.  0.
          5    1    3    3  502    0 -0.75394093009E+01  0.12383991948E+02  0.20808137080E+02  0.25703247225E+02  0.41800000000E+01 0.  1.
         -5    1    3    3    0  502  0.61339678921E+02 -0.29714662196E+02 -0.14135998018E+03  0.15698927911E+03  0.41800000000E+01 0.  1.
        -11    1    1    2    0    0  0.90566986978E+01  0.33327951418E+02  0.11844176392E+02  0.36511103126E+02  0.00000000000E+00 0. -1.
         11    1    1    2    0    0 -0.62856968318E+02 -0.15997281171E+02 -0.35102699167E+02  0.73750328540E+02  0.00000000000E+00 0.  1.
</event>
<event>
 7    1  0.2384639E-009  0.1085278E+03  0.7561462E-02  0.1263321E+00
          2   -1    0    0  501    0  0.00000000000E+00  0.00000000000E+00  0.32613206837E+03  0.32613206837E+03  0.00000000000E+00 0. -1.
         -2   -1    0    0    0  501 -0.00000000000E+00 -0.00000000000E+00 -0.51688809504E+02  0.51688809504E+02  0.00000000000E+00 0.  1.
         25    2    1    2    0    0  0.31251047382E+02 -0.61890268810E+01  0.24719079842E+03  0.27885999075E+03  0.12507866165E+03 0.  0.
          5    1    3    3  502    0 -0.28264060122E+02 -0.43641152571E+02  0.15011005322E+03  0.15891478147E+03  0.41800000000E+01 0.  1.
         -5    1    3    3    0  502  0.59515107505E+02  0.37452125690E+02  0.97080745202E+02  0.11994520928E+03  0.41800000000E+01 0.  1.
        -11    1    1    2    0    0 -0.22742254083E+02 -0.40793166884E+02  0.19398934620E+02  0.50572831141E+02  0.00000000000E+00 0. -1.
         11    1    1    2    0    0 -0.85087932991E+01  0.46982193765E+02  0.78535258295E+01  0.48388055989E+02  0.00000000000E+00 0.  1.
</event>
<event>
 7    1  0.2384639E-009  0.1131752E+03  0.7561462E-02  0.1254800E+00
         -2   -1    0    0    0  501 -0.00000000000E+00  0.00000000000E+00  0.63896120553E+02  0.63896120553E+02  0.00000000000E+00 0.  1.
          2   -1    0    0  501    0  0.00000000000E+00 -0.00000000000E+00 -0.26661549216E+03  0.26661549216E+03  0.00000000000E+00 0. -1.
         25    2    1    2    0    0 -0.56759092492E+02 -0.25780633223E+02 -0.12796862348E+03  0.18950223838E+03  0.12509553999E+03 0.  0.
          5    1    3    3  502    0 -0.64781720579E+02 -0.50745488785E+02 -0.13832041454E+03  0.16100243921E+03  0.41800000000E+01 0. -1.
         -5    1    3    3    0  502  0.80226280868E+01  0.24964855562E+02  0.10351791056E+02  0.28499799170E+02  0.41800000000E+01 0. -1.
        -11    1    1    2    0    0  0.76827286529E+02  0.45479512071E+02 -0.44668731920E+02  0.99830424145E+02  0.00000000000E+00 0.  1.
         11    1    1    2    0    0 -0.20068194037E+02 -0.19698878848E+02 -0.30082016203E+02  0.41178950188E+02  0.00000000000E+00 0. -1.
</event>
<event>
 7    1  0.2384639E-009  0.5989497E+02  0.7561462E-02  0.1398273E+00
         -1   -1    0    0    0  501 -0.00000000000E+00  0.00000000000E+00  0.64493290966E+02  0.64493290966E+02  0.00000000000E+00 0.  1.
          1   -1    0    0  501    0  0.00000000000E+00 -0.00000000000E+00 -0.27089367052E+03  0.27089367052E+03  0.00000000000E+00 0. -1.
         25    2    1    2    0    0 -0.15139448293E+02 -0.25973585816E+02 -0.20349366788E+03  0.24075640764E+03  0.12510053916E+03 0.  0.
          5    1    3    3  502    0 -0.28904165896E+02 -0.31204047527E+02 -0.21649499092E+03  0.22067328086E+03  0.41800000000E+01 0. -1.
         -5    1    3    3    0  502  0.13764717603E+02  0.52304617104E+01  0.13001323048E+02  0.20083126783E+02  0.41800000000E+01 0. -1.
        -11    1    1    2    0    0 -0.12786760525E+02  0.30850447950E+02 -0.37296303729E+02  0.50062617344E+02  0.00000000000E+00 0. -1.
         11    1    1    2    0    0  0.27926208818E+02 -0.48768621340E+01  0.34389592048E+02  0.44567936507E+02  0.00000000000E+00 0.  1.
</event>
<event>
 7    1  0.2384639E-009  0.8466245E+02  0.7561462E-02  0.1316318E+00
          4   -1    0    0  501    0  0.00000000000E+00  0.00000000000E+00  0.15182066512E+03  0.15182066512E+03  0.00000000000E+00 0. -1.
         -4   -1    0    0    0  501 -0.00000000000E+00 -0.00000000000E+00 -0.83516356975E+02  0.83516356975E+02  0.00000000000E+00 0.  1.
         25    2    1    2    0    0  0.25830209008E+02  0.72053390391E-01  0.34801494732E+02  0.13238421249E+03  0.12508889156E+03 0.  0.
          5    1    3    3  502    0 -0.14079145688E+02  0.43711100574E+02  0.53112262041E+02  0.70336814229E+02  0.41800000000E+01 0. -1.
         -5    1    3    3    0  502  0.39909354696E+02 -0.43639047184E+02 -0.18310767309E+02  0.62047398260E+02  0.41800000000E+01 0. -1.
        -11    1    1    2    0    0 -0.39454353668E+02 -0.16344292791E+02 -0.18685232160E+02  0.46614588179E+02  0.00000000000E+00 0.  1.
         11    1    1    2    0    0  0.13624144659E+02  0.16272239401E+02  0.52188045576E+02  0.56338221430E+02  0.00000000000E+00 0. -1.
</event>
<event>
 7    1  0.2384639E-009  0.1203493E+03  0.7561462E-02  0.1242522E+00
          2   -1    0    0  501    0  0.00000000000E+00  0.00000000000E+00  0.30465735129E+03  0.30465735129E+03  0.00000000000E+00 0. -1.
         -2   -1    0    0    0  501 -0.00000000000E+00 -0.00000000000E+00 -0.62601231037E+02  0.62601231037E+02  0.00000000000E+00 0.  1.
         25    2    1    2    0    0  0.20345791869E+02 -0.83231940843E+02  0.11992801773E+03  0.19331861577E+03  0.12509136878E+03 0.  0.
          5    1    3    3  502    0 -0.10294545851E+02  0.12223998329E+02 -0.16906576523E+02  0.23637016291E+02  0.41800000000E+01 0.  1.
         -5    1    3    3    0  502  0.30640337720E+02 -0.95455939171E+02  0.13683459425E+03  0.16968159948E+03  0.41800000000E+01 0.  1.
        -11    1    1    2    0    0 -0.33793153859E+02  0.98120690019E+02  0.10331816552E+03  0.14643869155E+03  0.00000000000E+00 0.  1.
         11    1    1    2    0    0  0.13447361990E+02 -0.14888749177E+02  0.18809937004E+02  0.27501275000E+02  0.00000000000E+00 0. -1.
</event>
<event>
 7    1  0.2384639E-009  0.1493534E+03  0.7561462E-02  0.1201270E+00
          1   -1    0    0  501    0  0.00000000000E+00  0.00000000000E+00  0.62017163312E+03  0.62017163312E+03  0.00000000000E+00 0. -1.
         -1   -1    0    0    0  501 -0.00000000000E+00 -0.00000000000E+00 -0.42124191554E+02  0.42124191554E+02  0.00000000000E+00 0.  1.
         25    2    1    2    0    0  0.11969207700E+03  0.44208115826E+01  0.30733674952E+03  0.35277379904E+03  0.12509092218E+03 0.  0.
          5    1    3    3  502    0  0.86884220583E+02 -0.46152701799E+02  0.11619619779E+03  0.15230879309E+03  0.41800000000E+01 0.  1.
         -5    1    3    3    0  502  0.32807856414E+02  0.50573513381E+02  0.19114055172E+03  0.20046500595E+03  0.41800000000E+01 0.  1.
        -11    1    1    2    0    0 -0.11546919776E+03  0.18114217649E+02  0.25815517323E+03  0.28338199304E+03  0.00000000000E+00 0. -1.
         11    1    1    2    0    0 -0.42228792355E+01 -0.22535029232E+02  0.12555518822E+02  0.26140032601E+02  0.00000000000E+00 0.  1.
</event>
<event>
 7    1  0.5053208E-009  0.1191011E+03  0.7561462E-02  0.1244587E+00
          2   -1    0    0  501    0  0.00000000000E+00  0.00000000000E+00  0.18236169073E+04  0.18236169073E+04  0.00000000000E+00 0.  1.
         -2   -1    0    0    0  501 -0.00000000000E+00 -0.00000000000E+00 -0.96818562231E+01  0.96818562231E+01  0.00000000000E+00 0. -1.
         25    2    1    2    0    0 -0.41681218202E+02  0.33449954320E+02  0.13727926587E+04  0.13795162217E+04  0.12509635788E+03 0.  0.
          5    1    3    3  502    0 -0.72728480504E+02 -0.18031737722E+02  0.83119593420E+03  0.83457697600E+03  0.41800000000E+01 0.  1.
         -5    1    3    3    0  502  0.31047262302E+02  0.51481692043E+02  0.54159672451E+03  0.54493924571E+03  0.41800000000E+01 0.  1.
        -11    1    1    2    0    0  0.64782524319E+02 -0.32437344770E+01  0.33000901241E+03  0.33632312669E+03  0.00000000000E+00 0.  1.
         11    1    1    2    0    0 -0.23101306117E+02 -0.30206219843E+02  0.11113337991E+03  0.11745941509E+03  0.00000000000E+00 0. -1.
</event>
<event>
 7    1  0.2384639E-009  0.1487038E+03  0.7561462E-02  0.1202075E+00
         -4   -1    0    0    0  501 -0.00000000000E+00  0.00000000000E+00  0.40211052358E+03  0.40211052358E+03  0.00000000000E+00 0.  1.
          4   -1    0    0  501    0  0.00000000000E+00 -0.00000000000E+00 -0.57703695736E+02  0.57703695736E+02  0.00000000000E+00 0. -1.
         25    2    1    2    0    0  0.10047203627E+03 -0.26642648292E+02  0.18551128179E+03  0.24670935601E+03  0.12508640970E+03 0.  0.
          5    1    3    3  502    0  0.22595448454E+01  0.37882686482E+02  0.18420459487E+02  0.42390909471E+02  0.41800000000E+01 0. -1.
         -5    1    3    3    0  502  0.98212491421E+02 -0.64525334774E+02  0.16709082231E+03  0.20431844654E+03  0.41800000000E+01 0. -1.
        -11    1    1    2    0    0 -0.10636071887E+03 -0.78493977182E+01  0.12603170182E+03  0.16510059184E+03  0.00000000000E+00 0.  1.
         11    1    1    2    0    0  0.58886826055E+01  0.34492046010E+02  0.32863844235E+02  0.48004271463E+02  0.00000000000E+00 0. -1.
</event>
<event>
 7    1  0.2384639E-009  0.1193643E+03  0.7561462E-02  0.1244149E+00
         -1   -1    0    0    0  501 -0.00000000000E+00  0.00000000000E+00  0.51501684653E+02  0.51501684653E+02  0.00000000000E+00 0.  1.
          1   -1    0    0  501    0  0.00000000000E+00 -0.00000000000E+00 -0.49352568523E+03  0.49352568523E+03  0.00000000000E+00 0. -1.
         25    2    1    2    0    0 -0.21679405769E+02 -0.11341672548E+03 -0.20364726517E+03  0.26542850850E+03  0.12508690683E+03 0.  0.
          5    1    3    3  502    0  0.50192288897E+01 -0.10183665960E+02  0.16688068813E+02  0.20612223357E+02  0.41800000000E+01 0.  1.
         -5    1    3    3    0  502 -0.26698634659E+02 -0.10323305952E+03 -0.22033533398E+03  0.24481628515E+03  0.41800000000E+01 0.  1.
        -11    1    1    2    0    0 -0.53177177639E+01  0.58331861423E+02 -0.19720154975E+03  0.20571663861E+03  0.00000000000E+00 0. -1.
         11    1    1    2    0    0  0.26997123533E+02  0.55084864055E+02 -0.41175185658E+02  0.73882222767E+02  0.00000000000E+00 0.  1.
</event>
<event>
 7    1  0.2384639E-009  0.9155387E+02  0.7561462E-02  0.1299132E+00
         -1   -1    0    0    0  501 -0.00000000000E+00  0.00000000000E+00  0.16981537577E+02  0.16981537577E+02  0.00000000000E+00 0.  1.
          1   -1    0    0  501    0  0.00000000000E+00 -0.00000000000E+00 -0.97848825708E+03  0.97848825708E+03  0.00000000000E+00 0. -1.
         25    2    1    2    0    0  0.44452578550E+01 -0.26000409079E+02 -0.79070732353E+03  0.80097531130E+03  0.12509035226E+03 0.  0.
          5    1    3    3  502    0 -0.18049796811E+02 -0.67223337583E+02 -0.61892333777E+03  0.62283893802E+03  0.41800000000E+01 0.  1.
         -5    1    3    3    0  502  0.22495054666E+02  0.41222928504E+02 -0.17178398577E+03  0.17813637328E+03  0.41800000000E+01 0.  1.
        -11    1    1    2    0    0 -0.32515647076E+02  0.17367024078E+02 -0.22223184663E+02  0.43043591471E+02  0.00000000000E+00 0.  1.
         11    1    1    2    0    0  0.28070389221E+02  0.86333850011E+01 -0.14857621131E+03  0.15145089189E+03  0.00000000000E+00 0. -1.
</event>
<event>
 7    1  0.2384639E-009  0.1085349E+03  0.7561462E-02  0.1263307E+00
         -2   -1    0    0    0  501 -0.00000000000E+00  0.00000000000E+00  0.49527418445E+03  0.49527418445E+03  0.00000000000E+00 0.  1.
          2   -1    0    0  501    0  0.00000000000E+00 -0.00000000000E+00 -0.26734482765E+02  0.26734482765E+02  0.00000000000E+00 0. -1.
         25    2    1    2    0    0 -0.17512773993E+01  0.39878878418E+02  0.25795590701E+03  0.28945158324E+03  0.12509027604E+03 0.  0.
          5    1    3    3  502    0  0.46780433438E+02 -0.15938397196E+02  0.15406697471E+03  0.16185347248E+03  0.41800000000E+01 0. -1.
         -5    1    3    3    0  502 -0.48531710838E+02  0.55817275613E+02  0.10388893230E+03  0.12759811075E+03  0.41800000000E+01 0. -1.
        -11    1    1    2    0    0 -0.20370834958E+02  0.20611949634E+02  0.34461606327E+02  0.45026944103E+02  0.00000000000E+00 0. -1.
         11    1    1    2    0    0  0.22122112357E+02 -0.60490828052E+02  0.17612218835E+03  0.18753013988E+03  0.00000000000E+00 0.  1.
</event>
<event>
 7    1  0.2384639E-009  0.9350857E+02  0.7561462E-02  0.1294571E+00
          2   -1    0    0  501    0  0.00000000000E+00  0.00000000000E+00  0.23243624755E+03  0.23243624755E+03  0.00000000000E+00 0. -1.
         -2   -1    0    0    0  501 -0.00000000000E+00 -0.00000000000E+00 -0.78732842778E+02  0.78732842778E+02  0.00000000000E+00 0.  1.
         25    2    1    2    0    0  0.20220351469E+02  0.57249762742E+02  0.89077614362E+02  0.16513147936E+03  0.12508871311E+03 0.  0.
          5    1    3    3  502    0  0.75632852112E+01  0.46284662915E+02 -0.22529959700E+02  0.52197172226E+02  0.41800000000E+01 0. -1.
         -5    1    3    3    0  502  0.12657066258E+02  0.10965099827E+02  0.11160757406E+03  0.11293430714E+03  0.41800000000E+01 0. -1.
        -11    1    1    2    0    0 -0.58796435270E+02 -0.68351231969E+01  0.56870578809E+02  0.82085336349E+02  0.00000000000E+00 0. -1.
         11    1    1    2    0    0  0.38576083800E+02 -0.50414639545E+02  0.77552116045E+01  0.63952274619E+02  0.00000000000E+00 0.  1.
</event>
<event>
 7    1  0.2384639E-009  0.1472212E+03  0.7561462E-02  0.1203930E+00
          2   -1    0    0  501    0  0.00000000000E+00  0.00000000000E+00  0.92744769068E+03  0.92744769068E+03  0.00000000000E+00 0. -1.
         -2   -1    0    0    0  501 -0.00000000000E+00 -0.00000000000E+00 -0.31416404701E+02  0.31416404701E+02  0.00000000000E+00 0.  1.
         25    2    1    2    0    0 -0.23856248528E+02  0.12311752974E+03  0.58826961151E+03  0.61435833653E+03  0.12509189867E+03 0.  0.
          5    1    3    3  502    0 -0.68587291513E+02  0.60788798988E+02  0.41166956382E+03  0.42176865319E+03  0.41800000000E+01 0. -1.
         -5    1    3    3    0  502  0.44731042985E+02  0.62328730748E+02  0.17660004769E+03  0.19258968333E+03  0.41800000000E+01 0. -1.
        -11    1    1    2    0    0  0.53627144770E+01 -0.55714546165E+02  0.42745042360E+02  0.70427324295E+02  0.00000000000E+00 0.  1.
         11    1    1    2    0    0  0.18493534051E+02 -0.67402983571E+02  0.26501663211E+03  0.27407843456E+03  0.00000000000E+00 0. -1.
</event>
<event>
 7    1  0.2384639E-009  0.1581350E+03  0.7561462E-02  0.1190819E+00
          1   -1    0    0  501    0  0.00000000000E+00  0.00000000000E+00  0.92881391867E+03  0.92881391867E+03  0.00000000000E+00 0. -1.
         -1   -1    0    0    0  501 -0.00000000000E+00 -0.00000000000E+00 -0.50528020269E+02  0.50528020269E+02  0.00000000000E+00 0.  1.
         25    2    1    2    0    0 -0.10082700305E+03 -0.64848657601E+02  0.78027804492E+03  0.79928339845E+03  0.12509472697E+03 0.  0.
          5    1    3    3  502    0 -0.68159394220E+02 -0.10067152123E+03  0.61833492083E+03  0.63018727766E+03  0.41800000000E+01 0. -1.
         -5    1    3    3    0  502 -0.32667608828E+02  0.35822863632E+02  0.16194312409E+03  0.16909612078E+03  0.41800000000E+01 0. -1.
        -11    1    1    2    0    0  0.10664801846E+01  0.44041757373E+02  0.94675688667E+01  0.45060499694E+02  0.00000000000E+00 0.  1.
         11    1    1    2    0    0  0.99760522863E+02  0.20806900229E+02  0.88540284611E+02  0.13499804079E+03  0.00000000000E+00 0. -1.
</event>
<event>
 7    1  0.2384639E-009  0.2557524E+03  0.7561462E-02  0.1109722E+00
         -1   -1    0    0    0  501 -0.00000000000E+00  0.00000000000E+00  0.59240859290E+03  0.59240859290E+03  0.00000000000E+00 0.  1.
          1   -1    0    0  501    0  0.00000000000E+00 -0.00000000000E+00 -0.12339464667E+03  0.12339464667E+03  0.00000000000E+00 0. -1.
         25    2    1    2    0    0 -0.11168873472E+03 -0.21323712504E+03  0.30926575494E+03  0.41138479185E+03  0.12509074640E+03 0.  0.
          5    1    3    3  502    0 -0.12546323153E+02 -0.15496124211E+03  0.19199114495E+03  0.24707988368E+03  0.41800000000E+01 0.  1.
         -5    1    3    3    0  502 -0.99142411563E+02 -0.58275882923E+02  0.11727460999E+03  0.16430490817E+03  0.41800000000E+01 0.  1.
        -11    1    1    2    0    0  0.55085402368E+02  0.94993042376E+02  0.12966907167E+03  0.16991806202E+03  0.00000000000E+00 0.  1.
         11    1    1    2    0    0  0.56603332348E+02  0.11824408266E+03  0.30079119624E+02  0.13450038570E+03  0.00000000000E+00 0. -1.
</event>
<event>
 7    1  0.2384639E-009  0.1166889E+03  0.7561462E-02  0.1248661E+00
         -2   -1    0    0    0  501 -0.00000000000E+00  0.00000000000E+00  0.38624137987E+03  0.38624137987E+03  0.00000000000E+00 0. -1.
          2   -1    0    0  501    0  0.00000000000E+00 -0.00000000000E+00 -0.83776492399E+02  0.83776492399E+02  0.00000000000E+00 0.  1.
         25    2    1    2    0    0  0.78440487625E+02 -0.35995740527E+01  0.32371819777E+03  0.35581873801E+03  0.12509051010E+03 0.  0.
          5    1    3    3  502    0 -0.30735328079E+02  0.15311632222E+02  0.10583630832E+03  0.11134587120E+03  0.41800000000E+01 0.  1.
         -5    1    3    3    0  502  0.10917581570E+03 -0.18911206274E+02  0.21788188945E+03  0.24447286681E+03  0.41800000000E+01 0.  1.
        -11    1    1    2    0    0 -0.11901190593E+01  0.10297148395E+02 -0.34065440907E+02  0.35607610319E+02  0.00000000000E+00 0.  1.
         11    1    1    2    0    0 -0.77250368566E+02 -0.66975743426E+01  0.12812130615E+02  0.78591523949E+02  0.00000000000E+00 0. -1.
</event>
<event>
 7    1  0.2384639E-009  0.1341650E+03  0.7561462E-02  0.1221403E+00
         -1   -1    0    0    0  501 -0.00000000000E+00  0.00000000000E+00  0.12737043434E+03  0.12737043434E+03  0.00000000000E+00 0.  1.
          1   -1    0    0  501    0  0.00000000000E+00 -0.00000000000E+00 -0.23198061203E+03  0.23198061203E+03  0.00000000000E+00 0. -1.
         25    2    1    2    0    0  0.71515982536E+02  0.80213718012E+02  0.26509924109E+02  0.16702913424E+03  0.12508868571E+03 0.  0.
          5    1    3    3  502    0  0.30402318993E+02  0.80726196710E+02  0.66898509564E+02  0.10924240393E+03  0.41800000000E+01 0. -1.
         -5    1    3    3    0  502  0.41113663543E+02 -0.51247869795E+00 -0.40388585456E+02  0.57786730306E+02  0.41800000000E+01 0. -1.
        -11    1    1    2    0    0 -0.93483224358E+02 -0.66844803617E+02 -0.10922491025E+03  0.15854785406E+03  0.00000000000E+00 0. -1.
         11    1    1    2    0    0  0.21967241822E+02 -0.13368914395E+02 -0.21895191545E+02  0.33774058065E+02  0.00000000000E+00 0.  1.
</event>
<event>
 7    1  0.2384639E-009  0.1233065E+03  0.7561462E-02  0.1237740E+00
          1   -1    0    0  501    0  0.00000000000E+00  0.00000000000E+00  0.40865900366E+03  0.40865900366E+03  0.00000000000E+00 0. -1.
         -1   -1    0    0    0  501 -0.00000000000E+00 -0.00000000000E+00 -0.64952342303E+02  0.64952342303E+02  0.00000000000E+00 0.  1.
         25    2    1    2    0    0  0.10885744535E+03 -0.67292011534E+01  0.10431513433E+03  0.19602283756E+03  0.12509228609E+03 0.  0.
          5    1    3    3  502    0  0.73760403183E+02 -0.16808158099E+02 -0.95562022950E+01  0.76366908139E+02  0.41800000000E+01 0. -1.
         -5    1    3    3    0  502  0.35097042168E+02  0.10078956945E+02  0.11387133662E+03  0.11965592942E+03  0.41800000000E+01 0. -1.
        -11    1    1    2    0    0  0.10951534145E+02 -0.77432466523E+01  0.56939845584E+01  0.14571047628E+02  0.00000000000E+00 0.  1.
         11    1    1    2    0    0 -0.11980897950E+03  0.14472447806E+02  0.23369754247E+03  0.26301746077E+03  0.00000000000E+00 0. -1.
</event>
<event>
 7    1  0.2384639E-009  0.7307633E+02  0.7561462E-02  0.1349934E+00
         -2   -1    0    0    0  501 -0.00000000000E+00  0.00000000000E+00  0.10821135660E+03  0.10821135660E+03  0.00000000000E+00 0.  1.
          2   -1    0    0  501    0  0.00000000000E+00 -0.00000000000E+00 -0.13174012732E+03  0.13174012732E+03  0.00000000000E+00 0. -1.
         25    2    1    2    0    0 -0.40498285288E+02  0.18917793141E+01  0.17922143633E+02  0.13271359161E+03  0.12509198306E+03 0.  0.
          5    1    3    3  502    0 -0.19828331927E+02  0.28841535286E+02 -0.47341443131E+02  0.59022720561E+02  0.41800000000E+01 0. -1.
         -5    1    3    3    0  502 -0.20669953361E+02 -0.26949755972E+02  0.65263586764E+02  0.73690871051E+02  0.41800000000E+01 0. -1.
        -11    1    1    2    0    0  0.34054874651E+02 -0.31495927239E+02  0.10071641427E+02  0.47467524490E+02  0.00000000000E+00 0.  1.
         11    1    1    2    0    0  0.64434106373E+01  0.29604147925E+02 -0.51522555785E+02  0.59770367823E+02  0.00000000000E+00 0. -1.
</event>
<event>
 7    1  0.2384639E-009  0.2602823E+03  0.7561462E-02  0.1106974E+00
         -2   -1    0    0    0  501 -0.00000000000E+00  0.00000000000E+00  0.10092260748E+03  0.10092260748E+03  0.00000000000E+00 0.  1.
          2   -1    0    0  501    0  0.00000000000E+00 -0.00000000000E+00 -0.75369633839E+03  0.75369633839E+03  0.00000000000E+00 0. -1.
         25    2    1    2    0    0  0.24554058275E+03 -0.60228501534E+02 -0.35554313175E+03  0.45384671618E+03  0.12509305769E+03 0.  0.
          5    1    3    3  502    0  0.11384233396E+03 -0.69403569994E+02 -0.25523531855E+03  0.28799214011E+03  0.41800000000E+01 0. -1.
         -5    1    3    3    0  502  0.13169824879E+03  0.91750684600E+01 -0.10030781320E+03  0.16585457607E+03  0.41800000000E+01 0. -1.
        -11    1    1    2    0    0 -0.60777528861E+02  0.77692743039E-01 -0.13348273437E+03  0.14666817795E+03  0.00000000000E+00 0.  1.
         11    1    1    2    0    0 -0.18476305389E+03  0.60150808791E+02 -0.16374786480E+03  0.25410405173E+03  0.00000000000E+00 0. -1.
</event>
<event>
 7    1  0.2384639E-009  0.1110706E+03  0.7561462E-02  0.1258600E+00
          1   -1    0    0  501    0  0.00000000000E+00  0.00000000000E+00  0.23050257315E+03  0.23050257315E+03  0.00000000000E+00 0. -1.
         -1   -1    0    0    0  501 -0.00000000000E+00 -0.00000000000E+00 -0.76899021008E+02  0.76899021008E+02  0.00000000000E+00 0.  1.
         25    2    1    2    0    0 -0.73846961090E+02 -0.17973093724E+02  0.96257538855E+02  0.17518623492E+03  0.12509315473E+03 0.  0.
          5    1    3    3  502    0 -0.74947952210E+02 -0.39634732090E+02  0.11722423123E+03  0.14473113112E+03  0.41800000000E+01 0. -1.
         -5    1    3    3    0  502  0.11009911204E+01  0.21661638366E+02 -0.20966692378E+02  0.30455103799E+02  0.41800000000E+01 0. -1.
        -11    1    1    2    0    0  0.87726306630E+02 -0.54986547600E+01  0.57338893614E+02  0.10494707619E+03  0.00000000000E+00 0. -1.
         11    1    1    2    0    0 -0.13879345541E+02  0.23471748484E+02  0.71196687151E-02  0.27268283045E+02  0.00000000000E+00 0.  1.
</event>
<event>
 7    1  0.2384639E-009  0.6924252E+02  0.7561462E-02  0.1362688E+00
          4   -1    0    0  501    0  0.00000000000E+00  0.00000000000E+00  0.95037761900E+02  0.95037761900E+02  0.00000000000E+00 0. -1.
         -4   -1    0    0    0  501 -0.00000000000E+00 -0.00000000000E+00 -0.13073367452E+03  0.13073367452E+03  0.00000000000E+00 0.  1.
         25    2    1    2    0    0  0.27532913261E+02 -0.63773341369E+01 -0.19429480521E+02  0.12970553277E+03  0.12508912349E+03 0.  0.
          5    1    3    3  502    0 -0.73833325241E+01 -0.12934744866E+02 -0.67801351633E+02  0.69543633117E+02  0.41800000000E+01 0. -1.
         -5    1    3    3    0  502  0.34916245785E+02  0.65574107287E+01  0.48371871112E+02  0.60161899654E+02  0.41800000000E+01 0. -1.
        -11    1    1    2    0    0 -0.39284081864E+02 -0.29734525106E+02 -0.27551603888E+02  0.56448843637E+02  0.00000000000E+00 0.  1.
         11    1    1    2    0    0  0.11751168604E+02  0.36111859243E+02  0.11285171790E+02  0.39617060010E+02  0.00000000000E+00 0. -1.
</event>
<event>
 7    1  0.2384639E-009  0.9884699E+02  0.7561462E-02  0.1282739E+00
         -2   -1    0    0    0  501 -0.00000000000E+00  0.00000000000E+00  0.47089201062E+02  0.47089201062E+02  0.00000000000E+00 0.  1.
          2   -1    0    0  501    0  0.00000000000E+00 -0.00000000000E+00 -0.31283838883E+03  0.31283838883E+03  0.00000000000E+00 0. -1.
         25    2    1    2    0    0 -0.40595688910E+02 -0.35697586183E+02 -0.13896722536E+03  0.19463418240E+03  0.12509295590E+03 0.  0.
          5    1    3    3  502    0  0.51931282196E+00  0.30260443048E+02  0.50139298361E+01  0.30960878406E+02  0.41800000000E+01 0.  1.
         -5    1    3    3    0  502 -0.41115001732E+02 -0.65958029230E+02 -0.14398115520E+03  0.16367330399E+03  0.41800000000E+01 0.  1.
        -11    1    1    2    0    0 -0.12963169653E+02 -0.11942284223E+02 -0.74539768412E+02  0.76595293555E+02  0.00000000000E+00 0. -1.
         11    1    1    2    0    0  0.53558858563E+02  0.47639870406E+02 -0.52242193993E+02  0.88698113937E+02  0.00000000000E+00 0.  1.
</event>
<event>
 7    1  0.2384639E-009  0.1421371E+03  0.7561462E-02  0.1210482E+00
          2   -1    0    0  501    0  0.00000000000E+00  0.00000000000E+00  0.68808031510E+03  0.68808031510E+03  0.00000000000E+00 0. -1.
         -2   -1    0    0    0  501 -0.00000000000E+00 -0.00000000000E+00 -0.31277951772E+02  0.31277951772E+02  0.00000000000E+00 0.  1.
         25    2    1    2    0    0  0.83599321640E+02 -0.41620845796E+02  0.43115511478E+03  0.45854171333E+03  0.12507848927E+03 0.  0.
          5    1    3    3  502    0  0.99856723500E+01  0.42653944494E+02  0.12962430460E+03  0.13689048680E+03  0.41800000000E+01 0.  1.
         -5    1    3    3    0  502  0.73613649290E+02 -0.84274790291E+02  0.30153081019E+03  0.32165122654E+03  0.41800000000E+01 0.  1.
        -11    1    1    2    0    0 -0.53628681537E+02  0.69210017192E+02  0.12870391358E+03  0.15566232471E+03  0.00000000000E+00 0.  1.
         11    1    1    2    0    0 -0.29970640103E+02 -0.27589171395E+02  0.96943334962E+02  0.10515422883E+03  0.00000000000E+00 0. -1.
</event>
<event>
 7    1  0.2384639E-009  0.1198688E+03  0.7561462E-02  0.1243314E+00
          2   -1    0    0  501    0  0.00000000000E+00  0.00000000000E+00  0.21297204907E+03  0.21297204907E+03  0.00000000000E+00 0. -1.
         -2   -1    0    0    0  501 -0.00000000000E+00 -0.00000000000E+00 -0.17422602647E+03  0.17422602647E+03  0.00000000000E+00 0.  1.
         25    2    1    2    0    0 -0.38966598714E+02 -0.45038574793E+02  0.16844675507E+03  0.21810292232E+03  0.12509079261E+03 0.  0.
          5    1    3    3  502    0 -0.64795730723E+02 -0.69728127996E+02  0.14992866202E+03  0.17764170301E+03  0.41800000000E+01 0. -1.
         -5    1    3    3    0  502  0.25829132010E+02  0.24689553203E+02  0.18518093050E+02  0.40461219308E+02  0.41800000000E+01 0. -1.
        -11    1    1    2    0    0  0.66069116098E+02  0.14477369819E+02 -0.81937486763E+02  0.10624723091E+03  0.00000000000E+00 0. -1.
         11    1    1    2    0    0 -0.27102517384E+02  0.30561204974E+02 -0.47763245713E+02  0.62847922313E+02  0.00000000000E+00 0.  1.
</event>
<event>
 7    1  0.2384639E-009  0.1861766E+03  0.7561462E-02  0.1161956E+00
          1   -1    0    0  501    0  0.00000000000E+00  0.00000000000E+00  0.10883857874E+03  0.10883857874E+03  0.00000000000E+00 0. -1.
         -1   -1    0    0    0  501 -0.00000000000E+00 -0.00000000000E+00 -0.39520895908E+03  0.39520895908E+03  0.00000000000E+00 0.  1.
         25    2    1    2    0    0 -0.15543965397E+03 -0.43145875497E+02 -0.23597953281E+03  0.31202009682E+03  0.12508856189E+03 0.  0.
          5    1    3    3  502    0 -0.14216831541E+03 -0.78687302983E+02 -0.16612835557E+03  0.23242122210E+03  0.41800000000E+01 0.  1.
         -5    1    3    3    0  502 -0.13271338553E+02  0.35541427486E+02 -0.69851177233E+02  0.79598874713E+02  0.41800000000E+01 0.  1.
        -11    1    1    2    0    0  0.10411555325E+03 -0.72910971491E+00  0.56614074189E+01  0.10427191167E+03  0.00000000000E+00 0.  1.
         11    1    1    2    0    0  0.51324100713E+02  0.43874985212E+02 -0.56052254952E+02  0.87755529321E+02  0.00000000000E+00 0. -1.
</event>
<event>
 7    1  0.2384639E-009  0.3675931E+03  0.7561462E-02  0.1055617E+00
         -2   -1    0    0    0  501 -0.00000000000E+00  0.00000000000E+00  0.12255733751E+03  0.12255733751E+03  0.00000000000E+00 0.  1.
          2   -1    0    0  501    0  0.00000000000E+00 -0.00000000000E+00 -0.11381730732E+04  0.11381730732E+04  0.00000000000E+00 0. -1.
         25    2    1    2    0    0 -0.47556178646E+02 -0.35358771655E+03 -0.49194485955E+03  0.62043787249E+03  0.12509014893E+03 0.  0.
          5    1    3    3  502    0  0.24652202465E+02 -0.67764721033E+02 -0.16541100688E+03  0.18049393924E+03  0.41800000000E+01 0.  1.
         -5    1    3    3    0  502 -0.72208381111E+02 -0.28582299552E+03 -0.32653385267E+03  0.43994393325E+03  0.41800000000E+01 0.  1.
        -11    1    1    2    0    0  0.69672526694E+02  0.17803232610E+03 -0.25880961677E+03  0.32176418049E+03  0.00000000000E+00 0. -1.
         11    1    1    2    0    0 -0.22116348048E+02  0.17555539045E+03 -0.26486125939E+03  0.31852835775E+03  0.00000000000E+00 0.  1.
</event>
<event>
 7    1  0.2384639E-009  0.5185772E+02  0.7561462E-02  0.1435572E+00
         -2   -1    0    0    0  501 -0.00000000000E+00  0.00000000000E+00  0.15043182404E+03  0.15043182404E+03  0.00000000000E+00 0.  1.
          2   -1    0    0  501    0  0.00000000000E+00 -0.00000000000E+00 -0.78952913960E+02  0.78952913960E+02  0.00000000000E+00 0. -1.
         25    2    1    2    0    0  0.13190398526E+02  0.19219043667E+02  0.44429144374E+02  0.13477563498E+03  0.12508862723E+03 0.  0.
          5    1    3    3  502    0  0.30561908269E+01  0.11678526345E+02 -0.43760933391E+02  0.45587497970E+02  0.41800000000E+01 0. -1.
         -5    1    3    3    0  502  0.10134207700E+02  0.75405173221E+01  0.88190077765E+02  0.89188137010E+02  0.41800000000E+01 0. -1.
        -11    1    1    2    0    0  0.70761184313E+01  0.26604710922E+02 -0.13018776396E+02  0.30452760698E+02  0.00000000000E+00 0. -1.
         11    1    1    2    0    0 -0.20266516958E+02 -0.45823754589E+02  0.40068542105E+02  0.64156342326E+02  0.00000000000E+00 0.  1.
</event>
<event>
 7    1  0.2384639E-009  0.1263704E+03  0.7561462E-02  0.1232943E+00
          4   -1    0    0  501    0  0.00000000000E+00  0.00000000000E+00  0.23441548248E+03  0.23441548248E+03  0.00000000000E+00 0. -1.
         -4   -1    0    0    0  501 -0.00000000000E+00 -0.00000000000E+00 -0.73589782785E+02  0.73589782785E+02  0.00000000000E+00 0.  1.
         25    2    1    2    0    0 -0.59073555192E+02  0.41450355495E+02  0.11757881663E+03  0.18622514125E+03  0.12508880133E+03 0.  0.
          5    1    3    3  502    0 -0.27067882533E+01  0.77285792170E+02  0.65319432775E+02  0.10131397274E+03  0.41800000000E+01 0.  1.
         -5    1    3    3    0  502 -0.56366766939E+02 -0.35835436675E+02  0.52259383857E+02  0.84911168511E+02  0.41800000000E+01 0.  1.
        -11    1    1    2    0    0  0.78354418353E+02 -0.42353012582E+02  0.48976233376E+02  0.10164577702E+03  0.00000000000E+00 0. -1.
         11    1    1    2    0    0 -0.19280863161E+02  0.90265708778E+00 -0.57293503111E+01  0.20134346998E+02  0.00000000000E+00 0.  1.
</event>
<event>
 7    1  0.2384639E-009  0.1800884E+03  0.7561462E-02  0.1167718E+00
         -1   -1    0    0    0  501 -0.00000000000E+00  0.00000000000E+00  0.10573295484E+03  0.10573295484E+03  0.00000000000E+00 0. -1.
          1   -1    0    0  501    0  0.00000000000E+00 -0.00000000000E+00 -0.34450222291E+03  0.34450222291E+03  0.00000000000E+00 0.  1.
         25    2    1    2    0    0 -0.11781374196E+03  0.84617208932E+02 -0.56520362859E+02  0.19970673321E+03  0.12509227806E+03 0.  0.
          5    1    3    3  502    0  0.23049768409E+02 -0.54080260024E+01 -0.36196828144E+01  0.24312817045E+02  0.41800000000E+01 0.  1.
         -5    1    3    3    0  502 -0.14086351037E+03  0.90025234935E+02 -0.52900680045E+02  0.17539391617E+03  0.41800000000E+01 0.  1.
        -11    1    1    2    0    0  0.34328233266E+02 -0.77930209543E+02 -0.68587511222E+02  0.10934254366E+03  0.00000000000E+00 0. -1.
         11    1    1    2    0    0  0.83485508694E+02 -0.66869993898E+01 -0.11366139399E+03  0.14118590087E+03  0.00000000000E+00 0.  1.
</event>
<event>
 7    1  0.2384639E-009  0.1315897E+03  0.7561462E-02  0.1225116E+00
          1   -1    0    0  501    0  0.00000000000E+00  0.00000000000E+00  0.21782956108E+02  0.21782956108E+02  0.00000000000E+00 0. -1.
         -1   -1    0    0    0  501 -0.00000000000E+00 -0.00000000000E+00 -0.94109997323E+03  0.94109997323E+03  0.00000000000E+00 0.  1.
         25    2    1    2    0    0  0.79277404805E+02 -0.13527618174E+02 -0.34527085282E+03  0.37593471442E+03  0.12508814624E+03 0.  0.
          5    1    3    3  502    0 -0.35739028428E+01  0.42728790492E+02 -0.15502308721E+03  0.16089795613E+03  0.41800000000E+01 0. -1.
         -5    1    3    3    0  502  0.82851307648E+02 -0.56256408666E+02 -0.19024776561E+03  0.21503675829E+03  0.41800000000E+01 0. -1.
        -11    1    1    2    0    0 -0.45521022577E+02  0.51716031980E+02 -0.26954331359E+03  0.27820911085E+03  0.00000000000E+00 0.  1.
         11    1    1    2    0    0 -0.33756382227E+02 -0.38188413806E+02 -0.30450285072E+03  0.30873910408E+03  0.00000000000E+00 0. -1.
</event>
<event>
 7    1  0.2384639E-009  0.9137340E+02  0.7561462E-02  0.1299559E+00
          2   -1    0    0  501    0  0.00000000000E+00  0.00000000000E+00  0.57729305942E+02  0.57729305942E+02  0.00000000000E+00 0. -1.
         -2   -1    0    0    0  501 -0.00000000000E+00 -0.00000000000E+00 -0.26643407442E+03  0.26643407442E+03  0.00000000000E+00 0.  1.
         25    2    1    2    0    0  0.22598035054E+02  0.40955197428E+02 -0.16435145920E+03  0.21177009937E+03  0.12508866240E+03 0.  0.
          5    1    3    3  502    0  0.19337750598E+02 -0.39408732550E+02 -0.24656522446E+02  0.50521414257E+02  0.41800000000E+01 0. -1.
         -5    1    3    3    0  502  0.32602844564E+01  0.80363929978E+02 -0.13969493676E+03  0.16124868511E+03  0.41800000000E+01 0. -1.
        -11    1    1    2    0    0  0.45910149134E+01 -0.27306106045E+02 -0.68285251237E+02  0.73685659268E+02  0.00000000000E+00 0.  1.
         11    1    1    2    0    0 -0.27189049968E+02 -0.13649091383E+02  0.23931941958E+02  0.38707621725E+02  0.00000000000E+00 0. -1.
</event>
<event>
 7    1  0.2384639E-009  0.7939210E+02  0.7561462E-02  0.1330785E+00
         -2   -1    0    0    0  501 -0.00000000000E+00  0.00000000000E+00  0.26694187559E+02  0.26694187559E+02  0.00000000000E+00 0.  1.
          2   -1    0    0  501    0  0.00000000000E+00 -0.00000000000E+00 -0.65715375112E+03  0.65715375112E+03  0.00000000000E+00 0. -1.
         25    2    1    2    0    0 -0.38416045583E+02 -0.72889332222E+01 -0.51041249558E+03  0.52696878730E+03  0.12508503524E+03 0.  0.
          5    1    3    3  502    0  0.18841154752E+02 -0.23711849872E+02 -0.29911070156E+02  0.42771315792E+02  0.41800000000E+01 0. -1.
         -5    1    3    3    0  502 -0.57257200335E+02  0.16422916649E+02 -0.48050142542E+03  0.48419747151E+03  0.41800000000E+01 0. -1.
        -11    1    1    2    0    0  0.37139489609E+02  0.28770278965E+02 -0.12606505360E+03  0.13453426470E+03  0.00000000000E+00 0. -1.
         11    1    1    2    0    0  0.12765559746E+01 -0.21481345743E+02  0.60179856107E+01  0.22344886683E+02  0.00000000000E+00 0.  1.
</event>
<event>
 7    1  0.2384639E-009  0.1479701E+03  0.7561462E-02  0.1202990E+00
         -1   -1    0    0    0  501 -0.00000000000E+00  0.00000000000E+00  0.17024736500E+02  0.17024736500E+02  0.00000000000E+00 0.  1.
          1   -1    0    0  501    0  0.00000000000E+00 -0.00000000000E+00 -0.22296566202E+04  0.22296566202E+04  0.00000000000E+00 0. -1.
         25    2    1    2    0    0  0.13341965337E+03  0.83140810567E+00 -0.17155611187E+04  0.17252824856E+04  0.12509279771E+03 0.  0.
          5    1    3    3  502    0 -0.63407300570E+01  0.23651143987E+01 -0.71010930641E+03  0.71015385522E+03  0.41800000000E+01 0. -1.
         -5    1    3    3    0  502  0.13976038343E+03 -0.15337062930E+01 -0.10054518123E+04  0.10151286304E+04  0.41800000000E+01 0. -1.
        -11    1    1    2    0    0 -0.34380327105E+02 -0.29227489107E+02 -0.80589213999E+02  0.92362732876E+02  0.00000000000E+00 0.  1.
         11    1    1    2    0    0 -0.99039326265E+02  0.28396081001E+02 -0.41648155104E+03  0.42903613824E+03  0.00000000000E+00 0. -1.
</event>
<event>
 7    1  0.2384639E-009  0.1650508E+03  0.7561462E-02  0.1183110E+00
          2   -1    0    0  501    0  0.00000000000E+00  0.00000000000E+00  0.57196021875E+03  0.57196021875E+03  0.00000000000E+00 0. -1.
         -2   -1    0    0    0  501 -0.00000000000E+00 -0.00000000000E+00 -0.55070783026E+02  0.55070783026E+02  0.00000000000E+00 0.  1.
         25    2    1    2    0    0 -0.81850508209E+02 -0.11366373571E+03  0.27550236878E+03  0.33341845031E+03  0.12508939721E+03 0.  0.
          5    1    3    3  502    0 -0.40535121240E+02 -0.12769247311E+03  0.15351840909E+03  0.20379852323E+03  0.41800000000E+01 0. -1.
         -5    1    3    3    0  502 -0.41315386969E+02  0.14028737402E+02  0.12198395969E+03  0.12961992707E+03  0.41800000000E+01 0. -1.
        -11    1    1    2    0    0  0.78921604587E+02  0.61676529927E+02  0.94251689992E+02  0.13753543209E+03  0.00000000000E+00 0.  1.
         11    1    1    2    0    0  0.29289036213E+01  0.51987205779E+02  0.14713537695E+03  0.15607711937E+03  0.00000000000E+00 0. -1.
</event>
<event>
 7    1  0.2384639E-009  0.2253347E+03  0.7561462E-02  0.1129967E+00
          2   -1    0    0  501    0  0.00000000000E+00  0.00000000000E+00  0.25854108832E+03  0.25854108832E+03  0.00000000000E+00 0. -1.
         -2   -1    0    0    0  501 -0.00000000000E+00 -0.00000000000E+00 -0.41406395914E+03  0.41406395914E+03  0.00000000000E+00 0.  1.
         25    2    1    2    0    0 -0.41210536927E+02  0.19453451252E+03  0.16312758780E+03  0.28600669647E+03  0.12508891080E+03 0.  0.
          5    1    3    3  502    0 -0.26094468433E+02  0.21071602589E+03  0.14863129913E+03  0.25921207598E+03  0.41800000000E+01 0. -1.
         -5    1    3    3    0  502 -0.15116068494E+02 -0.16181513375E+02  0.14496288673E+02  0.26794620488E+02  0.41800000000E+01 0. -1.
        -11    1    1    2    0    0 -0.20635631738E+02 -0.10462869902E+03 -0.19016023473E+03  0.21802272548E+03  0.00000000000E+00 0.  1.
         11    1    1    2    0    0  0.61846168665E+02 -0.89905813497E+02 -0.12849022390E+03  0.16857562551E+03  0.00000000000E+00 0. -1.
</event>
<event>
 7    1  0.2384639E-009  0.6103277E+02  0.7561462E-02  0.1393548E+00
         -2   -1    0    0    0  501 -0.00000000000E+00  0.00000000000E+00  0.43149854126E+02  0.43149854126E+02  0.00000000000E+00 0.  1.
          2   -1    0    0  501    0  0.00000000000E+00 -0.00000000000E+00 -0.38434394016E+03  0.38434394016E+03  0.00000000000E+00 0. -1.
         25    2    1    2    0    0 -0.93084273188E+01  0.28900995874E+02 -0.29269661368E+03  0.31975266379E+03  0.12509414038E+03 0.  0.
          5    1    3    3  502    0  0.11983111269E+02 -0.35231849923E+01 -0.27761085761E+03  0.27792313407E+03  0.41800000000E+01 0. -1.
         -5    1    3    3    0  502 -0.21291538588E+02  0.32424180866E+02 -0.15085756071E+02  0.41829529719E+02  0.41800000000E+01 0. -1.
        -11    1    1    2    0    0  0.32781721450E+02 -0.32465727735E+02  0.76617754070E+01  0.46769301267E+02  0.00000000000E+00 0.  1.
         11    1    1    2    0    0 -0.23473294131E+02  0.35647318611E+01 -0.56159247756E+02  0.60971829226E+02  0.00000000000E+00 0. -1.
</event>
<event>
 7    1  0.2384639E-009  0.1621980E+03  0.7561462E-02  0.1186237E+00
         -3   -1    0    0    0  501 -0.00000000000E+00  0.00000000000E+00  0.32070896665E+03  0.32070896665E+03  0.00000000000E+00 0. -1.
          3   -1    0    0  501    0  0.00000000000E+00 -0.00000000000E+00 -0.11418938435E+03  0.11418938435E+03  0.00000000000E+00 0.  1.
         25    2    1    2    0    0 -0.15083201466E+03 -0.37710751243E+02  0.13189283746E+03  0.23919911379E+03  0.12509235811E+03 0.  0.
          5    1    3    3  502    0 -0.90293474392E+02  0.16488033896E+01  0.18842973231E+01  0.90424847507E+02  0.41800000000E+01 0. -1.
         -5    1    3    3    0  502 -0.60538540269E+02 -0.39359554633E+02  0.13000854014E+03  0.14877426628E+03  0.41800000000E+01 0. -1.
        -11    1    1    2    0    0  0.79420436339E+02 -0.29685332609E+01 -0.71038851810E+01  0.79792750815E+02  0.00000000000E+00 0.  1.
         11    1    1    2    0    0  0.71411578322E+02  0.40679284504E+02  0.81730630017E+02  0.11590648640E+03  0.00000000000E+00 0. -1.
</event>
<event>
 7    1  0.2384639E-009  0.7805436E+02  0.7561462E-02  0.1334665E+00
         -2   -1    0    0    0  501 -0.00000000000E+00  0.00000000000E+00  0.10256803160E+02  0.10256803160E+02  0.00000000000E+00 0.  1.
          2   -1    0    0  501    0  0.00000000000E+00 -0.00000000000E+00 -0.13183261248E+04  0.13183261248E+04  0.00000000000E+00 0. -1.
         25    2    1    2    0    0 -0.21458671464E+02 -0.17909650858E+02 -0.10455146919E+04  0.10533427933E+04  0.12509532008E+03 0.  0.
          5    1    3    3  502    0  0.31814261742E+01  0.27740271491E+02 -0.86538718814E+03  0.86584762051E+03  0.41800000000E+01 0.  1.
         -5    1    3    3    0  502 -0.24640097638E+02 -0.45649922349E+02 -0.18012750374E+03  0.18749517280E+03  0.41800000000E+01 0.  1.
        -11    1    1    2    0    0  0.26902709868E+02 -0.22491326995E+02 -0.68544180689E+02  0.76992988606E+02  0.00000000000E+00 0. -1.
         11    1    1    2    0    0 -0.54440384045E+01  0.40400977853E+02 -0.19401044906E+03  0.19824714603E+03  0.00000000000E+00 0.  1.
</event>
<event>
 7    1  0.2384639E-009  0.1511625E+03  0.7561462E-02  0.1199052E+00
          1   -1    0    0  501    0  0.00000000000E+00  0.00000000000E+00  0.66652659309E+03  0.66652659309E+03  0.00000000000E+00 0. -1.
         -1   -1    0    0    0  501 -0.00000000000E+00 -0.00000000000E+00 -0.42702859398E+02  0.42702859398E+02  0.00000000000E+00 0.  1.
         25    2    1    2    0    0 -0.10205079666E+03 -0.38500661127E+02  0.18080731678E+03  0.24543720899E+03  0.12510584219E+03 0.  0.
          5    1    3    3  502    0 -0.90946550090E+02  0.30061581816E+02  0.95118430535E+02  0.13505540308E+03  0.41800000000E+01 0. -1.
         -5    1    3    3    0  502 -0.11104246568E+02 -0.68562242943E+02  0.85688886244E+02  0.11038180591E+03  0.41800000000E+01 0. -1.
        -11    1    1    2    0    0  0.13150508147E+02  0.45815708755E+02  0.13799013849E+03  0.14599073037E+03  0.00000000000E+00 0.  1.
         11    1    1    2    0    0  0.88900288510E+02 -0.73150476284E+01  0.30502627843E+03  0.31780151314E+03  0.00000000000E+00 0. -1.
</event>
<event>
 7    1  0.2384639E-009  0.2020801E+03  0.7561462E-02  0.1147996E+00
          1   -1    0    0  501    0  0.00000000000E+00  0.00000000000E+00  0.74717256843E+02  0.74717256843E+02  0.00000000000E+00 0. -1.
         -1   -1    0    0    0  501 -0.00000000000E+00 -0.00000000000E+00 -0.70137751412E+03  0.70137751412E+03  0.00000000000E+00 0.  1.
         25    2    1    2    0    0  0.19037006799E+03 -0.35838621824E+02 -0.42420216509E+03  0.48282315954E+03  0.12508220066E+03 0.  0.
          5    1    3    3  502    0  0.17371731969E+03 -0.37661878726E+02 -0.24461099323E+03  0.30240392636E+03  0.41800000000E+01 0.  1.
         -5    1    3    3    0  502  0.16652748302E+02  0.18232569025E+01 -0.17959117186E+03  0.18041923318E+03  0.41800000000E+01 0.  1.
        -11    1    1    2    0    0 -0.13763589020E+03  0.61137383460E+02 -0.16698032038E+03  0.22486405965E+03  0.00000000000E+00 0.  1.
         11    1    1    2    0    0 -0.52734177785E+02 -0.25298761636E+02 -0.35477771808E+02  0.68407551773E+02  0.00000000000E+00 0. -1.
</event>
<event>
 7    1  0.2384639E-009  0.1055911E+03  0.7561462E-02  0.1268959E+00
          1   -1    0    0  501    0  0.00000000000E+00  0.00000000000E+00  0.14361121838E+04  0.14361121838E+04  0.00000000000E+00 0. -1.
         -1   -1    0    0    0  501 -0.00000000000E+00 -0.00000000000E+00 -0.12809399580E+02  0.12809399580E+02  0.00000000000E+00 0.  1.
         25    2    1    2    0    0  0.77843671055E+02  0.41826504280E+02  0.94101791464E+03  0.95339984008E+03  0.12508975095E+03 0.  0.
          5    1    3    3  502    0  0.25306391295E+02  0.36313272228E+02  0.86646127118E+02  0.97386297418E+02  0.41800000000E+01 0. -1.
         -5    1    3    3    0  502  0.52537279760E+02  0.55132320516E+01  0.85437178753E+03  0.85601354266E+03  0.41800000000E+01 0. -1.
        -11    1    1    2    0    0 -0.49667950199E+01 -0.40541650476E+02  0.17912304399E+03  0.18372087352E+03  0.00000000000E+00 0. -1.
         11    1    1    2    0    0 -0.72876876035E+02 -0.12848538037E+01  0.30316182557E+03  0.31180086978E+03  0.00000000000E+00 0.  1.
</event>
<event>
 7    1  0.2384639E-009  0.9760724E+02  0.7561462E-02  0.1285410E+00
          4   -1    0    0  501    0  0.00000000000E+00  0.00000000000E+00  0.18773027574E+03  0.18773027574E+03  0.00000000000E+00 0.  1.
         -4   -1    0    0    0  501 -0.00000000000E+00 -0.00000000000E+00 -0.11947738237E+03  0.11947738237E+03  0.00000000000E+00 0. -1.
         25    2    1    2    0    0 -0.16866108092E+01 -0.53980003512E+02  0.12731111492E+03  0.18647290803E+03  0.12508932813E+03 0.  0.
          5    1    3    3  502    0  0.41866527380E+02  0.17829023404E+02  0.19340444688E+02  0.49620614578E+02  0.41800000000E+01 0.  1.
         -5    1    3    3    0  502 -0.43553138189E+02 -0.71809026916E+02  0.10797067023E+03  0.13685229345E+03  0.41800000000E+01 0.  1.
        -11    1    1    2    0    0  0.16093925859E+02  0.46479212012E+02  0.96571143500E+01  0.50125756417E+02  0.00000000000E+00 0.  1.
         11    1    1    2    0    0 -0.14407315050E+02  0.75007915003E+01 -0.68715335893E+02  0.70608993669E+02  0.00000000000E+00 0. -1.
</event>
<event>
 7    1  0.2384639E-009  0.1042246E+03  0.7561462E-02  0.1271655E+00
          1   -1    0    0  501    0  0.00000000000E+00  0.00000000000E+00  0.13968105401E+03  0.13968105401E+03  0.00000000000E+00 0. -1.
         -1   -1    0    0    0  501 -0.00000000000E+00 -0.00000000000E+00 -0.97316752756E+02  0.97316752756E+02  0.00000000000E+00 0.  1.
         25    2    1    2    0    0  0.29811877565E+02  0.61943235557E+00  0.59205798155E+02  0.14156987682E+03  0.12509025441E+03 0.  0.
          5    1    3    3  502    0  0.34996093068E+01 -0.59633242143E+02  0.43012763230E+02  0.73728834485E+02  0.41800000000E+01 0. -1.
         -5    1    3    3    0  502  0.26312268258E+02  0.60252674499E+02  0.16193034925E+02  0.67841042336E+02  0.41800000000E+01 0. -1.
        -11    1    1    2    0    0  0.23061666876E+02  0.15053037433E+02 -0.27878049527E+02  0.39186988408E+02  0.00000000000E+00 0.  1.
         11    1    1    2    0    0 -0.52873544441E+02 -0.15672469788E+02  0.11036552624E+02  0.56240941536E+02  0.00000000000E+00 0. -1.
</event>
<event>
 7    1  0.2384639E-009  0.1389966E+03  0.7561462E-02  0.1214686E+00
          1   -1    0    0  501    0  0.00000000000E+00  0.00000000000E+00  0.16994621242E+03  0.16994621242E+03  0.00000000000E+00 0. -1.
         -1   -1    0    0    0  501 -0.00000000000E+00 -0.00000000000E+00 -0.18315369486E+03  0.18315369486E+03  0.00000000000E+00 0.  1.
         25    2    1    2    0    0 -0.96699261498E+02  0.97870641643E+02 -0.24060559912E+02  0.18749832059E+03  0.12508916824E+03 0.  0.
          5    1    3    3  502    0 -0.95806471601E+02  0.96138365090E+02  0.25126785471E+02  0.13809523160E+03  0.41800000000E+01 0. -1.
         -5    1    3    3    0  502 -0.89278989630E+00  0.17322765525E+01 -0.49187345383E+02  0.49403088989E+02  0.41800000000E+01 0. -1.
        -11    1    1    2    0    0  0.64806274285E+02 -0.66513962019E+02  0.50609349433E+02  0.10576042067E+03  0.00000000000E+00 0. -1.
         11    1    1    2    0    0  0.31892987212E+02 -0.31356679624E+02 -0.39756271955E+02  0.59841166016E+02  0.00000000000E+00 0.  1.
</event>
<event>
 7    1  0.2384639E-009  0.1204052E+03  0.7561462E-02  0.1242430E+00
          2   -1    0    0  501    0  0.00000000000E+00  0.00000000000E+00  0.37489708241E+03  0.37489708241E+03  0.00000000000E+00 0. -1.
         -2   -1    0    0    0  501 -0.00000000000E+00 -0.00000000000E+00 -0.68618987467E+02  0.68618987467E+02  0.00000000000E+00 0.  1.
         25    2    1    2    0    0  0.10763878860E+03  0.42968747869E+02  0.12644029008E+03  0.21229106894E+03  0.12509168194E+03 0.  0.
          5    1    3    3  502    0  0.47432375591E+02  0.34673716458E+02  0.13821665869E+03  0.15024451407E+03  0.41800000000E+01 0.  1.
         -5    1    3    3    0  502  0.60206413012E+02  0.82950314108E+01 -0.11776368608E+02  0.62046554872E+02  0.41800000000E+01 0.  1.
        -11    1    1    2    0    0 -0.95949183603E+02 -0.24327132184E+02  0.18390201579E+03  0.20884924373E+03  0.00000000000E+00 0. -1.
         11    1    1    2    0    0 -0.11689605000E+02 -0.18641615685E+02 -0.40642109269E+01  0.22375757213E+02  0.00000000000E+00 0.  1.
</event>
<event>
 7    1  0.2384639E-009  0.1285394E+03  0.7561462E-02  0.1229639E+00
         -2   -1    0    0    0  501 -0.00000000000E+00  0.00000000000E+00  0.20670117756E+02  0.20670117756E+02  0.00000000000E+00 0.  1.
          2   -1    0    0  501    0  0.00000000000E+00 -0.00000000000E+00 -0.12062455955E+04  0.12062455955E+04  0.00000000000E+00 0. -1.
         25    2    1    2    0    0  0.27756146485E+02 -0.10757836179E+03 -0.58193660626E+03  0.60550789966E+03  0.12508435256E+03 0.  0.
          5    1    3    3  502    0  0.19680619240E+02 -0.70745001673E+02 -0.55279991773E+03  0.55767141175E+03  0.41800000000E+01 0. -1.
         -5    1    3    3    0  502  0.80755272450E+01 -0.36833360113E+02 -0.29136688523E+02  0.47836487911E+02  0.41800000000E+01 0. -1.
        -11    1    1    2    0    0  0.30361999909E+02  0.70211454947E+02 -0.36704213098E+03  0.37492856034E+03  0.00000000000E+00 0.  1.
         11    1    1    2    0    0 -0.58118146394E+02  0.37366906839E+02 -0.23659674051E+03  0.24647925326E+03  0.00000000000E+00 0. -1.
</event>
<event>
 7    1  0.2384639E-009  0.1137842E+03  0.7561462E-02  0.1253718E+00
         -2   -1    0    0    0  501 -0.00000000000E+00  0.00000000000E+00  0.11757001826E+02  0.11757001826E+02  0.00000000000E+00 0.  1.
          2   -1    0    0  501    0  0.00000000000E+00 -0.00000000000E+00 -0.11542196791E+04  0.11542196791E+04  0.00000000000E+00 0. -1.
         25    2    1    2    0    0 -0.36402949882E+01 -0.42670664193E+02 -0.69604014412E+03  0.70848607900E+03  0.12508638850E+03 0.  0.
          5    1    3    3  502    0 -0.41752928034E+02  0.28851875157E+02 -0.25269442263E+03  0.25777447765E+03  0.41800000000E+01 0. -1.
         -5    1    3    3    0  502  0.38112633046E+02 -0.71522539350E+02 -0.44334572149E+03  0.45071160135E+03  0.41800000000E+01 0. -1.
        -11    1    1    2    0    0  0.37940228143E+02 -0.33600922559E+01 -0.11528346233E+03  0.12141263451E+03  0.00000000000E+00 0.  1.
         11    1    1    2    0    0 -0.34299933155E+02  0.46030756449E+02 -0.33113907083E+03  0.33607796742E+03  0.00000000000E+00 0. -1.
</event>
<event>
 7    1  0.2384639E-009  0.1215798E+03  0.7561462E-02  0.1240513E+00
          1   -1    0    0  501    0  0.00000000000E+00  0.00000000000E+00  0.58629175926E+03  0.58629175926E+03  0.00000000000E+00 0. -1.
         -1   -1    0    0    0  501 -0.00000000000E+00 -0.00000000000E+00 -0.31748823107E+02  0.31748823107E+02  0.00000000000E+00 0.  1.
         25    2    1    2    0    0  0.61540334153E+02  0.49294349993E+02  0.37585461750E+03  0.40389557349E+03  0.12509114726E+03 0.  0.
          5    1    3    3  502    0  0.64714384505E+02  0.79647176878E+02  0.34628800079E+03  0.36119866589E+03  0.41800000000E+01 0. -1.
         -5    1    3    3    0  502 -0.31740503516E+01 -0.30352826885E+02  0.29566616710E+02  0.42696907607E+02  0.41800000000E+01 0. -1.
        -11    1    1    2    0    0 -0.64763613640E+02 -0.46968551028E+01  0.64542844685E+02  0.91554163748E+02  0.00000000000E+00 0.  1.
         11    1    1    2    0    0  0.32232794870E+01 -0.44597494890E+02  0.11414547397E+03  0.12259084513E+03  0.00000000000E+00 0. -1.
</event>
<event>
 7    1  0.2384639E-009  0.9713340E+02  0.7561462E-02  0.1286442E+00
         -1   -1    0    0    0  501 -0.00000000000E+00  0.00000000000E+00  0.30412083265E+03  0.30412083265E+03  0.00000000000E+00 0.  1.
          1   -1    0    0  501    0  0.00000000000E+00 -0.00000000000E+00 -0.90525018034E+02  0.90525018034E+02  0.00000000000E+00 0. -1.
         25    2    1    2    0    0 -0.36352394935E+02  0.10801268095E+02 -0.28219291427E+02  0.13372356586E+03  0.12508996621E+03 0.  0.
          5    1    3    3  502    0  0.33678995111E+02  0.20498377392E+02  0.23443219228E+02  0.46059907893E+02  0.41800000000E+01 0. -1.
         -5    1    3    3    0  502 -0.70031390046E+02 -0.96971092974E+01 -0.51662510654E+02  0.87663657964E+02  0.41800000000E+01 0. -1.
        -11    1    1    2    0    0  0.19300914280E+02  0.32197778995E+02  0.17911071950E+03  0.18300238278E+03  0.00000000000E+00 0.  1.
         11    1    1    2    0    0  0.17051480655E+02 -0.42999047090E+02  0.62704386548E+02  0.77919902050E+02  0.00000000000E+00 0. -1.
</event>
<event>
 7    1  0.2384639E-009  0.1008329E+03  0.7561462E-02  0.1278554E+00
         -2   -1    0    0    0  501 -0.00000000000E+00  0.00000000000E+00  0.91082942234E+02  0.91082942234E+02  0.00000000000E+00 0.  1.
          2   -1    0    0  501    0  0.00000000000E+00 -0.00000000000E+00 -0.14859942136E+03  0.14859942136E+03  0.00000000000E+00 0. -1.
         25    2    1    2    0    0  0.12174279385E+02  0.24889922192E+02  0.59252839396E+01  0.12825292292E+03  0.12508389961E+03 0.  0.
          5    1    3    3  502    0 -0.73800849719E+01 -0.49139804338E+02  0.12126940988E+02  0.51319792696E+02  0.41800000000E+01 0. -1.
         -5    1    3    3    0  502  0.19554364357E+02  0.74029726531E+02 -0.62016570485E+01  0.76933130222E+02  0.41800000000E+01 0. -1.
        -11    1    1    2    0    0  0.28810251815E+00  0.24336032680E+02 -0.54744995007E+02  0.59911100540E+02  0.00000000000E+00 0. -1.
         11    1    1    2    0    0 -0.12462381904E+02 -0.49225954872E+02 -0.86967680599E+01  0.51518340137E+02  0.00000000000E+00 0.  1.
</event>
<event>
 7    1  0.2384639E-009  0.9920333E+02  0.7561462E-02  0.1281980E+00
         -1   -1    0    0    0  501 -0.00000000000E+00  0.00000000000E+00  0.16284370939E+03  0.16284370939E+03  0.00000000000E+00 0.  1.
          1   -1    0    0  501    0  0.00000000000E+00 -0.00000000000E+00 -0.11416677687E+03  0.11416677687E+03  0.00000000000E+00 0. -1.
         25    2    1    2    0    0 -0.39823105490E+02  0.50733728477E+02  0.77174220278E+02  0.16050710841E+03  0.12508749193E+03 0.  0.
          5    1    3    3  502    0 -0.61017562837E+02  0.62297729597E+02  0.86449088140E+01  0.87728883134E+02  0.41800000000E+01 0. -1.
         -5    1    3    3    0  502  0.21194457346E+02 -0.11564001120E+02  0.68529311464E+02  0.72778225273E+02  0.41800000000E+01 0. -1.
        -11    1    1    2    0    0  0.18867640946E+01  0.12618847039E+02  0.23121143003E+02  0.26407999415E+02  0.00000000000E+00 0.  1.
         11    1    1    2    0    0  0.37936341396E+02 -0.63352575515E+02 -0.51618430761E+02  0.90095378445E+02  0.00000000000E+00 0. -1.
</event>
<event>
 7    1  0.2384639E-009  0.1081664E+03  0.7561462E-02  0.1264004E+00
         -2   -1    0    0    0  501 -0.00000000000E+00  0.00000000000E+00  0.51419982971E+02  0.51419982971E+02  0.00000000000E+00 0.  1.
          2   -1    0    0  501    0  0.00000000000E+00 -0.00000000000E+00 -0.29197789374E+03  0.29197789374E+03  0.00000000000E+00 0. -1.
         25    2    1    2    0    0 -0.22549081266E+02  0.86666403192E+00 -0.21508127723E+03  0.24983465413E+03  0.12509271128E+03 0.  0.
          5    1    3    3  502    0  0.38883177995E+02 -0.37776942122E+02 -0.95229649174E+02  0.10965927854E+03  0.41800000000E+01 0.  1.
         -5    1    3    3    0  502 -0.61432259260E+02  0.38643606154E+02 -0.11985162806E+03  0.14017537560E+03  0.41800000000E+01 0.  1.
        -11    1    1    2    0    0 -0.23652241079E+02  0.26535828739E+02 -0.16147974397E+02  0.39042743142E+02  0.00000000000E+00 0.  1.
         11    1    1    2    0    0  0.46201322345E+02 -0.27402492771E+02 -0.93286591334E+01  0.54520479434E+02  0.00000000000E+00 0. -1.
</event>
<event>
 7    1  0.2384639E-009  0.9452527E+02  0.7561462E-02  0.1292249E+00
          2   -1    0    0  501    0  0.00000000000E+00  0.00000000000E+00  0.17601050419E+03  0.17601050419E+03  0.00000000000E+00 0. -1.
         -2   -1    0    0    0  501 -0.00000000000E+00 -0.00000000000E+00 -0.87553818869E+02  0.87553818869E+02  0.00000000000E+00 0.  1.
         25    2    1    2    0    0  0.50002735145E+02  0.33174947257E+02  0.61648301416E+02  0.15181822184E+03  0.12508960295E+03 0.  0.
          5    1    3    3  502    0 -0.88269451433E+01 -0.25380424387E+02 -0.21189881564E+02  0.34475562117E+02  0.41800000000E+01 0.  1.
         -5    1    3    3    0  502  0.58829680288E+02  0.58555371644E+02  0.82838182980E+02  0.11734265972E+03  0.41800000000E+01 0.  1.
        -11    1    1    2    0    0 -0.21449886780E+02 -0.43405522865E+02 -0.22865842758E+02  0.53544223060E+02  0.00000000000E+00 0.  1.
         11    1    1    2    0    0 -0.28552848365E+02  0.10230575607E+02  0.49674226667E+02  0.58201878165E+02  0.00000000000E+00 0. -1.
</event>
<event>
 7    1  0.2384639E-009  0.1324283E+03  0.7561462E-02  0.1223896E+00
         -1   -1    0    0    0  501 -0.00000000000E+00  0.00000000000E+00  0.20425080128E+02  0.20425080128E+02  0.00000000000E+00 0.  1.
          1   -1    0    0  501    0  0.00000000000E+00 -0.00000000000E+00 -0.14266210760E+04  0.14266210760E+04  0.00000000000E+00 0. -1.
         25    2    1    2    0    0 -0.11249845058E+03  0.60079632345E+02 -0.88729126635E+03  0.90509499303E+03  0.12508273846E+03 0.  0.
          5    1    3    3  502    0 -0.80908928145E+01  0.25489343385E+02 -0.28598088624E+02  0.39376290400E+02  0.41800000000E+01 0.  1.
         -5    1    3    3    0  502 -0.10440755776E+03  0.34590288960E+02 -0.85869317773E+03  0.86571870263E+03  0.41800000000E+01 0.  1.
        -11    1    1    2    0    0  0.70869177928E+02 -0.41583984416E+02 -0.46105191138E+03  0.46831670174E+03  0.00000000000E+00 0. -1.
         11    1    1    2    0    0  0.41629272649E+02 -0.18495647929E+02 -0.57852818163E+02  0.73634461382E+02  0.00000000000E+00 0.  1.
</event>
<event>
 7    1  0.2384639E-009  0.1021972E+03  0.7561462E-02  0.1275742E+00
         -2   -1    0    0    0  501 -0.00000000000E+00  0.00000000000E+00  0.22345407608E+02  0.22345407608E+02  0.00000000000E+00 0.  1.
          2   -1    0    0  501    0  0.00000000000E+00 -0.00000000000E+00 -0.87297961714E+03  0.87297961714E+03  0.00000000000E+00 0. -1.
         25    2    1    2    0    0 -0.27405844718E+02 -0.16072511633E+02 -0.71849974692E+03  0.72999917750E+03  0.12508999510E+03 0.  0.
          5    1    3    3  502    0  0.26781032540E+01 -0.57080509621E+02 -0.57206726645E+03  0.57492937528E+03  0.41800000000E+01 0. -1.
         -5    1    3    3    0  502 -0.30083947972E+02  0.41007997988E+02 -0.14643248048E+03  0.15506980223E+03  0.41800000000E+01 0. -1.
        -11    1    1    2    0    0 -0.13909128413E+02 -0.30673918544E+02 -0.67827651177E+02  0.75729409057E+02  0.00000000000E+00 0. -1.
         11    1    1    2    0    0  0.41314973131E+02  0.46746430177E+02 -0.64306811432E+02  0.89596438186E+02  0.00000000000E+00 0.  1.
</event>
<event>
 7    1  0.2384639E-009  0.3466335E+03  0.7561462E-02  0.1064005E+00
          2   -1    0    0  501    0  0.00000000000E+00  0.00000000000E+00  0.78723788425E+03  0.78723788425E+03  0.00000000000E+00 0. -1.
         -2   -1    0    0    0  501 -0.00000000000E+00 -0.00000000000E+00 -0.19081216240E+03  0.19081216240E+03  0.00000000000E+00 0.  1.
         25    2    1    2    0    0 -0.30083618438E+02  0.33421063838E+03  0.50474204471E+03  0.61888101955E+03  0.12508960692E+03 0.  0.
          5    1    3    3  502    0  0.35950930163E+02  0.18288010529E+03  0.32579450885E+03  0.37536267354E+03  0.41800000000E+01 0.  1.
         -5    1    3    3    0  502 -0.66034548601E+02  0.15133053309E+03  0.17894753586E+03  0.24351834601E+03  0.41800000000E+01 0.  1.
        -11    1    1    2    0    0  0.36680178935E+02 -0.87494203374E+02 -0.27582937575E+01  0.94911955702E+02  0.00000000000E+00 0.  1.
         11    1    1    2    0    0 -0.65965604966E+01 -0.24671643501E+03  0.94441970893E+02  0.26425707139E+03  0.00000000000E+00 0. -1.
</event>
<event>
 7    1  0.2384639E-009  0.1028635E+03  0.7561462E-02  0.1274387E+00
          2   -1    0    0  501    0  0.00000000000E+00  0.00000000000E+00  0.94314849617E+03  0.94314849617E+03  0.00000000000E+00 0.  1.
         -2   -1    0    0    0  501 -0.00000000000E+00 -0.00000000000E+00 -0.15024183997E+02  0.15024183997E+02  0.00000000000E+00 0. -1.
         25    2    1    2    0    0 -0.43747214093E+02  0.24452472255E+02  0.57363355858E+03  0.58924970832E+03  0.12509203448E+03 0.  0.
          5    1    3    3  502    0 -0.26316405370E+02  0.60055916392E+02  0.15016628396E+03  0.16391049852E+03  0.41800000000E+01 0.  1.
         -5    1    3    3    0  502 -0.17430808723E+02 -0.35603444137E+02  0.42346727461E+03  0.42533920980E+03  0.41800000000E+01 0.  1.
        -11    1    1    2    0    0  0.54565847451E+02 -0.49000187094E+02  0.22388264952E+03  0.23558839275E+03  0.00000000000E+00 0. -1.
         11    1    1    2    0    0 -0.10818633358E+02  0.24547714840E+02  0.13060810407E+03  0.13333457909E+03  0.00000000000E+00 0.  1.
</event>
<event>
 7    1  0.2384639E-009  0.1104537E+03  0.7561462E-02  0.1259732E+00
         -4   -1    0    0    0  501 -0.00000000000E+00  0.00000000000E+00  0.88957224729E+02  0.88957224729E+02  0.00000000000E+00 0.  1.
          4   -1    0    0  501    0  0.00000000000E+00 -0.00000000000E+00 -0.18112366095E+03  0.18112366095E+03  0.00000000000E+00 0. -1.
         25    2    1    2    0    0  0.65148932757E+00  0.60865424687E+02 -0.76842502691E+02  0.15892511653E+03  0.12508956025E+03 0.  0.
          5    1    3    3  502    0 -0.34831733946E+02  0.83621628074E+02 -0.72956680102E+02  0.11638718118E+03  0.41800000000E+01 0.  1.
         -5    1    3    3    0  502  0.35483223274E+02 -0.22756203387E+02 -0.38858225889E+01  0.42537935348E+02  0.41800000000E+01 0.  1.
        -11    1    1    2    0    0 -0.28176018063E+02 -0.97596639779E+01  0.26274427967E+02  0.39742730151E+02  0.00000000000E+00 0.  1.
         11    1    1    2    0    0  0.27524528736E+02 -0.51105760709E+02 -0.41598361492E+02  0.71413038996E+02  0.00000000000E+00 0. -1.
</event>
<event>
 7    1  0.2384639E-009  0.9346043E+02  0.7561462E-02  0.1294682E+00
          3   -1    0    0  501    0  0.00000000000E+00  0.00000000000E+00  0.15582767577E+03  0.15582767577E+03  0.00000000000E+00 0. -1.
         -3   -1    0    0    0  501 -0.00000000000E+00 -0.00000000000E+00 -0.12291163443E+03  0.12291163443E+03  0.00000000000E+00 0.  1.
         25    2    1    2    0    0 -0.57704640252E+02 -0.53641866630E+02 -0.16868508215E+02  0.14879049526E+03  0.12508712783E+03 0.  0.
          5    1    3    3  502    0  0.49521185400E+01  0.98951119817E+01 -0.51604164153E+02  0.52942410949E+02  0.41800000000E+01 0. -1.
         -5    1    3    3    0  502 -0.62656758792E+02 -0.63536978612E+02  0.34735655938E+02  0.95848084315E+02  0.41800000000E+01 0. -1.
        -11    1    1    2    0    0  0.32062545324E+02  0.50648378770E+02  0.73533370729E+02  0.94870552309E+02  0.00000000000E+00 0. -1.
         11    1    1    2    0    0  0.25642094928E+02  0.29934878601E+01 -0.23748821174E+02  0.35078262628E+02  0.00000000000E+00 0.  1.
</event>
<event>
 7    1  0.2384639E-009  0.9175838E+02  0.7561462E-02  0.1298649E+00
         -2   -1    0    0    0  501 -0.00000000000E+00  0.00000000000E+00  0.35465311210E+03  0.35465311210E+03  0.00000000000E+00 0. -1.
          2   -1    0    0  501    0  0.00000000000E+00 -0.00000000000E+00 -0.45972401085E+02  0.45972401085E+02  0.00000000000E+00 0.  1.
         25    2    1    2    0    0 -0.43387163481E+02  0.75415556526E+01  0.91061996955E+02  0.16086784880E+03  0.12508739533E+03 0.  0.
          5    1    3    3  502    0 -0.44150573299E+02  0.38406785446E+02  0.10981462251E+03  0.12450332529E+03  0.41800000000E+01 0. -1.
         -5    1    3    3    0  502  0.76340981770E+00 -0.30865229794E+02 -0.18752625553E+02  0.36364523507E+02  0.41800000000E+01 0. -1.
        -11    1    1    2    0    0  0.34315190918E+02  0.35695581462E+02  0.70513818972E+02  0.86162088703E+02  0.00000000000E+00 0.  1.
         11    1    1    2    0    0  0.90719725629E+01 -0.43237137114E+02  0.14710489509E+03  0.15359557569E+03  0.00000000000E+00 0. -1.
</event>
<event>
 7    1  0.2384639E-009  0.8141414E+02  0.7561462E-02  0.1325086E+00
         -2   -1    0    0    0  501 -0.00000000000E+00  0.00000000000E+00  0.26592306372E+02  0.26592306372E+02  0.00000000000E+00 0.  1.
          2   -1    0    0  501    0  0.00000000000E+00 -0.00000000000E+00 -0.52480958180E+03  0.52480958180E+03  0.00000000000E+00 0. -1.
         25    2    1    2    0    0 -0.24764240135E+02  0.20417531295E+02 -0.36306753455E+03  0.38535212323E+03  0.12509229015E+03 0.  0.
          5    1    3    3  502    0 -0.37092536430E+02 -0.51435900635E+01 -0.23143628294E+02  0.44220048713E+02  0.41800000000E+01 0.  1.
         -5    1    3    3    0  502  0.12328296295E+02  0.25561121359E+02 -0.33992390626E+03  0.34113207451E+03  0.41800000000E+01 0.  1.
        -11    1    1    2    0    0  0.48772507858E+02  0.17302628424E+02 -0.73692714822E+02  0.90048624037E+02  0.00000000000E+00 0.  1.
         11    1    1    2    0    0 -0.24008267723E+02 -0.37720159719E+02 -0.61457026047E+02  0.76001140905E+02  0.00000000000E+00 0. -1.
</event>
<event>
 7    1  0.2384639E-009  0.1016153E+03  0.7561462E-02  0.1276936E+00
         -3   -1    0    0    0  501 -0.00000000000E+00  0.00000000000E+00  0.27454844000E+03  0.27454844000E+03  0.00000000000E+00 0.  1.
          3   -1    0    0  501    0  0.00000000000E+00 -0.00000000000E+00 -0.49056470824E+02  0.49056470824E+02  0.00000000000E+00 0. -1.
         25    2    1    2    0    0 -0.92662585549E+01  0.11812559740E+02  0.18253252470E+03  0.22179777934E+03  0.12510288658E+03 0.  0.
          5    1    3    3  502    0 -0.30495302225E+02  0.56222500436E+02  0.14869003023E+03  0.16191704822E+03  0.41800000000E+01 0. -1.
         -5    1    3    3    0  502  0.21229043670E+02 -0.44409940695E+02  0.33842494469E+02  0.59880731121E+02  0.41800000000E+01 0. -1.
        -11    1    1    2    0    0 -0.28361967389E+02  0.24472103090E+02  0.29893299993E+02  0.47925926264E+02  0.00000000000E+00 0.  1.
         11    1    1    2    0    0  0.37628225944E+02 -0.36284662830E+02  0.13066144479E+02  0.53881205219E+02  0.00000000000E+00 0. -1.
</event>
<event>
 7    1  0.2809199E-009  0.2351704E+03  0.7561462E-02  0.1123053E+00
          2   -1    0    0  501    0  0.00000000000E+00  0.00000000000E+00  0.22389452447E+04  0.22389452447E+04  0.00000000000E+00 0. -1.
         -2   -1    0    0    0  501 -0.00000000000E+00 -0.00000000000E+00 -0.25656953055E+02  0.25656953055E+02  0.00000000000E+00 0.  1.
         25    2    1    2    0    0  0.21182312739E+03 -0.25684195988E+02  0.11981304143E+04  0.12233941300E+04  0.12509193620E+03 0.  0.
          5    1    3    3  502    0  0.10255502032E+02 -0.39430989961E+02  0.30180832094E+03  0.30457464320E+03  0.41800000000E+01 0. -1.
         -5    1    3    3    0  502  0.20156762535E+03  0.13746793974E+02  0.89632209333E+03  0.91881948681E+03  0.41800000000E+01 0. -1.
        -11    1    1    2    0    0 -0.10268297634E+03 -0.26914033024E+02  0.37739869381E+03  0.39204327936E+03  0.00000000000E+00 0.  1.
         11    1    1    2    0    0 -0.10914015105E+03  0.52598229011E+02  0.63775918356E+03  0.64916478839E+03  0.00000000000E+00 0. -1.
</event>
<event>
 7    1  0.2384639E-009  0.1161441E+03  0.7561462E-02  0.1249597E+00
         -2   -1    0    0    0  501 -0.00000000000E+00  0.00000000000E+00  0.31109191148E+03  0.31109191148E+03  0.00000000000E+00 0.  1.
          2   -1    0    0  501    0  0.00000000000E+00 -0.00000000000E+00 -0.61658993573E+02  0.61658993573E+02  0.00000000000E+00 0. -1.
         25    2    1    2    0    0 -0.39307529859E+02 -0.74203401449E+02  0.11190609335E+03  0.18767627798E+03  0.12509270521E+03 0.  0.
          5    1    3    3  502    0 -0.78672410712E+02 -0.74895832996E+02  0.95942916581E+02  0.14498706718E+03  0.41800000000E+01 0. -1.
         -5    1    3    3    0  502  0.39364880854E+02  0.69243154663E+00  0.15963176769E+02  0.42689210799E+02  0.41800000000E+01 0. -1.
        -11    1    1    2    0    0  0.11038352069E+02  0.22724158345E+02 -0.93131466573E+01  0.26925216611E+02  0.00000000000E+00 0. -1.
         11    1    1    2    0    0  0.28269177789E+02  0.51479243104E+02  0.14683997122E+03  0.15814941046E+03  0.00000000000E+00 0.  1.
</event>
<event>
 7    1  0.2384639E-009  0.3665736E+03  0.7561462E-02  0.1056011E+00
         -1   -1    0    0    0  501 -0.00000000000E+00  0.00000000000E+00  0.39124615149E+03  0.39124615149E+03  0.00000000000E+00 0.  1.
          1   -1    0    0  501    0  0.00000000000E+00 -0.00000000000E+00 -0.35220075375E+03  0.35220075375E+03  0.00000000000E+00 0. -1.
         25    2    1    2    0    0  0.15743336568E+03  0.31609987151E+03 -0.14041231646E+02  0.37489793313E+03  0.12508761201E+03 0.  0.
          5    1    3    3  502    0 -0.74813718046E+01  0.11133274826E+03 -0.23923168090E+01  0.11168772242E+03  0.41800000000E+01 0.  1.
         -5    1    3    3    0  502  0.16491473749E+03  0.20476712325E+03 -0.11648914837E+02  0.26321021071E+03  0.41800000000E+01 0.  1.
        -11    1    1    2    0    0 -0.76835616096E+02 -0.22043209068E+03  0.66531258439E+02  0.24273530203E+03  0.00000000000E+00 0.  1.
         11    1    1    2    0    0 -0.80597749584E+02 -0.95667780838E+02 -0.13444629061E+02  0.12581367008E+03  0.00000000000E+00 0. -1.
</event>
<event>
 7    1  0.2384639E-009  0.7241338E+02  0.7561462E-02  0.1352073E+00
         -2   -1    0    0    0  501 -0.00000000000E+00  0.00000000000E+00  0.17050712728E+03  0.17050712728E+03  0.00000000000E+00 0.  1.
          2   -1    0    0  501    0  0.00000000000E+00 -0.00000000000E+00 -0.82371723162E+02  0.82371723162E+02  0.00000000000E+00 0. -1.
         25    2    1    2    0    0 -0.29774845589E+02  0.33503547219E+02  0.64792231085E+02  0.14783061258E+03  0.12508728033E+03 0.  0.
          5    1    3    3  502    0  0.54007337491E+01  0.18553812987E+02 -0.35382051773E+02  0.40531147146E+02  0.41800000000E+01 0. -1.
         -5    1    3    3    0  502 -0.35175579338E+02  0.14949734233E+02  0.10017428286E+03  0.10729946543E+03  0.41800000000E+01 0. -1.
        -11    1    1    2    0    0  0.18966227413E+02 -0.57361283900E+02  0.41396418437E+02  0.73237272835E+02  0.00000000000E+00 0.  1.
         11    1    1    2    0    0  0.10808618175E+02  0.23857736680E+02 -0.18053245406E+02  0.31810965029E+02  0.00000000000E+00 0. -1.
</event>
<event>
 7    1  0.2384639E-009  0.7563732E+02  0.7561462E-02  0.1341909E+00
          2   -1    0    0  501    0  0.00000000000E+00  0.00000000000E+00  0.76779998289E+02  0.76779998289E+02  0.00000000000E+00 0. -1.
         -2   -1    0    0    0  501 -0.00000000000E+00 -0.00000000000E+00 -0.25578519166E+03  0.25578519166E+03  0.00000000000E+00 0.  1.
         25    2    1    2    0    0  0.28072110142E+02  0.41644764042E+02 -0.16019687317E+02  0.13573030301E+03  0.12507499764E+03 0.  0.
          5    1    3    3  502    0 -0.64937703106E+01  0.16230212269E+02 -0.66768187818E+02  0.69145152741E+02  0.41800000000E+01 0.  1.
         -5    1    3    3    0  502  0.34565880453E+02  0.25414551774E+02  0.50748500501E+02  0.66585150270E+02  0.41800000000E+01 0.  1.
        -11    1    1    2    0    0 -0.42959648398E+02  0.30670573737E+01 -0.13572148873E+03  0.14239122422E+03  0.00000000000E+00 0.  1.
         11    1    1    2    0    0  0.14887538255E+02 -0.44711821416E+02 -0.27264017327E+02  0.54443662721E+02  0.00000000000E+00 0. -1.
</event>
<event>
 7    1  0.2384639E-009  0.1905147E+03  0.7561462E-02  0.1157998E+00
         -1   -1    0    0    0  501 -0.00000000000E+00  0.00000000000E+00  0.19213175641E+03  0.19213175641E+03  0.00000000000E+00 0.  1.
          1   -1    0    0  501    0  0.00000000000E+00 -0.00000000000E+00 -0.20810923816E+03  0.20810923816E+03  0.00000000000E+00 0. -1.
         25    2    1    2    0    0  0.16187873288E+03  0.32474213503E+02 -0.28249936632E+02  0.20905621979E+03  0.12508855027E+03 0.  0.
          5    1    3    3  502    0  0.21308547706E+01 -0.30177440657E+02  0.11902041016E+02  0.32777270280E+02  0.41800000000E+01 0.  1.
         -5    1    3    3    0  502  0.15974787811E+03  0.62651654160E+02 -0.40151977648E+02  0.17627894951E+03  0.41800000000E+01 0.  1.
        -11    1    1    2    0    0 -0.64587571849E+02  0.20886193690E+02  0.37271628316E+02  0.77440052954E+02  0.00000000000E+00 0.  1.
         11    1    1    2    0    0 -0.97291161034E+02 -0.53360407193E+02 -0.24999173438E+02  0.11374472183E+03  0.00000000000E+00 0. -1.
</event>
<event>
 7    1  0.2384639E-009  0.9429446E+02  0.7561462E-02  0.1292773E+00
         -2   -1    0    0    0  501 -0.00000000000E+00  0.00000000000E+00  0.38090318107E+02  0.38090318107E+02  0.00000000000E+00 0.  1.
          2   -1    0    0  501    0  0.00000000000E+00 -0.00000000000E+00 -0.45708047866E+03  0.45708047866E+03  0.00000000000E+00 0. -1.
         25    2    1    2    0    0  0.45878831490E+02 -0.53162472570E+02 -0.17535810807E+03  0.22656177336E+03  0.12509458588E+03 0.  0.
          5    1    3    3  502    0  0.33183362355E+02 -0.17682050190E+02  0.85499673131E+01  0.38786141561E+02  0.41800000000E+01 0. -1.
         -5    1    3    3    0  502  0.12695469135E+02 -0.35480422380E+02 -0.18390807538E+03  0.18777563180E+03  0.41800000000E+01 0. -1.
        -11    1    1    2    0    0 -0.50101146382E+02 -0.86872467689E+01 -0.10062694180E+03  0.11274473177E+03  0.00000000000E+00 0.  1.
         11    1    1    2    0    0  0.42223148915E+01  0.61849719339E+02 -0.14300511068E+03  0.15586429163E+03  0.00000000000E+00 0. -1.
</event>
<event>
 7    1  0.2384639E-009  0.8133078E+02  0.7561462E-02  0.1325317E+00
         -1   -1    0    0    0  501 -0.00000000000E+00  0.00000000000E+00  0.97370695663E+02  0.97370695663E+02  0.00000000000E+00 0.  1.
          1   -1    0    0  501    0  0.00000000000E+00 -0.00000000000E+00 -0.13666415166E+03  0.13666415166E+03  0.00000000000E+00 0. -1.
         25    2    1    2    0    0 -0.35463470797E+02 -0.12415779697E+02 -0.84434261262E+01  0.13088330585E+03  0.12508932392E+03 0.  0.
          5    1    3    3  502    0  0.21509778107E+01 -0.40304106307E+02  0.44404104509E+02  0.60151846089E+02  0.41800000000E+01 0.  1.
         -5    1    3    3    0  502 -0.37614448607E+02  0.27888326610E+02 -0.52847530635E+02  0.70731459757E+02  0.41800000000E+01 0.  1.
        -11    1    1    2    0    0  0.54747613530E+02  0.87212374272E+01  0.11367534187E+02  0.56591359791E+02  0.00000000000E+00 0.  1.
         11    1    1    2    0    0 -0.19284142733E+02  0.36945422696E+01 -0.42217564062E+02  0.46560181689E+02  0.00000000000E+00 0. -1.
</event>
<event>
 7    1  0.2384639E-009  0.1056163E+03  0.7561462E-02  0.1268910E+00
         -1   -1    0    0    0  501 -0.00000000000E+00  0.00000000000E+00  0.95398677947E+02  0.95398677947E+02  0.00000000000E+00 0.  1.
          1   -1    0    0  501    0  0.00000000000E+00 -0.00000000000E+00 -0.20458683049E+03  0.20458683049E+03  0.00000000000E+00 0. -1.
         25    2    1    2    0    0 -0.70997846781E+02  0.50130296884E+02 -0.63685574737E+02  0.16510236200E+03  0.12509674895E+03 0.  0.
          5    1    3    3  502    0  0.50442372067E+01  0.39877705124E+02  0.25184047509E+02  0.47617059379E+02  0.41800000000E+01 0.  1.
         -5    1    3    3    0  502 -0.76042083988E+02  0.10252591760E+02 -0.88869622246E+02  0.11748530263E+03  0.41800000000E+01 0.  1.
        -11    1    1    2    0    0  0.60569486941E+02 -0.55583698201E+02  0.56423897584E+01  0.82401740371E+02  0.00000000000E+00 0.  1.
         11    1    1    2    0    0  0.10428359840E+02  0.54534013173E+01 -0.51144967568E+02  0.52481406063E+02  0.00000000000E+00 0. -1.
</event>
<event>
 7    1  0.2713373E-009  0.1936890E+03  0.7561462E-02  0.1155176E+00
          2   -1    0    0  501    0  0.00000000000E+00  0.00000000000E+00  0.12757012378E+04  0.12757012378E+04  0.00000000000E+00 0. -1.
         -2   -1    0    0    0  501 -0.00000000000E+00 -0.00000000000E+00 -0.34385633856E+02  0.34385633856E+02  0.00000000000E+00 0.  1.
         25    2    1    2    0    0  0.13344181680E+03 -0.10783983357E+03  0.48959938633E+03  0.53365949223E+03  0.12509494945E+03 0.  0.
          5    1    3    3  502    0 -0.63126352535E+01 -0.35540402513E+02  0.20714030349E+03  0.21030346480E+03  0.41800000000E+01 0. -1.
         -5    1    3    3    0  502  0.13975445205E+03 -0.72299431055E+02  0.28245908284E+03  0.32335602743E+03  0.41800000000E+01 0. -1.
        -11    1    1    2    0    0 -0.70502339888E+02  0.20414274893E+01  0.30597301257E+03  0.31399718435E+03  0.00000000000E+00 0. -1.
         11    1    1    2    0    0 -0.62939476910E+02  0.10579840608E+03  0.44574320509E+03  0.46243019512E+03  0.00000000000E+00 0.  1.
</event>
<event>
 7    1  0.2384639E-009  0.2364257E+03  0.7561462E-02  0.1122197E+00
          2   -1    0    0  501    0  0.00000000000E+00  0.00000000000E+00  0.89579376828E+03  0.89579376828E+03  0.00000000000E+00 0. -1.
         -2   -1    0    0    0  501 -0.00000000000E+00 -0.00000000000E+00 -0.82722147905E+02  0.82722147905E+02  0.00000000000E+00 0.  1.
         25    2    1    2    0    0 -0.22535888374E+03  0.24514057976E+02  0.23775037254E+03  0.35151266761E+03  0.12509336645E+03 0.  0.
          5    1    3    3  502    0 -0.13329259005E+03 -0.16192107431E+02  0.59855423751E+02  0.14706883782E+03  0.41800000000E+01 0.  1.
         -5    1    3    3    0  502 -0.92066293692E+02  0.40706165407E+02  0.17789494878E+03  0.20444382979E+03  0.41800000000E+01 0.  1.
        -11    1    1    2    0    0  0.15891814884E+03  0.16357722703E+02  0.46660925160E+03  0.49320051379E+03  0.00000000000E+00 0. -1.
         11    1    1    2    0    0  0.66440734902E+02 -0.40871780679E+02  0.10871199625E+03  0.13380273479E+03  0.00000000000E+00 0.  1.
</event>
<event>
 7    1  0.2384639E-009  0.1096324E+03  0.7561462E-02  0.1261252E+00
         -2   -1    0    0    0  501 -0.00000000000E+00  0.00000000000E+00  0.29714038270E+02  0.29714038270E+02  0.00000000000E+00 0. -1.
          2   -1    0    0  501    0  0.00000000000E+00 -0.00000000000E+00 -0.50236575551E+03  0.50236575551E+03  0.00000000000E+00 0.  1.
         25    2    1    2    0    0  0.36339260071E+02 -0.84982861477E+00 -0.17802334382E+03  0.22059522459E+03  0.12509467668E+03 0.  0.
          5    1    3    3  502    0  0.45347010815E+02 -0.56974635810E+02 -0.92038675007E+02  0.11743530394E+03  0.41800000000E+01 0.  1.
         -5    1    3    3    0  502 -0.90077507443E+01  0.56124807195E+02 -0.85984668817E+02  0.10315992065E+03  0.41800000000E+01 0.  1.
        -11    1    1    2    0    0 -0.62458727663E+02  0.58657774261E+01 -0.26191698285E+03  0.26932509336E+03  0.00000000000E+00 0.  1.
         11    1    1    2    0    0  0.26119467592E+02 -0.50159488113E+01 -0.32711390568E+02  0.42159475835E+02  0.00000000000E+00 0. -1.
</event>
<event>
 7    1  0.2384639E-009  0.1133423E+03  0.7561462E-02  0.1254503E+00
         -1   -1    0    0    0  501 -0.00000000000E+00  0.00000000000E+00  0.27208986302E+03  0.27208986302E+03  0.00000000000E+00 0.  1.
          1   -1    0    0  501    0  0.00000000000E+00 -0.00000000000E+00 -0.61667304432E+02  0.61667304432E+02  0.00000000000E+00 0. -1.
         25    2    1    2    0    0  0.57553645223E+02 -0.48364858262E+02  0.13055284542E+03  0.19581591071E+03  0.12509294084E+03 0.  0.
          5    1    3    3  502    0  0.54660762495E+02  0.27472905648E+02  0.26117379652E+02  0.66649451770E+02  0.41800000000E+01 0.  1.
         -5    1    3    3    0  502  0.28928827276E+01 -0.75837763910E+02  0.10443546577E+03  0.12916645894E+03  0.41800000000E+01 0.  1.
        -11    1    1    2    0    0 -0.31379594708E+02  0.54119121807E+02  0.89730816382E+02  0.10938545478E+03  0.00000000000E+00 0.  1.
         11    1    1    2    0    0 -0.26174050514E+02 -0.57542635450E+01 -0.98611032103E+01  0.28555801964E+02  0.00000000000E+00 0. -1.
</event>
<event>
 7    1  0.2384639E-009  0.1333447E+03  0.7561462E-02  0.1222575E+00
         -2   -1    0    0    0  501 -0.00000000000E+00  0.00000000000E+00  0.50608523189E+02  0.50608523189E+02  0.00000000000E+00 0.  1.
          2   -1    0    0  501    0  0.00000000000E+00 -0.00000000000E+00 -0.42169593619E+03  0.42169593619E+03  0.00000000000E+00 0. -1.
         25    2    1    2    0    0  0.85488131071E+02  0.42076518513E+02 -0.16064040366E+03  0.22479226675E+03  0.12509024717E+03 0.  0.
          5    1    3    3  502    0 -0.15237323682E+02  0.50944645554E+02 -0.76068352385E+02  0.92905325887E+02  0.41800000000E+01 0. -1.
         -5    1    3    3    0  502  0.10072545475E+03 -0.88681270408E+01 -0.84572051279E+02  0.13188694086E+03  0.41800000000E+01 0. -1.
        -11    1    1    2    0    0  0.72642570284E+01 -0.13094597150E+02  0.79006204571E+00  0.14995402720E+02  0.00000000000E+00 0.  1.
         11    1    1    2    0    0 -0.92752388099E+02 -0.28981921363E+02 -0.21123707138E+03  0.23251678991E+03  0.00000000000E+00 0. -1.
</event>
<event>
 7    1  0.2384639E-009  0.3065649E+03  0.7561462E-02  0.1082004E+00
         -2   -1    0    0    0  501 -0.00000000000E+00  0.00000000000E+00  0.50634144233E+02  0.50634144233E+02  0.00000000000E+00 0.  1.
          2   -1    0    0  501    0  0.00000000000E+00 -0.00000000000E+00 -0.19377883688E+04  0.19377883688E+04  0.00000000000E+00 0. -1.
         25    2    1    2    0    0  0.28897751713E+03  0.50649547922E+02 -0.10946079138E+04  0.11401264262E+04  0.12509356766E+03 0.  0.
          5    1    3    3  502    0  0.11570360216E+03 -0.40848557646E+02 -0.43993645695E+03  0.45674663301E+03  0.41800000000E+01 0.  1.
         -5    1    3    3    0  502  0.17327391498E+03  0.91498105568E+02 -0.65467145681E+03  0.68337979316E+03  0.41800000000E+01 0.  1.
        -11    1    1    2    0    0 -0.66992147256E+02 -0.22132810550E+02 -0.28484276127E+03  0.29345052009E+03  0.00000000000E+00 0.  1.
         11    1    1    2    0    0 -0.22198536988E+03 -0.28516737372E+02 -0.50770354955E+03  0.55484556678E+03  0.00000000000E+00 0. -1.
</event>
<event>
 7    1  0.2384639E-009  0.2427835E+03  0.7561462E-02  0.1117952E+00
         -2   -1    0    0    0  501 -0.00000000000E+00  0.00000000000E+00  0.27663507338E+03  0.27663507338E+03  0.00000000000E+00 0.  1.
          2   -1    0    0  501    0  0.00000000000E+00 -0.00000000000E+00 -0.25776889284E+03  0.25776889284E+03  0.00000000000E+00 0. -1.
         25    2    1    2    0    0  0.11883990230E+03 -0.19491811666E+03  0.95353823207E+02  0.27722955564E+03  0.12509148788E+03 0.  0.
          5    1    3    3  502    0 -0.19702480594E+02 -0.22168850333E+02 -0.10518107568E+02  0.31745057150E+02  0.41800000000E+01 0. -1.
         -5    1    3    3    0  502  0.13854238289E+03 -0.17274926633E+03  0.10587193078E+03  0.24548449849E+03  0.41800000000E+01 0. -1.
        -11    1    1    2    0    0 -0.95770857627E+02  0.10864566129E+03 -0.87636572334E+01  0.14509561873E+03  0.00000000000E+00 0.  1.
         11    1    1    2    0    0 -0.23069044670E+02  0.86272455377E+02 -0.67723985437E+02  0.11207879185E+03  0.00000000000E+00 0. -1.
</event>
<event>
 7    1  0.2384639E-009  0.3337904E+03  0.7561462E-02  0.1069472E+00
          2   -1    0    0  501    0  0.00000000000E+00  0.00000000000E+00  0.52158424691E+03  0.52158424691E+03  0.00000000000E+00 0.  1.
         -2   -1    0    0    0  501 -0.00000000000E+00 -0.00000000000E+00 -0.24017818225E+03  0.24017818225E+03  0.00000000000E+00 0. -1.
         25    2    1    2    0    0  0.29215282185E+03 -0.14853914238E+03  0.60015558321E+02  0.35590161882E+03  0.12508775682E+03 0.  0.
          5    1    3    3  502    0  0.11037302716E+03 -0.53048543093E+02  0.84830949642E+02  0.14903058568E+03  0.41800000000E+01 0. -1.
         -5    1    3    3    0  502  0.18177979469E+03 -0.95490599282E+02 -0.24815391321E+02  0.20687103315E+03  0.41800000000E+01 0. -1.
        -11    1    1    2    0    0 -0.24573678032E+03  0.15820730091E+03  0.19780256712E+03  0.35290504505E+03  0.00000000000E+00 0.  1.
         11    1    1    2    0    0 -0.46416041531E+02 -0.96681585308E+01  0.23587939217E+02  0.52955765288E+02  0.00000000000E+00 0. -1.
</event>
<event>
 7    1  0.2384639E-009  0.1421638E+03  0.7561462E-02  0.1210447E+00
          2   -1    0    0  501    0  0.00000000000E+00  0.00000000000E+00  0.77999388192E+03  0.77999388192E+03  0.00000000000E+00 0. -1.
         -2   -1    0    0    0  501 -0.00000000000E+00 -0.00000000000E+00 -0.50683473444E+02  0.50683473444E+02  0.00000000000E+00 0.  1.
         25    2    1    2    0    0  0.23358924758E+02  0.92219349064E+02  0.64065297734E+03  0.65964910217E+03  0.12510256957E+03 0.  0.
          5    1    3    3  502    0  0.69235628349E+02  0.50266497524E+02  0.25520394310E+03  0.26919661584E+03  0.41800000000E+01 0.  1.
         -5    1    3    3    0  502 -0.45876703592E+02  0.41952851540E+02  0.38544903424E+03  0.39045248633E+03  0.41800000000E+01 0.  1.
        -11    1    1    2    0    0 -0.25304801131E+02 -0.11284245921E+03  0.94676268932E+02  0.14945684816E+03  0.00000000000E+00 0.  1.
         11    1    1    2    0    0  0.19458763736E+01  0.20623110150E+02 -0.60188377904E+01  0.21571405042E+02  0.00000000000E+00 0. -1.
</event>
<event>
 7    1  0.2384639E-009  0.1277874E+03  0.7561462E-02  0.1230776E+00
         -1   -1    0    0    0  501 -0.00000000000E+00  0.00000000000E+00  0.28321917280E+03  0.28321917280E+03  0.00000000000E+00 0.  1.
          1   -1    0    0  501    0  0.00000000000E+00 -0.00000000000E+00 -0.59321656572E+02  0.59321656572E+02  0.00000000000E+00 0. -1.
         25    2    1    2    0    0 -0.59796385181E+02 -0.33743979068E+02  0.15006473962E+03  0.20708009275E+03  0.12509386447E+03 0.  0.
          5    1    3    3  502    0 -0.10421948073E+02  0.46529061248E+02  0.42508711797E+02  0.64015884911E+02  0.41800000000E+01 0.  1.
         -5    1    3    3    0  502 -0.49374437108E+02 -0.80273040316E+02  0.10755602783E+03  0.14306420783E+03  0.41800000000E+01 0.  1.
        -11    1    1    2    0    0  0.18860787029E+01 -0.28381770210E+02  0.15138044220E+02  0.32221771459E+02  0.00000000000E+00 0.  1.
         11    1    1    2    0    0  0.57910306478E+02  0.62125749278E+02  0.58694732388E+02  0.10323896517E+03  0.00000000000E+00 0. -1.
</event>
<event>
 7    1  0.2384639E-009  0.9325456E+02  0.7561462E-02  0.1295156E+00
         -1   -1    0    0    0  501 -0.00000000000E+00  0.00000000000E+00  0.11764799109E+03  0.11764799109E+03  0.00000000000E+00 0. -1.
          1   -1    0    0  501    0  0.00000000000E+00 -0.00000000000E+00 -0.12513428752E+03  0.12513428752E+03  0.00000000000E+00 0.  1.
         25    2    1    2    0    0  0.14317570681E+02 -0.22366855645E+02  0.32582235797E+02  0.13196168017E+03  0.12508802454E+03 0.  0.
          5    1    3    3  502    0 -0.24314110189E+02 -0.58984533157E+02 -0.86275354206E+01  0.64515563033E+02  0.41800000000E+01 0.  1.
         -5    1    3    3    0  502  0.38631680870E+02  0.36617677512E+02  0.41209771218E+02  0.67446117139E+02  0.41800000000E+01 0.  1.
        -11    1    1    2    0    0 -0.38726715161E+02  0.46185274905E+01 -0.62185900162E+02  0.73404192267E+02  0.00000000000E+00 0.  1.
         11    1    1    2    0    0  0.24409144480E+02  0.17748328155E+02  0.22117367932E+02  0.37416406171E+02  0.00000000000E+00 0. -1.
</event>
<event>
 7    1  0.2384639E-009  0.1292399E+03  0.7561462E-02  0.1228588E+00
         -1   -1    0    0    0  501 -0.00000000000E+00  0.00000000000E+00  0.50300827901E+02  0.50300827901E+02  0.00000000000E+00 0.  1.
          1   -1    0    0  501    0  0.00000000000E+00 -0.00000000000E+00 -0.39575773898E+03  0.39575773898E+03  0.00000000000E+00 0. -1.
         25    2    1    2    0    0  0.48597114890E+02  0.72551253731E+02 -0.20315780298E+03  0.25405747069E+03  0.12508693581E+03 0.  0.
          5    1    3    3  502    0 -0.31242520472E+02  0.93564530420E+01 -0.11401781452E+03  0.11866411727E+03  0.41800000000E+01 0. -1.
         -5    1    3    3    0  502  0.79839635362E+02  0.63194800688E+02 -0.89139988460E+02  0.13539335342E+03  0.41800000000E+01 0. -1.
        -11    1    1    2    0    0  0.15729838771E+02 -0.54722957195E+02 -0.39012713046E+02  0.69021892549E+02  0.00000000000E+00 0.  1.
         11    1    1    2    0    0 -0.64326953661E+02 -0.17828296536E+02 -0.10328639505E+03  0.12297920364E+03  0.00000000000E+00 0. -1.
</event>
<event>
 7    1  0.2384639E-009  0.1535038E+03  0.7561462E-02  0.1196232E+00
          1   -1    0    0  501    0  0.00000000000E+00  0.00000000000E+00  0.38577285190E+02  0.38577285190E+02  0.00000000000E+00 0. -1.
         -1   -1    0    0    0  501 -0.00000000000E+00 -0.00000000000E+00 -0.64841771127E+03  0.64841771127E+03  0.00000000000E+00 0.  1.
         25    2    1    2    0    0  0.27555604702E+02 -0.10505003997E+03 -0.39481699212E+03  0.42816374285E+03  0.12509560814E+03 0.  0.
          5    1    3    3  502    0 -0.40370174232E+02 -0.11857437976E+01 -0.11742667312E+03  0.12424835177E+03  0.41800000000E+01 0. -1.
         -5    1    3    3    0  502  0.67925778933E+02 -0.10386429617E+03 -0.27739031899E+03  0.30391539108E+03  0.41800000000E+01 0. -1.
        -11    1    1    2    0    0 -0.18095621768E+02 -0.13953969112E+02 -0.51743838620E+02  0.56564915065E+02  0.00000000000E+00 0.  1.
         11    1    1    2    0    0 -0.94599829339E+01  0.11900400908E+03 -0.16327959534E+03  0.20226633855E+03  0.00000000000E+00 0. -1.
</event>
<event>
 7    1  0.2384639E-009  0.1647875E+03  0.7561462E-02  0.1183395E+00
          1   -1    0    0  501    0  0.00000000000E+00  0.00000000000E+00  0.33572103151E+03  0.33572103151E+03  0.00000000000E+00 0. -1.
         -1   -1    0    0    0  501 -0.00000000000E+00 -0.00000000000E+00 -0.12099783328E+03  0.12099783328E+03  0.00000000000E+00 0.  1.
         25    2    1    2    0    0  0.89828950237E+02 -0.13071929230E+03  0.18118032302E+03  0.27135159806E+03  0.12509439091E+03 0.  0.
          5    1    3    3  502    0  0.49578168075E+02 -0.47338514177E+02  0.16303637465E+03  0.17691032060E+03  0.41800000000E+01 0.  1.
         -5    1    3    3    0  502  0.40250782162E+02 -0.83380778127E+02  0.18143948365E+02  0.94441277458E+02  0.41800000000E+01 0.  1.
        -11    1    1    2    0    0 -0.29551284112E+02  0.91866725497E+02 -0.16521342900E+02  0.97906733258E+02  0.00000000000E+00 0. -1.
         11    1    1    2    0    0 -0.60277666125E+02  0.38852566807E+02  0.50064218108E+02  0.87460533475E+02  0.00000000000E+00 0.  1.
</event>
<event>
 7    1  0.2384639E-009  0.9695751E+02  0.7561462E-02  0.1286827E+00
         -2   -1    0    0    0  501 -0.00000000000E+00  0.00000000000E+00  0.33526963883E+02  0.33526963883E+02  0.00000000000E+00 0.  1.
          2   -1    0    0  501    0  0.00000000000E+00 -0.00000000000E+00 -0.44077283787E+03  0.44077283787E+03  0.00000000000E+00 0. -1.
         25    2    1    2    0    0 -0.40641802549E+02 -0.37176979521E+02 -0.19930356860E+03  0.24166830062E+03  0.12509105144E+03 0.  0.
          5    1    3    3  502    0 -0.19882558360E+02 -0.82606163062E+02 -0.14205828451E+03  0.16558116711E+03  0.41800000000E+01 0.  1.
         -5    1    3    3    0  502 -0.20759244189E+02  0.45429183540E+02 -0.57245284089E+02  0.76087133517E+02  0.41800000000E+01 0.  1.
        -11    1    1    2    0    0  0.18028148817E+02  0.38252244473E+01  0.22909729200E+01  0.18571350214E+02  0.00000000000E+00 0.  1.
         11    1    1    2    0    0  0.22613653732E+02  0.33351755074E+02 -0.21023327831E+03  0.21406015092E+03  0.00000000000E+00 0. -1.
</event>
<event>
 7    1  0.2384639E-009  0.1487862E+03  0.7561462E-02  0.1201973E+00
          2   -1    0    0  501    0  0.00000000000E+00  0.00000000000E+00  0.20348961781E+03  0.20348961781E+03  0.00000000000E+00 0. -1.
         -2   -1    0    0    0  501 -0.00000000000E+00 -0.00000000000E+00 -0.15483388319E+03  0.15483388319E+03  0.00000000000E+00 0.  1.
         25    2    1    2    0    0  0.12900547299E+03  0.53962309090E+02  0.59009136809E+02  0.19668279190E+03  0.12509076521E+03 0.  0.
          5    1    3    3  502    0  0.10882401607E+03  0.37328261216E+02  0.96884163717E+02  0.15046620597E+03  0.41800000000E+01 0.  1.
         -5    1    3    3    0  502  0.20181456915E+02  0.16634047875E+02 -0.37875026908E+02  0.46216585932E+02  0.41800000000E+01 0.  1.
        -11    1    1    2    0    0 -0.22282323798E+02  0.16805279609E+02  0.14106119550E+02  0.31271424421E+02  0.00000000000E+00 0. -1.
         11    1    1    2    0    0 -0.10672314919E+03 -0.70767588699E+02 -0.24459521747E+02  0.13036928468E+03  0.00000000000E+00 0.  1.
</event>
<event>
 7    1  0.2384639E-009  0.1185533E+03  0.7561462E-02  0.1245503E+00
         -2   -1    0    0    0  501 -0.00000000000E+00  0.00000000000E+00  0.76225318247E+02  0.76225318247E+02  0.00000000000E+00 0. -1.
          2   -1    0    0  501    0  0.00000000000E+00 -0.00000000000E+00 -0.50351915415E+03  0.50351915415E+03  0.00000000000E+00 0.  1.
         25    2    1    2    0    0  0.25875940124E+02  0.90664140442E+02 -0.42009178355E+03  0.44834803997E+03  0.12509719300E+03 0.  0.
          5    1    3    3  502    0 -0.19204063031E+02  0.87435973079E+02 -0.15208660895E+03  0.17652663948E+03  0.41800000000E+01 0. -1.
         -5    1    3    3    0  502  0.45080003155E+02  0.32281673623E+01 -0.26800517460E+03  0.27182140049E+03  0.41800000000E+01 0. -1.
        -11    1    1    2    0    0 -0.11036149384E+02 -0.85009958906E+00 -0.34602941890E+02  0.36330191990E+02  0.00000000000E+00 0.  1.
         11    1    1    2    0    0 -0.14839790740E+02 -0.89814040852E+02  0.27400889540E+02  0.95066240438E+02  0.00000000000E+00 0. -1.
</event>
<event>
 7    1  0.2384639E-009  0.9615756E+02  0.7561462E-02  0.1288590E+00
          1   -1    0    0  501    0  0.00000000000E+00  0.00000000000E+00  0.52612817403E+02  0.52612817403E+02  0.00000000000E+00 0. -1.
         -1   -1    0    0    0  501 -0.00000000000E+00 -0.00000000000E+00 -0.27770368356E+03  0.27770368356E+03  0.00000000000E+00 0.  1.
         25    2    1    2    0    0  0.73159218935E+00 -0.54695808305E+02 -0.11434485020E+03  0.17808903718E+03  0.12509513869E+03 0.  0.
          5    1    3    3  502    0  0.18299027262E+02  0.11842238132E+02  0.18188883754E+02  0.28694962884E+02  0.41800000000E+01 0. -1.
         -5    1    3    3    0  502 -0.17567435072E+02 -0.66538046438E+02 -0.13253373395E+03  0.14939407429E+03  0.41800000000E+01 0. -1.
        -11    1    1    2    0    0  0.12406721266E+02 -0.20977116011E+02 -0.44780483833E+02  0.50982917345E+02  0.00000000000E+00 0.  1.
         11    1    1    2    0    0 -0.13138313455E+02  0.75672924317E+02 -0.65965532125E+02  0.10124454644E+03  0.00000000000E+00 0. -1.
</event>
<event>
 7    1  0.2384639E-009  0.1255114E+03  0.7561462E-02  0.1234272E+00
          2   -1    0    0  501    0  0.00000000000E+00  0.00000000000E+00  0.47574166335E+03  0.47574166335E+03  0.00000000000E+00 0. -1.
         -2   -1    0    0    0  501 -0.00000000000E+00 -0.00000000000E+00 -0.44606696995E+02  0.44606696995E+02  0.00000000000E+00 0.  1.
         25    2    1    2    0    0 -0.94787368668E+02  0.25773018674E+02  0.27590028304E+03  0.31846168703E+03  0.12509191091E+03 0.  0.
          5    1    3    3  502    0 -0.93491729589E+02  0.63951890612E+02  0.15797469245E+03  0.19443256844E+03  0.41800000000E+01 0.  1.
         -5    1    3    3    0  502 -0.12956390792E+01 -0.38178871937E+02  0.11792559059E+03  0.12402911860E+03  0.41800000000E+01 0.  1.
        -11    1    1    2    0    0  0.73158836605E+02 -0.13555401701E+02  0.16012673098E+03  0.17656878055E+03  0.00000000000E+00 0. -1.
         11    1    1    2    0    0  0.21628532063E+02 -0.12217616973E+02 -0.48920476694E+01  0.25317892766E+02  0.00000000000E+00 0.  1.
</event>
<event>
 7    1  0.2384639E-009  0.1048417E+03  0.7561462E-02  0.1270432E+00
         -1   -1    0    0    0  501 -0.00000000000E+00  0.00000000000E+00  0.81232159467E+02  0.81232159467E+02  0.00000000000E+00 0.  1.
          1   -1    0    0  501    0  0.00000000000E+00 -0.00000000000E+00 -0.18737454561E+03  0.18737454561E+03  0.00000000000E+00 0. -1.
         25    2    1    2    0    0  0.15250033171E+02 -0.48100813422E+02 -0.26275584242E+02  0.13742411779E+03  0.12509488422E+03 0.  0.
          5    1    3    3  502    0 -0.46310400307E+01 -0.79384086341E+02 -0.49237512505E+02  0.93622031241E+02  0.41800000000E+01 0. -1.
         -5    1    3    3    0  502  0.19881073202E+02  0.31283272919E+02  0.22961928263E+02  0.43802086545E+02  0.41800000000E+01 0. -1.
        -11    1    1    2    0    0  0.55442571139E+01 -0.20413519224E+02  0.33345913515E+01  0.21414248844E+02  0.00000000000E+00 0.  1.
         11    1    1    2    0    0 -0.20794290285E+02  0.68514332646E+02 -0.83201393251E+02  0.10976833845E+03  0.00000000000E+00 0. -1.
</event>
<event>
 7    1  0.2384639E-009  0.1153662E+03  0.7561462E-02  0.1250943E+00
          1   -1    0    0  501    0  0.00000000000E+00  0.00000000000E+00  0.16099988718E+03  0.16099988718E+03  0.00000000000E+00 0. -1.
         -1   -1    0    0    0  501 -0.00000000000E+00 -0.00000000000E+00 -0.11616499156E+03  0.11616499156E+03  0.00000000000E+00 0.  1.
         25    2    1    2    0    0  0.72826240425E+02  0.35496175706E+02  0.15994220882E+02  0.14989465793E+03  0.12509577767E+03 0.  0.
          5    1    3    3  502    0  0.21396753356E+02  0.55196604489E+02  0.56078407028E+02  0.81650145965E+02  0.41800000000E+01 0. -1.
         -5    1    3    3    0  502  0.51429487069E+02 -0.19700428783E+02 -0.40084186146E+02  0.68244511965E+02  0.41800000000E+01 0. -1.
        -11    1    1    2    0    0 -0.78441878958E+02 -0.55036241755E+02  0.40276363641E+02  0.10394374319E+03  0.00000000000E+00 0. -1.
         11    1    1    2    0    0  0.56156385337E+01  0.19540066049E+02 -0.11435688905E+02  0.23326477618E+02  0.00000000000E+00 0.  1.
</event>
<event>
 7    1  0.2384639E-009  0.1441675E+03  0.7561462E-02  0.1207829E+00
         -1   -1    0    0    0  501 -0.00000000000E+00  0.00000000000E+00  0.25005629073E+02  0.25005629073E+02  0.00000000000E+00 0.  1.
          1   -1    0    0  501    0  0.00000000000E+00 -0.00000000000E+00 -0.84297518780E+03  0.84297518780E+03  0.00000000000E+00 0. -1.
         25    2    1    2    0    0  0.90711798129E+02  0.32659906415E+02 -0.45902522449E+03  0.48543418777E+03  0.12508754588E+03 0.  0.
          5    1    3    3  502    0  0.37715196456E+02  0.78551704321E+02 -0.27265283751E+03  0.28626883955E+03  0.41800000000E+01 0.  1.
         -5    1    3    3    0  502  0.52996601673E+02 -0.45891797906E+02 -0.18637238699E+03  0.19916534823E+03  0.41800000000E+01 0.  1.
        -11    1    1    2    0    0 -0.45310569670E+01 -0.43744028246E+02 -0.95421526337E+02  0.10506825483E+03  0.00000000000E+00 0.  1.
         11    1    1    2    0    0 -0.86180741162E+02  0.11084121831E+02 -0.26352280789E+03  0.27747837427E+03  0.00000000000E+00 0. -1.
</event>
<event>
 7    1  0.2384639E-009  0.1276473E+03  0.7561462E-02  0.1230989E+00
         -1   -1    0    0    0  501 -0.00000000000E+00  0.00000000000E+00  0.11263978192E+03  0.11263978192E+03  0.00000000000E+00 0.  1.
          1   -1    0    0  501    0  0.00000000000E+00 -0.00000000000E+00 -0.28525172304E+03  0.28525172304E+03  0.00000000000E+00 0. -1.
         25    2    1    2    0    0 -0.73155587159E+02 -0.25730600737E+02 -0.22348460616E+03  0.26759378721E+03  0.12508901636E+03 0.  0.
          5    1    3    3  502    0 -0.75171032382E+02  0.34569556746E+02 -0.15834392356E+03  0.17870648811E+03  0.41800000000E+01 0. -1.
         -5    1    3    3    0  502  0.20154452237E+01 -0.60300157482E+02 -0.65140682603E+02  0.88887299103E+02  0.41800000000E+01 0. -1.
        -11    1    1    2    0    0  0.74049243017E+02 -0.11320620253E+02  0.10749965486E+02  0.75677001739E+02  0.00000000000E+00 0. -1.
         11    1    1    2    0    0 -0.89365585839E+00  0.37051220989E+02  0.40122699561E+02  0.54620716012E+02  0.00000000000E+00 0.  1.
</event>
<event>
 7    1  0.2384639E-009  0.1613490E+03  0.7561462E-02  0.1187182E+00
          2   -1    0    0  501    0  0.00000000000E+00  0.00000000000E+00  0.26249315252E+03  0.26249315252E+03  0.00000000000E+00 0. -1.
         -2   -1    0    0    0  501 -0.00000000000E+00 -0.00000000000E+00 -0.19938957457E+03  0.19938957457E+03  0.00000000000E+00 0.  1.
         25    2    1    2    0    0 -0.14476388001E+02 -0.15910838432E+03  0.15576360711E+03  0.25580223969E+03  0.12508973084E+03 0.  0.
          5    1    3    3  502    0  0.94581240039E+01 -0.55720327863E+02  0.13659091054E+03  0.14788089900E+03  0.41800000000E+01 0.  1.
         -5    1    3    3    0  502 -0.23934512005E+02 -0.10338805645E+03  0.19172696563E+02  0.10792134069E+03  0.41800000000E+01 0.  1.
        -11    1    1    2    0    0  0.67080368939E+01  0.96540205834E+02 -0.10395634570E+03  0.14202792300E+03  0.00000000000E+00 0.  1.
         11    1    1    2    0    0  0.77683511070E+01  0.62568178485E+02  0.11296316551E+02  0.64052564394E+02  0.00000000000E+00 0. -1.
</event>
<event>
 7    1  0.2384639E-009  0.1156201E+03  0.7561462E-02  0.1250502E+00
         -1   -1    0    0    0  501 -0.00000000000E+00  0.00000000000E+00  0.35579737189E+02  0.35579737189E+02  0.00000000000E+00 0.  1.
          1   -1    0    0  501    0  0.00000000000E+00 -0.00000000000E+00 -0.84620680236E+03  0.84620680236E+03  0.00000000000E+00 0. -1.
         25    2    1    2    0    0 -0.49348125899E+02 -0.16068837866E+02 -0.74796564983E+03  0.76012631105E+03  0.12508377326E+03 0.  0.
          5    1    3    3  502    0 -0.16410469939E+02  0.52457987304E+02 -0.22543951751E+03  0.23208100398E+03  0.41800000000E+01 0.  1.
         -5    1    3    3    0  502 -0.32937655961E+02 -0.68526825170E+02 -0.52252613233E+03  0.52804530707E+03  0.41800000000E+01 0.  1.
        -11    1    1    2    0    0  0.33187198816E+02 -0.33907442526E+02 -0.12577205285E+02  0.49084528282E+02  0.00000000000E+00 0.  1.
         11    1    1    2    0    0  0.16160927083E+02  0.49976280392E+02 -0.50084210050E+02  0.72575700219E+02  0.00000000000E+00 0. -1.
</event>
<event>
 7    1  0.2384639E-009  0.1296515E+03  0.7561462E-02  0.1227974E+00
         -2   -1    0    0    0  501 -0.00000000000E+00  0.00000000000E+00  0.31911389233E+03  0.31911389233E+03  0.00000000000E+00 0.  1.
          2   -1    0    0  501    0  0.00000000000E+00 -0.00000000000E+00 -0.58653644870E+02  0.58653644870E+02  0.00000000000E+00 0. -1.
         25    2    1    2    0    0  0.59825397883E+02 -0.53087369612E+02  0.10044689970E+03  0.17926100385E+03  0.12509029058E+03 0.  0.
          5    1    3    3  502    0  0.54896122760E+02 -0.89561381110E+02  0.95238581444E+02  0.14185445032E+03  0.41800000000E+01 0. -1.
         -5    1    3    3    0  502  0.49292751228E+01  0.36474011498E+02  0.52083182598E+01  0.37406553531E+02  0.41800000000E+01 0. -1.
        -11    1    1    2    0    0 -0.24688745160E+02 -0.22735479509E+02  0.39172623650E+02  0.51584208918E+02  0.00000000000E+00 0.  1.
         11    1    1    2    0    0 -0.35136652723E+02  0.75822849122E+02  0.12084072410E+03  0.14692232443E+03  0.00000000000E+00 0. -1.
</event>
<event>
 7    1  0.2384639E-009  0.1373595E+03  0.7561462E-02  0.1216927E+00
          4   -1    0    0  501    0  0.00000000000E+00  0.00000000000E+00  0.13240077553E+03  0.13240077553E+03  0.00000000000E+00 0. -1.
         -4   -1    0    0    0  501 -0.00000000000E+00 -0.00000000000E+00 -0.22962072751E+03  0.22962072751E+03  0.00000000000E+00 0.  1.
         25    2    1    2    0    0 -0.91169082829E+02  0.13187867149E+02  0.54035907600E+02  0.16447881853E+03  0.12509069083E+03 0.  0.
          5    1    3    3  502    0 -0.12192233766E+03  0.99195565054E+00  0.42977054498E+02  0.12934658871E+03  0.41800000000E+01 0.  1.
         -5    1    3    3    0  502  0.30753254836E+02  0.12195911498E+02  0.11058853102E+02  0.35132229821E+02  0.41800000000E+01 0.  1.
        -11    1    1    2    0    0  0.15474572079E+02 -0.36932510358E+02 -0.85834494537E+02  0.94715538085E+02  0.00000000000E+00 0.  1.
         11    1    1    2    0    0  0.75694510750E+02  0.23744643209E+02 -0.65421365039E+02  0.10282714643E+03  0.00000000000E+00 0. -1.
</event>
<event>
 7    1  0.2384639E-009  0.9619971E+02  0.7561462E-02  0.1288497E+00
         -2   -1    0    0    0  501 -0.00000000000E+00  0.00000000000E+00  0.63507428247E+02  0.63507428247E+02  0.00000000000E+00 0.  1.
          2   -1    0    0  501    0  0.00000000000E+00 -0.00000000000E+00 -0.30921370375E+03  0.30921370375E+03  0.00000000000E+00 0. -1.
         25    2    1    2    0    0 -0.39783541717E+01 -0.70589811844E+02 -0.20761114545E+03  0.25248237844E+03  0.12508483070E+03 0.  0.
          5    1    3    3  502    0 -0.27039922903E+02 -0.31511978845E+02 -0.18906595248E+01  0.41775701488E+02  0.41800000000E+01 0. -1.
         -5    1    3    3    0  502  0.23061568732E+02 -0.39077832999E+02 -0.20572048592E+03  0.21070667695E+03  0.41800000000E+01 0. -1.
        -11    1    1    2    0    0 -0.36943125208E+02  0.33567176959E+02  0.50783907478E+01  0.50173099583E+02  0.00000000000E+00 0.  1.
         11    1    1    2    0    0  0.40921479380E+02  0.37022634885E+02 -0.43173520807E+02  0.70065653978E+02  0.00000000000E+00 0. -1.
</event>
<event>
 7    1  0.2384639E-009  0.1418039E+03  0.7561462E-02  0.1210922E+00
         -2   -1    0    0    0  501 -0.00000000000E+00  0.00000000000E+00  0.52986957119E+02  0.52986957119E+02  0.00000000000E+00 0.  1.
          2   -1    0    0  501    0  0.00000000000E+00 -0.00000000000E+00 -0.73660741730E+03  0.73660741730E+03  0.00000000000E+00 0. -1.
         25    2    1    2    0    0  0.28616010400E+02  0.11814066499E+03 -0.13711204701E+03  0.22186335076E+03  0.12509012831E+03 0.  0.
          5    1    3    3  502    0 -0.71299471121E+01  0.10975835659E+03 -0.38587658223E+02  0.11663709853E+03  0.41800000000E+01 0. -1.
         -5    1    3    3    0  502  0.35745957512E+02  0.83823083987E+01 -0.98524388782E+02  0.10522625223E+03  0.41800000000E+01 0. -1.
        -11    1    1    2    0    0 -0.46435621912E+02 -0.60576565305E+02 -0.42831681706E+03  0.43506445847E+03  0.00000000000E+00 0. -1.
         11    1    1    2    0    0  0.17819611511E+02 -0.57564099685E+02 -0.11819159611E+03  0.13266656519E+03  0.00000000000E+00 0.  1.
</event>
<event>
 7    1  0.2384639E-009  0.9932306E+02  0.7561462E-02  0.1281726E+00
         -3   -1    0    0    0  501 -0.00000000000E+00  0.00000000000E+00  0.24418390654E+02  0.24418390654E+02  0.00000000000E+00 0.  1.
          3   -1    0    0  501    0  0.00000000000E+00 -0.00000000000E+00 -0.49570467073E+03  0.49570467073E+03  0.00000000000E+00 0. -1.
         25    2    1    2    0    0  0.59740885297E+01 -0.39093679445E+01 -0.21621446967E+03  0.24989263386E+03  0.12508660469E+03 0.  0.
          5    1    3    3  502    0 -0.10797449460E+02 -0.60741821878E+02 -0.78625319770E+02  0.10002783187E+03  0.41800000000E+01 0.  1.
         -5    1    3    3    0  502  0.16771537990E+02  0.56832453933E+02 -0.13758914990E+03  0.14986480199E+03  0.41800000000E+01 0.  1.
        -11    1    1    2    0    0 -0.39125239405E+02 -0.11599385719E+02 -0.19989943110E+03  0.20402233373E+03  0.00000000000E+00 0. -1.
         11    1    1    2    0    0  0.33151150875E+02  0.15508753663E+02 -0.55172379311E+02  0.66208093790E+02  0.00000000000E+00 0.  1.
</event>
<event>
 7    1  0.2384639E-009  0.2034525E+03  0.7561462E-02  0.1146858E+00
         -1   -1    0    0    0  501 -0.00000000000E+00  0.00000000000E+00  0.34581209568E+02  0.34581209568E+02  0.00000000000E+00 0.  1.
          1   -1    0    0  501    0  0.00000000000E+00 -0.00000000000E+00 -0.13388690681E+04  0.13388690681E+04  0.00000000000E+00 0. -1.
         25    2    1    2    0    0  0.13208350940E+03 -0.10807967126E+03 -0.46677084293E+03  0.51249339104E+03  0.12508871754E+03 0.  0.
          5    1    3    3  502    0 -0.70030206674E+01 -0.62386888786E+02 -0.17624388963E+03  0.18713777605E+03  0.41800000000E+01 0.  1.
         -5    1    3    3    0  502  0.13908653007E+03 -0.45692782470E+02 -0.29052695330E+03  0.32535561500E+03  0.41800000000E+01 0.  1.
        -11    1    1    2    0    0 -0.11700205534E+03  0.33876500645E+02 -0.45533655852E+03  0.47134751487E+03  0.00000000000E+00 0.  1.
         11    1    1    2    0    0 -0.15081454061E+02  0.74203170612E+02 -0.38218045704E+03  0.38960937171E+03  0.00000000000E+00 0. -1.
</event>
<event>
 7    1  0.2384639E-009  0.9822110E+02  0.7561462E-02  0.1284082E+00
          1   -1    0    0  501    0  0.00000000000E+00  0.00000000000E+00  0.31799393916E+03  0.31799393916E+03  0.00000000000E+00 0. -1.
         -1   -1    0    0    0  501 -0.00000000000E+00 -0.00000000000E+00 -0.41348248569E+02  0.41348248569E+02  0.00000000000E+00 0.  1.
         25    2    1    2    0    0 -0.11665834164E+02  0.59877130127E+02  0.16991741711E+03  0.21963796945E+03  0.12509015385E+03 0.  0.
          5    1    3    3  502    0  0.27275203595E+02 -0.20540282284E+02  0.90416421807E+01  0.35567732860E+02  0.41800000000E+01 0.  1.
         -5    1    3    3    0  502 -0.38941037759E+02  0.80417412411E+02  0.16087577493E+03  0.18407023659E+03  0.41800000000E+01 0.  1.
        -11    1    1    2    0    0  0.25768480891E+02 -0.29934352294E+02  0.15107474689E+02  0.42288483612E+02  0.00000000000E+00 0.  1.
         11    1    1    2    0    0 -0.14102646726E+02 -0.29942777833E+02  0.91620798792E+02  0.97415734665E+02  0.00000000000E+00 0. -1.
</event>
<event>
 7    1  0.2384639E-009  0.1216664E+03  0.7561462E-02  0.1240373E+00
         -1   -1    0    0    0  501 -0.00000000000E+00  0.00000000000E+00  0.17317393718E+03  0.17317393718E+03  0.00000000000E+00 0.  1.
          1   -1    0    0  501    0  0.00000000000E+00 -0.00000000000E+00 -0.12591915300E+03  0.12591915300E+03  0.00000000000E+00 0. -1.
         25    2    1    2    0    0  0.74737005689E+02  0.56288134854E+02  0.61232658404E+02  0.16779341698E+03  0.12510482877E+03 0.  0.
          5    1    3    3  502    0  0.52737255953E+02 -0.26527289365E+02 -0.50284254564E+01  0.59394214442E+02  0.41800000000E+01 0. -1.
         -5    1    3    3    0  502  0.21999749735E+02  0.82815424219E+02  0.66261083861E+02  0.10839920254E+03  0.41800000000E+01 0. -1.
        -11    1    1    2    0    0 -0.73705463279E+02 -0.43607062767E+02 -0.45736692258E+02  0.97087158054E+02  0.00000000000E+00 0.  1.
         11    1    1    2    0    0 -0.10315424096E+01 -0.12681072087E+02  0.31758818035E+02  0.34212515137E+02  0.00000000000E+00 0. -1.
</event>
<event>
 7    1  0.2384639E-009  0.2716551E+03  0.7561462E-02  0.1100336E+00
         -1   -1    0    0    0  501 -0.00000000000E+00  0.00000000000E+00  0.11930915986E+03  0.11930915986E+03  0.00000000000E+00 0.  1.
          1   -1    0    0  501    0  0.00000000000E+00 -0.00000000000E+00 -0.10772785399E+04  0.10772785399E+04  0.00000000000E+00 0. -1.
         25    2    1    2    0    0 -0.27067969397E+03 -0.17478273508E+02 -0.13938547979E+03  0.32962025871E+03  0.12509283035E+03 0.  0.
          5    1    3    3  502    0 -0.36508611700E+02 -0.28169650608E+00  0.23681656303E+02  0.43717860497E+02  0.41800000000E+01 0.  1.
         -5    1    3    3    0  502 -0.23417108227E+03 -0.17196577002E+02 -0.16306713610E+03  0.28590239822E+03  0.41800000000E+01 0.  1.
        -11    1    1    2    0    0  0.15038532070E+03  0.17743615669E+02 -0.31917760664E+03  0.35327740539E+03  0.00000000000E+00 0. -1.
         11    1    1    2    0    0  0.12029437327E+03 -0.26534216075E+00 -0.49940629360E+03  0.51369003566E+03  0.00000000000E+00 0.  1.
</event>
<event>
 7    1  0.2384639E-009  0.3198516E+03  0.7561462E-02  0.1075718E+00
          2   -1    0    0  501    0  0.00000000000E+00  0.00000000000E+00  0.67655234451E+03  0.67655234451E+03  0.00000000000E+00 0. -1.
         -2   -1    0    0    0  501 -0.00000000000E+00 -0.00000000000E+00 -0.21198395965E+03  0.21198395965E+03  0.00000000000E+00 0.  1.
         25    2    1    2    0    0  0.47924187164E+02  0.30174547852E+03  0.62599865224E+01  0.33020250077E+03  0.12508973803E+03 0.  0.
          5    1    3    3  502    0  0.78088029796E+02  0.26034593737E+03  0.30196009236E+02  0.27350871810E+03  0.41800000000E+01 0. -1.
         -5    1    3    3    0  502 -0.30163842632E+02  0.41399541143E+02 -0.23936022714E+02  0.56693782662E+02  0.41800000000E+01 0. -1.
        -11    1    1    2    0    0  0.96225571456E+01 -0.19471934650E+03  0.24815552622E+03  0.31557785521E+03  0.00000000000E+00 0.  1.
         11    1    1    2    0    0 -0.57546744310E+02 -0.10702613201E+03  0.21015287212E+03  0.24275594818E+03  0.00000000000E+00 0. -1.
</event>
<event>
 7    1  0.2384639E-009  0.8528049E+02  0.7561462E-02  0.1314701E+00
         -1   -1    0    0    0  501 -0.00000000000E+00  0.00000000000E+00  0.21698271669E+03  0.21698271669E+03  0.00000000000E+00 0.  1.
          1   -1    0    0  501    0  0.00000000000E+00 -0.00000000000E+00 -0.56367978743E+02  0.56367978743E+02  0.00000000000E+00 0. -1.
         25    2    1    2    0    0  0.77554482954E+01  0.15610683676E+02  0.11030202507E+03  0.16768386534E+03  0.12508997377E+03 0.  0.
          5    1    3    3  502    0 -0.34594532399E+02  0.43450896568E+02  0.11953823713E+02  0.56966028349E+02  0.41800000000E+01 0.  1.
         -5    1    3    3    0  502  0.42349980695E+02 -0.27840212892E+02  0.98348201355E+02  0.11071783699E+03  0.41800000000E+01 0.  1.
        -11    1    1    2    0    0  0.14809926582E+02  0.18135476471E+02  0.59589755394E+02  0.64024748185E+02  0.00000000000E+00 0.  1.
         11    1    1    2    0    0 -0.22565374877E+02 -0.33746160147E+02 -0.92770425105E+01  0.41642081910E+02  0.00000000000E+00 0. -1.
</event>
<event>
 7    1  0.2384639E-009  0.1166107E+03  0.7561462E-02  0.1248795E+00
         -2   -1    0    0    0  501 -0.00000000000E+00  0.00000000000E+00  0.40807944196E+02  0.40807944196E+02  0.00000000000E+00 0. -1.
          2   -1    0    0  501    0  0.00000000000E+00 -0.00000000000E+00 -0.51361764736E+03  0.51361764736E+03  0.00000000000E+00 0.  1.
         25    2    1    2    0    0  0.52047473850E+02  0.64583047297E+02 -0.34792839991E+03  0.37892042499E+03  0.12508640007E+03 0.  0.
          5    1    3    3  502    0  0.63336877257E+02  0.30762527620E+01 -0.72311965185E+02  0.96267938903E+02  0.41800000000E+01 0.  1.
         -5    1    3    3    0  502 -0.11289403407E+02  0.61506794535E+02 -0.27561643472E+03  0.28265248609E+03  0.41800000000E+01 0.  1.
        -11    1    1    2    0    0 -0.44049479057E+02 -0.21995111270E+01 -0.97299748649E+02  0.10682900141E+03  0.00000000000E+00 0.  1.
         11    1    1    2    0    0 -0.79979947928E+01 -0.62383536170E+02 -0.27581554604E+02  0.68676165153E+02  0.00000000000E+00 0. -1.
</event>
<event>
 7    1  0.2384639E-009  0.9614717E+02  0.7561462E-02  0.1288613E+00
         -4   -1    0    0    0  501 -0.00000000000E+00  0.00000000000E+00  0.81436213285E+02  0.81436213285E+02  0.00000000000E+00 0.  1.
          4   -1    0    0  501    0  0.00000000000E+00 -0.00000000000E+00 -0.24224004368E+03  0.24224004368E+03  0.00000000000E+00 0. -1.
         25    2    1    2    0    0  0.47172377893E+02 -0.99908848720E+01 -0.17513511923E+03  0.22055662674E+03  0.12509142494E+03 0.  0.
          5    1    3    3  502    0 -0.34738696002E+02  0.43498061661E+01 -0.10797050459E+03  0.11358168899E+03  0.41800000000E+01 0. -1.
         -5    1    3    3    0  502  0.81911073895E+02 -0.14340691038E+02 -0.67164614648E+02  0.10697493775E+03  0.41800000000E+01 0. -1.
        -11    1    1    2    0    0  0.10581060617E+02  0.11983037247E+02  0.37573604834E+02  0.40832925510E+02  0.00000000000E+00 0.  1.
         11    1    1    2    0    0 -0.57753438510E+02 -0.19921523750E+01 -0.23242315991E+02  0.62286704708E+02  0.00000000000E+00 0. -1.
</event>
<event>
 7    1  0.2384639E-009  0.1514627E+03  0.7561462E-02  0.1198687E+00
         -1   -1    0    0    0  501 -0.00000000000E+00  0.00000000000E+00  0.26842066535E+02  0.26842066535E+02  0.00000000000E+00 0.  1.
          1   -1    0    0  501    0  0.00000000000E+00 -0.00000000000E+00 -0.10162962002E+04  0.10162962002E+04  0.00000000000E+00 0. -1.
         25    2    1    2    0    0 -0.50869049661E+02  0.11053234743E+03 -0.60959674366E+03  0.63408309057E+03  0.12509242913E+03 0.  0.
          5    1    3    3  502    0 -0.57527049418E+02  0.20728251560E+02 -0.41643450084E+03  0.42092064301E+03  0.41800000000E+01 0.  1.
         -5    1    3    3    0  502  0.66579997567E+01  0.89804095873E+02 -0.19316224282E+03  0.21316244756E+03  0.41800000000E+01 0.  1.
        -11    1    1    2    0    0  0.77153978237E+02 -0.78789851062E+02 -0.28732034143E+03  0.30775567515E+03  0.00000000000E+00 0.  1.
         11    1    1    2    0    0 -0.26284928576E+02 -0.31742496371E+02 -0.92537048556E+02  0.10129950099E+03  0.00000000000E+00 0. -1.
</event>
<event>
 7    1  0.2384639E-009  0.1208539E+03  0.7561462E-02  0.1241695E+00
         -2   -1    0    0    0  501 -0.00000000000E+00  0.00000000000E+00  0.12413346733E+03  0.12413346733E+03  0.00000000000E+00 0.  1.
          2   -1    0    0  501    0  0.00000000000E+00 -0.00000000000E+00 -0.14572396729E+03  0.14572396729E+03  0.00000000000E+00 0. -1.
         25    2    1    2    0    0 -0.65785046995E+02 -0.43760808478E+02 -0.15927930433E+02  0.14880878176E+03  0.12509066230E+03 0.  0.
          5    1    3    3  502    0  0.11553984769E+01 -0.53991369549E+02  0.34548144865E+02  0.64245230523E+02  0.41800000000E+01 0.  1.
         -5    1    3    3    0  502 -0.66940445472E+02  0.10230561071E+02 -0.50476075298E+02  0.84563551234E+02  0.41800000000E+01 0.  1.
        -11    1    1    2    0    0 -0.15121079372E+02 -0.13745351147E+02  0.54996473487E+01  0.21161943211E+02  0.00000000000E+00 0.  1.
         11    1    1    2    0    0  0.80906126366E+02  0.57506159625E+02 -0.11162216875E+02  0.99886709646E+02  0.00000000000E+00 0. -1.
</event>
<event>
 7    1  0.2384639E-009  0.1554186E+03  0.7561462E-02  0.1193968E+00
         -1   -1    0    0    0  501 -0.00000000000E+00  0.00000000000E+00  0.51387345834E+02  0.51387345834E+02  0.00000000000E+00 0.  1.
          1   -1    0    0  501    0  0.00000000000E+00 -0.00000000000E+00 -0.63714899337E+03  0.63714899337E+03  0.00000000000E+00 0. -1.
         25    2    1    2    0    0  0.14095543387E+03  0.24209042182E+02 -0.34344169090E+03  0.39249663191E+03  0.12508756513E+03 0.  0.
          5    1    3    3  502    0  0.95345807344E+02 -0.23970738666E+02 -0.29290530589E+03  0.30899257258E+03  0.41800000000E+01 0. -1.
         -5    1    3    3    0  502  0.45609626530E+02  0.48179780848E+02 -0.50536385012E+02  0.83504059331E+02  0.41800000000E+01 0. -1.
        -11    1    1    2    0    0 -0.50547554531E+02 -0.23024433259E+02 -0.25490529532E+02  0.61114211864E+02  0.00000000000E+00 0.  1.
         11    1    1    2    0    0 -0.90407879343E+02 -0.11846089230E+01 -0.21682942710E+03  0.23492549543E+03  0.00000000000E+00 0. -1.
</event>
<event>
 7    1  0.2384639E-009  0.1353071E+03  0.7561462E-02  0.1219787E+00
         -2   -1    0    0    0  501 -0.00000000000E+00  0.00000000000E+00  0.71187052681E+02  0.71187052681E+02  0.00000000000E+00 0.  1.
          2   -1    0    0  501    0  0.00000000000E+00 -0.00000000000E+00 -0.33228502555E+03  0.33228502555E+03  0.00000000000E+00 0. -1.
         25    2    1    2    0    0  0.80477121631E+02  0.70910323077E+02 -0.17233394324E+03  0.23843319230E+03  0.12508620297E+03 0.  0.
          5    1    3    3  502    0  0.98675957332E+02  0.11789995461E+02 -0.82205899034E+02  0.12903964811E+03  0.41800000000E+01 0. -1.
         -5    1    3    3    0  502 -0.18198835701E+02  0.59120327616E+02 -0.90128044203E+02  0.10939354419E+03  0.41800000000E+01 0. -1.
        -11    1    1    2    0    0 -0.27867260868E+02 -0.37894178153E+02 -0.91483374652E+02  0.10286768591E+03  0.00000000000E+00 0. -1.
         11    1    1    2    0    0 -0.52609860763E+02 -0.33016144924E+02  0.27193450206E+01  0.62171200024E+02  0.00000000000E+00 0.  1.
</event>
<event>
 7    1  0.2384639E-009  0.9367019E+02  0.7561462E-02  0.1294200E+00
         -3   -1    0    0    0  501 -0.00000000000E+00  0.00000000000E+00  0.18391301028E+03  0.18391301028E+03  0.00000000000E+00 0.  1.
          3   -1    0    0  501    0  0.00000000000E+00 -0.00000000000E+00 -0.80895249274E+02  0.80895249274E+02  0.00000000000E+00 0. -1.
         25    2    1    2    0    0  0.58461133330E+02 -0.73188014865E+01  0.69282491497E+02  0.15465718017E+03  0.12509001073E+03 0.  0.
          5    1    3    3  502    0  0.59433665079E+02 -0.26500354831E+02 -0.15997094948E+02  0.67141706842E+02  0.41800000000E+01 0. -1.
         -5    1    3    3    0  502 -0.97253174930E+00  0.19181553345E+02  0.85279586445E+02  0.87515473323E+02  0.41800000000E+01 0. -1.
        -11    1    1    2    0    0 -0.38753764964E+02  0.45343610426E+02  0.79916688197E+01  0.60181094007E+02  0.00000000000E+00 0. -1.
         11    1    1    2    0    0 -0.19707368366E+02 -0.38024808940E+02  0.25743600694E+02  0.49969985387E+02  0.00000000000E+00 0.  1.
</event>
<event>
 7    1  0.2384639E-009  0.8889272E+02  0.7561462E-02  0.1305556E+00
          4   -1    0    0  501    0  0.00000000000E+00  0.00000000000E+00  0.13828659085E+03  0.13828659085E+03  0.00000000000E+00 0. -1.
         -4   -1    0    0    0  501 -0.00000000000E+00 -0.00000000000E+00 -0.71262816639E+02  0.71262816639E+02  0.00000000000E+00 0.  1.
         25    2    1    2    0    0  0.82934990066E+01 -0.27107789779E+02  0.65005691822E+02  0.14379616709E+03  0.12509189945E+03 0.  0.
          5    1    3    3  502    0  0.36880867569E+02 -0.62199538360E+02  0.11090178072E+02  0.73276499742E+02  0.41800000000E+01 0. -1.
         -5    1    3    3    0  502 -0.28587368562E+02  0.35091748581E+02  0.53915513750E+02  0.70519667346E+02  0.41800000000E+01 0. -1.
        -11    1    1    2    0    0  0.98318879267E+01  0.37661813400E+02 -0.11755995824E+02  0.40660566235E+02  0.00000000000E+00 0.  1.
         11    1    1    2    0    0 -0.18125386933E+02 -0.10554023621E+02  0.13774078211E+02  0.25092674163E+02  0.00000000000E+00 0. -1.
</event>
<event>
 7    1  0.2498508E-009  0.1245130E+03  0.7561462E-02  0.1235832E+00
         -1   -1    0    0    0  501 -0.00000000000E+00  0.00000000000E+00  0.93287111032E+02  0.93287111032E+02  0.00000000000E+00 0.  1.
          1   -1    0    0  501    0  0.00000000000E+00 -0.00000000000E+00 -0.18111202116E+03  0.18111202116E+03  0.00000000000E+00 0. -1.
         25    2    1    2    0    0 -0.68008720005E+02 -0.72962104582E+01 -0.28708530396E+02  0.14543599160E+03  0.12509607209E+03 0.  0.
          5    1    3    3  502    0  0.19167950910E+02 -0.40920611660E+02  0.57862906345E+01  0.45747790766E+02  0.41800000000E+01 0. -1.
         -5    1    3    3    0  502 -0.87176670914E+02  0.33624401202E+02 -0.34494821030E+02  0.99688200835E+02  0.41800000000E+01 0. -1.
        -11    1    1    2    0    0  0.56467911151E+02 -0.34891478867E+02 -0.17629601494E+02  0.68679277342E+02  0.00000000000E+00 0.  1.
         11    1    1    2    0    0  0.11540808854E+02  0.42187689325E+02 -0.41486778235E+02  0.60283863247E+02  0.00000000000E+00 0. -1.
</event>
<event>
 7    1  0.2384639E-009  0.1266375E+03  0.7561462E-02  0.1232532E+00
         -2   -1    0    0    0  501 -0.00000000000E+00  0.00000000000E+00  0.47043906534E+02  0.47043906534E+02  0.00000000000E+00 0.  1.
          2   -1    0    0  501    0  0.00000000000E+00 -0.00000000000E+00 -0.52627375215E+03  0.52627375215E+03  0.00000000000E+00 0. -1.
         25    2    1    2    0    0  0.23913512163E+02 -0.10756898497E+03 -0.20668819255E+03  0.26553802453E+03  0.12508993141E+03 0.  0.
          5    1    3    3  502    0  0.21827329312E+02 -0.72046656270E+02 -0.23638859712E+02  0.79015321761E+02  0.41800000000E+01 0. -1.
         -5    1    3    3    0  502  0.20861828518E+01 -0.35522328697E+02 -0.18304933284E+03  0.18652270277E+03  0.41800000000E+01 0. -1.
        -11    1    1    2    0    0 -0.83521406256E+01 -0.15710428041E+02 -0.47320094914E+02  0.50554596081E+02  0.00000000000E+00 0. -1.
         11    1    1    2    0    0 -0.15561371538E+02  0.12327941301E+03 -0.22522155815E+03  0.25722503807E+03  0.00000000000E+00 0.  1.
</event>
<event>
 7    1  0.2384639E-009  0.1228850E+03  0.7561462E-02  0.1238412E+00
          1   -1    0    0  501    0  0.00000000000E+00  0.00000000000E+00  0.16398377917E+03  0.16398377917E+03  0.00000000000E+00 0. -1.
         -1   -1    0    0    0  501 -0.00000000000E+00 -0.00000000000E+00 -0.12392906477E+03  0.12392906477E+03  0.00000000000E+00 0.  1.
         25    2    1    2    0    0  0.24586983652E+02 -0.54922836076E+02 -0.47198622334E+02  0.14661881411E+03  0.12509328125E+03 0.  0.
          5    1    3    3  502    0  0.27028351185E+02 -0.93017641747E+02 -0.18562411898E+02  0.98716001638E+02  0.41800000000E+01 0.  1.
         -5    1    3    3    0  502 -0.24413675329E+01  0.38094805671E+02 -0.28636210436E+02  0.47902812471E+02  0.41800000000E+01 0.  1.
        -11    1    1    2    0    0 -0.38810595541E+02 -0.13067634817E+02  0.40270246971E+02  0.57434468719E+02  0.00000000000E+00 0. -1.
         11    1    1    2    0    0  0.14223611888E+02  0.67990470894E+02  0.46983089762E+02  0.83859561119E+02  0.00000000000E+00 0.  1.
</event>
<event>
 7    1  0.2384639E-009  0.1206125E+03  0.7561462E-02  0.1242090E+00
          1   -1    0    0  501    0  0.00000000000E+00  0.00000000000E+00  0.12806655163E+03  0.12806655163E+03  0.00000000000E+00 0. -1.
         -1   -1    0    0    0  501 -0.00000000000E+00 -0.00000000000E+00 -0.18147488919E+03  0.18147488919E+03  0.00000000000E+00 0.  1.
         25    2    1    2    0    0  0.12626593932E+02  0.10633070566E+03 -0.14482497813E+02  0.16529571858E+03  0.12508909623E+03 0.  0.
          5    1    3    3  502    0 -0.21249551217E+01 -0.96288723766E+01  0.36249765350E+02  0.37798789735E+02  0.41800000000E+01 0.  1.
         -5    1    3    3    0  502  0.14751549054E+02  0.11595957804E+03 -0.50732263163E+02  0.12749692884E+03  0.41800000000E+01 0.  1.
        -11    1    1    2    0    0 -0.23915246945E+02 -0.42870960911E+02  0.23579757568E+02  0.54459740110E+02  0.00000000000E+00 0. -1.
         11    1    1    2    0    0  0.11288653013E+02 -0.63459744751E+02 -0.62505597323E+02  0.89785982132E+02  0.00000000000E+00 0.  1.
</event>
<event>
 7    1  0.2384639E-009  0.1686015E+03  0.7561462E-02  0.1179314E+00
          1   -1    0    0  501    0  0.00000000000E+00  0.00000000000E+00  0.45668035921E+02  0.45668035921E+02  0.00000000000E+00 0. -1.
         -1   -1    0    0    0  501 -0.00000000000E+00 -0.00000000000E+00 -0.71369509191E+03  0.71369509191E+03  0.00000000000E+00 0.  1.
         25    2    1    2    0    0 -0.23429501516E+02 -0.14134643006E+03 -0.32022003321E+03  0.37244531174E+03  0.12508751230E+03 0.  0.
          5    1    3    3  502    0  0.36171115255E+02 -0.41912949556E+02 -0.37902923446E+02  0.67224615470E+02  0.41800000000E+01 0.  1.
         -5    1    3    3    0  502 -0.59600616770E+02 -0.99433480501E+02 -0.28231710976E+03  0.30522069627E+03  0.41800000000E+01 0.  1.
        -11    1    1    2    0    0  0.38943409046E+02  0.20821451324E+02 -0.59922858524E+02  0.74437026520E+02  0.00000000000E+00 0.  1.
         11    1    1    2    0    0 -0.15513907531E+02  0.12052497873E+03 -0.28788416425E+03  0.31248078957E+03  0.00000000000E+00 0. -1.
</event>
<event>
 7    1  0.2384639E-009  0.1091953E+03  0.7561462E-02  0.1262067E+00
          2   -1    0    0  501    0  0.00000000000E+00  0.00000000000E+00  0.12540194417E+03  0.12540194417E+03  0.00000000000E+00 0.  1.
         -2   -1    0    0    0  501 -0.00000000000E+00 -0.00000000000E+00 -0.22149824288E+03  0.22149824288E+03  0.00000000000E+00 0. -1.
         25    2    1    2    0    0 -0.35517101239E+02 -0.45764403442E+01 -0.17482241165E+03  0.21792470490E+03  0.12508354449E+03 0.  0.
          5    1    3    3  502    0 -0.44147706243E+02 -0.52450671961E+02 -0.14569001514E+03  0.16106876130E+03  0.41800000000E+01 0. -1.
         -5    1    3    3    0  502  0.86306050041E+01  0.47874231617E+02 -0.29132396516E+02  0.56855943598E+02  0.41800000000E+01 0. -1.
        -11    1    1    2    0    0  0.46836158952E+02 -0.35797702001E+02  0.35803465734E+02  0.68970931649E+02  0.00000000000E+00 0. -1.
         11    1    1    2    0    0 -0.11319057713E+02  0.40374142345E+02  0.42922647204E+02  0.60004550499E+02  0.00000000000E+00 0.  1.
</event>
<event>
 7    1  0.2384639E-009  0.9389717E+02  0.7561462E-02  0.1293679E+00
         -2   -1    0    0    0  501 -0.00000000000E+00  0.00000000000E+00  0.17534840712E+02  0.17534840712E+02  0.00000000000E+00 0.  1.
          2   -1    0    0  501    0  0.00000000000E+00 -0.00000000000E+00 -0.77317159870E+03  0.77317159870E+03  0.00000000000E+00 0. -1.
         25    2    1    2    0    0 -0.36488432248E+00  0.32386879300E+02 -0.51424280140E+03  0.53022909760E+03  0.12509274181E+03 0.  0.
          5    1    3    3  502    0 -0.32943784180E+02  0.46343513703E+02 -0.10540096281E+03  0.11983258964E+03  0.41800000000E+01 0. -1.
         -5    1    3    3    0  502  0.32578899858E+02 -0.13956634403E+02 -0.40884183859E+03  0.41039650795E+03  0.41800000000E+01 0. -1.
        -11    1    1    2    0    0  0.44579398050E+02 -0.21822241698E+02 -0.94955059122E+02  0.10714474423E+03  0.00000000000E+00 0.  1.
         11    1    1    2    0    0 -0.44214513727E+02 -0.10564637602E+02 -0.14643889746E+03  0.15333259758E+03  0.00000000000E+00 0. -1.
</event>
<event>
 7    1  0.2384639E-009  0.4634324E+03  0.7561462E-02  0.1023790E+00
         -1   -1    0    0    0  501 -0.00000000000E+00  0.00000000000E+00  0.34873484592E+03  0.34873484592E+03  0.00000000000E+00 0.  1.
          1   -1    0    0  501    0  0.00000000000E+00 -0.00000000000E+00 -0.67563251630E+03  0.67563251630E+03  0.00000000000E+00 0. -1.
         25    2    1    2    0    0 -0.20380276925E+03 -0.41039082209E+03 -0.41166427100E+02  0.47675877334E+03  0.12509219651E+03 0.  0.
          5    1    3    3  502    0 -0.83612502926E+02 -0.82076261502E+02 -0.48892330177E+02  0.12702557104E+03  0.41800000000E+01 0. -1.
         -5    1    3    3    0  502 -0.12019026633E+03 -0.32831456059E+03  0.77259030773E+01  0.34973320230E+03  0.41800000000E+01 0. -1.
        -11    1    1    2    0    0  0.19197794263E+03  0.35754414441E+03 -0.28023168804E+03  0.49317658565E+03  0.00000000000E+00 0. -1.
         11    1    1    2    0    0  0.11824826620E+02  0.52846677686E+02 -0.54995552482E+01  0.54432003224E+02  0.00000000000E+00 0.  1.
</event>
<event>
 7    1  0.2384639E-009  0.9490970E+02  0.7561462E-02  0.1291380E+00
          2   -1    0    0  501    0  0.00000000000E+00  0.00000000000E+00  0.18292743719E+03  0.18292743719E+03  0.00000000000E+00 0. -1.
         -2   -1    0    0    0  501 -0.00000000000E+00 -0.00000000000E+00 -0.70738961298E+02  0.70738961298E+02  0.00000000000E+00 0.  1.
         25    2    1    2    0    0  0.98660867240E+01 -0.10489601460E+02  0.10059315816E+03  0.16117008983E+03  0.12509773371E+03 0.  0.
          5    1    3    3  502    0  0.43099924405E+02 -0.35841061333E+02  0.10482963155E+03  0.11894918752E+03  0.41800000000E+01 0.  1.
         -5    1    3    3    0  502 -0.33233837681E+02  0.25351459873E+02 -0.42364733871E+01  0.42220902305E+02  0.41800000000E+01 0.  1.
        -11    1    1    2    0    0 -0.10554051247E+02 -0.39866548420E+02  0.24566770740E+01  0.41313011787E+02  0.00000000000E+00 0.  1.
         11    1    1    2    0    0  0.68796452296E+00  0.50356149880E+02  0.91386406538E+01  0.51183296874E+02  0.00000000000E+00 0. -1.
</event>
<event>
 7    1  0.2384639E-009  0.1010336E+03  0.7561462E-02  0.1278137E+00
          1   -1    0    0  501    0  0.00000000000E+00  0.00000000000E+00  0.25657324393E+03  0.25657324393E+03  0.00000000000E+00 0.  1.
         -1   -1    0    0    0  501 -0.00000000000E+00 -0.00000000000E+00 -0.83051594483E+02  0.83051594483E+02  0.00000000000E+00 0. -1.
         25    2    1    2    0    0 -0.54581325593E+02 -0.79032265495E+02  0.69658020230E+02  0.17240652718E+03  0.12508617325E+03 0.  0.
          5    1    3    3  502    0 -0.37197319351E+02 -0.48391966471E+02  0.10551354953E+03  0.12196722724E+03  0.41800000000E+01 0.  1.
         -5    1    3    3    0  502 -0.17384006242E+02 -0.30640299023E+02 -0.35855529296E+02  0.50439299940E+02  0.41800000000E+01 0.  1.
        -11    1    1    2    0    0  0.22765477868E+02  0.29624043937E+01  0.77227497201E+02  0.80567544001E+02  0.00000000000E+00 0.  1.
         11    1    1    2    0    0  0.31815847724E+02  0.76069861101E+02  0.26636132020E+02  0.86650767240E+02  0.00000000000E+00 0. -1.
</event>
<event>
 7    1  0.2384639E-009  0.1063103E+03  0.7561462E-02  0.1267559E+00
          1   -1    0    0  501    0  0.00000000000E+00  0.00000000000E+00  0.65358180875E+02  0.65358180875E+02  0.00000000000E+00 0. -1.
         -1   -1    0    0    0  501 -0.00000000000E+00 -0.00000000000E+00 -0.36313519832E+03  0.36313519832E+03  0.00000000000E+00 0.  1.
         25    2    1    2    0    0 -0.14192244798E+02  0.80474871611E+02 -0.26093344997E+03  0.30068642466E+03  0.12509370843E+03 0.  0.
          5    1    3    3  502    0 -0.31453612419E+02  0.67652758621E+02 -0.53022425427E+02  0.91624644509E+02  0.41800000000E+01 0. -1.
         -5    1    3    3    0  502  0.17261367620E+02  0.12822112989E+02 -0.20791102455E+03  0.20906178016E+03  0.41800000000E+01 0. -1.
        -11    1    1    2    0    0  0.47800390713E+02 -0.34091707214E+02 -0.39003863140E+02  0.70487042731E+02  0.00000000000E+00 0.  1.
         11    1    1    2    0    0 -0.33608145915E+02 -0.46383164397E+02  0.21602956701E+01  0.57319911799E+02  0.00000000000E+00 0. -1.
</event>
<event>
 7    1  0.2384639E-009  0.5031718E+02  0.7561462E-02  0.1443638E+00
         -2   -1    0    0    0  501 -0.00000000000E+00  0.00000000000E+00  0.22106231173E+03  0.22106231173E+03  0.00000000000E+00 0.  1.
          2   -1    0    0  501    0  0.00000000000E+00 -0.00000000000E+00 -0.52896295230E+02  0.52896295230E+02  0.00000000000E+00 0. -1.
         25    2    1    2    0    0 -0.51178585031E+01 -0.13036380892E+02  0.86760623356E+02  0.15287263883E+03  0.12508596338E+03 0.  0.
          5    1    3    3  502    0  0.59954221253E+01 -0.91592090798E+01  0.11833694858E+03  0.11891569281E+03  0.41800000000E+01 0. -1.
         -5    1    3    3    0  502 -0.11113280628E+02 -0.38771718120E+01 -0.31576325227E+02  0.33956946012E+02  0.41800000000E+01 0. -1.
        -11    1    1    2    0    0  0.33927174134E+02 -0.14201134195E+02  0.71213241855E+02  0.80150178868E+02  0.00000000000E+00 0. -1.
         11    1    1    2    0    0 -0.28809315631E+02  0.27237515087E+02  0.10192151294E+02  0.40935789271E+02  0.00000000000E+00 0.  1.
</event>
<event>
 7    1  0.2384639E-009  0.1150911E+03  0.7561462E-02  0.1251422E+00
          1   -1    0    0  501    0  0.00000000000E+00  0.00000000000E+00  0.22856760943E+03  0.22856760943E+03  0.00000000000E+00 0. -1.
         -1   -1    0    0    0  501 -0.00000000000E+00 -0.00000000000E+00 -0.73015839393E+02  0.73015839393E+02  0.00000000000E+00 0.  1.
         25    2    1    2    0    0 -0.65875963814E+02  0.11845996534E+02  0.53754005326E+02  0.15171049592E+03  0.12508641510E+03 0.  0.
          5    1    3    3  502    0 -0.81051664200E+02  0.45605569719E+02  0.90683077169E+01  0.93535805250E+02  0.41800000000E+01 0.  1.
         -5    1    3    3    0  502  0.15175700386E+02 -0.33759573185E+02  0.44685697609E+02  0.58174690671E+02  0.41800000000E+01 0.  1.
        -11    1    1    2    0    0  0.56851859938E+02 -0.40496163195E+02  0.38273400358E+02  0.79604813842E+02  0.00000000000E+00 0.  1.
         11    1    1    2    0    0  0.90241038759E+01  0.28650166661E+02  0.63524364351E+02  0.70268139058E+02  0.00000000000E+00 0. -1.
</event>
<event>
 7    1  0.2384639E-009  0.1293850E+03  0.7561462E-02  0.1228371E+00
          2   -1    0    0  501    0  0.00000000000E+00  0.00000000000E+00  0.45509406668E+03  0.45509406668E+03  0.00000000000E+00 0. -1.
         -2   -1    0    0    0  501 -0.00000000000E+00 -0.00000000000E+00 -0.58720545965E+02  0.58720545965E+02  0.00000000000E+00 0.  1.
         25    2    1    2    0    0  0.82545465242E+02  0.84637158173E+02  0.25184717801E+03  0.30504327995E+03  0.12508876527E+03 0.  0.
          5    1    3    3  502    0  0.73409392322E+02  0.94353799620E+02  0.26183425611E+03  0.28786494830E+03  0.41800000000E+01 0.  1.
         -5    1    3    3    0  502  0.91360729198E+01 -0.97166414473E+01 -0.99870781044E+01  0.17178331656E+02  0.41800000000E+01 0.  1.
        -11    1    1    2    0    0 -0.44595232617E+02 -0.72882649477E+02  0.14583362511E+03  0.16902089096E+03  0.00000000000E+00 0. -1.
         11    1    1    2    0    0 -0.37950232624E+02 -0.11754508696E+02 -0.13072824038E+01  0.39750441736E+02  0.00000000000E+00 0.  1.
</event>
<event>
 7    1  0.2384639E-009  0.1246791E+03  0.7561462E-02  0.1235572E+00
         -3   -1    0    0    0  501 -0.00000000000E+00  0.00000000000E+00  0.90979562592E+03  0.90979562592E+03  0.00000000000E+00 0.  1.
          3   -1    0    0  501    0  0.00000000000E+00 -0.00000000000E+00 -0.28687788662E+02  0.28687788662E+02  0.00000000000E+00 0. -1.
         25    2    1    2    0    0 -0.95054623958E+02 -0.13005315547E+02  0.68214628330E+03  0.70012565414E+03  0.12509140655E+03 0.  0.
          5    1    3    3  502    0 -0.11139052927E+03  0.17632769633E+02  0.60481930844E+03  0.61525818389E+03  0.41800000000E+01 0.  1.
         -5    1    3    3    0  502  0.16335905314E+02 -0.30638085180E+02  0.77326974863E+02  0.84867470254E+02  0.41800000000E+01 0.  1.
        -11    1    1    2    0    0  0.90009185844E+02  0.26912186167E+01  0.20604736883E+03  0.22486532502E+03  0.00000000000E+00 0.  1.
         11    1    1    2    0    0  0.50454381136E+01  0.10314096930E+02 -0.70858148744E+01  0.13492435424E+02  0.00000000000E+00 0. -1.
</event>
<event>
 7    1  0.2384639E-009  0.1254803E+03  0.7561462E-02  0.1234321E+00
         -2   -1    0    0    0  501 -0.00000000000E+00  0.00000000000E+00  0.13720710902E+03  0.13720710902E+03  0.00000000000E+00 0.  1.
          2   -1    0    0  501    0  0.00000000000E+00 -0.00000000000E+00 -0.15918413985E+03  0.15918413985E+03  0.00000000000E+00 0. -1.
         25    2    1    2    0    0 -0.97996278126E+02  0.15786024346E+02 -0.20834459303E+02  0.16104072054E+03  0.12509024697E+03 0.  0.
          5    1    3    3  502    0 -0.11277045377E+03  0.83872192722E+01  0.21697790273E+02  0.11522060229E+03  0.41800000000E+01 0.  1.
         -5    1    3    3    0  502  0.14774175641E+02  0.73988050738E+01 -0.42532249576E+02  0.45820118249E+02  0.41800000000E+01 0.  1.
        -11    1    1    2    0    0  0.29181287937E+02 -0.38483418677E+02  0.29591268679E+02  0.56640659078E+02  0.00000000000E+00 0.  1.
         11    1    1    2    0    0  0.68814990189E+02  0.22697394331E+02 -0.30733840206E+02  0.78709869254E+02  0.00000000000E+00 0. -1.
</event>
<event>
 7    1  0.2384639E-009  0.1632017E+03  0.7561462E-02  0.1185129E+00
          2   -1    0    0  501    0  0.00000000000E+00  0.00000000000E+00  0.28244256454E+03  0.28244256454E+03  0.00000000000E+00 0. -1.
         -2   -1    0    0    0  501 -0.00000000000E+00 -0.00000000000E+00 -0.10448129303E+03  0.10448129303E+03  0.00000000000E+00 0.  1.
         25    2    1    2    0    0  0.11625828196E+03 -0.63913221617E+02  0.10671840109E+03  0.21127553431E+03  0.12509055218E+03 0.  0.
          5    1    3    3  502    0  0.13349464931E+03 -0.35224264170E+02  0.53204956201E+02  0.14801962690E+03  0.41800000000E+01 0.  1.
         -5    1    3    3    0  502 -0.17236367355E+02 -0.28688957447E+02  0.53513444893E+02  0.63255907419E+02  0.41800000000E+01 0.  1.
        -11    1    1    2    0    0  0.11635864423E+02  0.11408519805E+02  0.25048791437E+02  0.29882931875E+02  0.00000000000E+00 0. -1.
         11    1    1    2    0    0 -0.12789414638E+03  0.52504701813E+02  0.46194078973E+02  0.14576539138E+03  0.00000000000E+00 0.  1.
</event>
<event>
 7    1  0.2384639E-009  0.1342988E+03  0.7561462E-02  0.1221213E+00
          2   -1    0    0  501    0  0.00000000000E+00  0.00000000000E+00  0.14738031816E+03  0.14738031816E+03  0.00000000000E+00 0. -1.
         -2   -1    0    0    0  501 -0.00000000000E+00 -0.00000000000E+00 -0.13125493241E+03  0.13125493241E+03  0.00000000000E+00 0.  1.
         25    2    1    2    0    0 -0.56611814151E+02  0.64554070548E+02  0.31442109073E+02  0.15494660947E+03  0.12509084714E+03 0.  0.
          5    1    3    3  502    0 -0.91911233425E+02  0.64825990901E+02  0.38015147654E+02  0.11879691821E+03  0.41800000000E+01 0. -1.
         -5    1    3    3    0  502  0.35299419274E+02 -0.27192035327E+00 -0.65730385817E+01  0.36149691256E+02  0.41800000000E+01 0. -1.
        -11    1    1    2    0    0  0.78088299421E+02 -0.60169944130E+02 -0.21532080793E+02  0.10090508008E+03  0.00000000000E+00 0.  1.
         11    1    1    2    0    0 -0.21476485270E+02 -0.43841264180E+01  0.62153574752E+01  0.22783561015E+02  0.00000000000E+00 0. -1.
</event>
<event>
 7    1  0.2384639E-009  0.1036318E+03  0.7561462E-02  0.1272839E+00
         -3   -1    0    0    0  501 -0.00000000000E+00  0.00000000000E+00  0.58372333621E+02  0.58372333621E+02  0.00000000000E+00 0.  1.
          3   -1    0    0  501    0  0.00000000000E+00 -0.00000000000E+00 -0.24165443148E+03  0.24165443148E+03  0.00000000000E+00 0. -1.
         25    2    1    2    0    0  0.14250371292E+02 -0.27422931168E+02 -0.57189695026E+02  0.14097312566E+03  0.12509064995E+03 0.  0.
          5    1    3    3  502    0  0.57156287406E+02 -0.34812368257E+02  0.23500844824E+01  0.67094988418E+02  0.41800000000E+01 0. -1.
         -5    1    3    3    0  502 -0.42905916115E+02  0.73894370889E+01 -0.59539779508E+02  0.73878137240E+02  0.41800000000E+01 0. -1.
        -11    1    1    2    0    0  0.37807787263E+01  0.59529087754E+02 -0.70173596750E+02  0.92099621375E+02  0.00000000000E+00 0. -1.
         11    1    1    2    0    0 -0.18031150018E+02 -0.32106156585E+02 -0.55918806080E+02  0.66954018065E+02  0.00000000000E+00 0.  1.
</event>
<event>
 7    1  0.2384639E-009  0.1110043E+03  0.7561462E-02  0.1258721E+00
         -2   -1    0    0    0  501 -0.00000000000E+00  0.00000000000E+00  0.59289828346E+02  0.59289828346E+02  0.00000000000E+00 0. -1.
          2   -1    0    0  501    0  0.00000000000E+00 -0.00000000000E+00 -0.28315957289E+03  0.28315957289E+03  0.00000000000E+00 0.  1.
         25    2    1    2    0    0  0.14430670244E+02 -0.69538423920E+02 -0.12360147452E+03  0.18965238838E+03  0.12508743850E+03 0.  0.
          5    1    3    3  502    0  0.48656984512E+02 -0.90957256849E+02 -0.87589971152E+02  0.13538906958E+03  0.41800000000E+01 0. -1.
         -5    1    3    3    0  502 -0.34226314268E+02  0.21418832929E+02 -0.36011503370E+02  0.54263318801E+02  0.41800000000E+01 0. -1.
        -11    1    1    2    0    0 -0.24321949225E+02  0.58511954017E+02 -0.13518472996E+02  0.64791628233E+02  0.00000000000E+00 0. -1.
         11    1    1    2    0    0  0.98912789809E+01  0.11026469904E+02 -0.86749797030E+02  0.88005384626E+02  0.00000000000E+00 0.  1.
</event>
<event>
 7    1  0.2384639E-009  0.1213258E+03  0.7561462E-02  0.1240926E+00
          2   -1    0    0  501    0  0.00000000000E+00  0.00000000000E+00  0.99454284462E+03  0.99454284462E+03  0.00000000000E+00 0. -1.
         -2   -1    0    0    0  501 -0.00000000000E+00 -0.00000000000E+00 -0.19148491686E+02  0.19148491686E+02  0.00000000000E+00 0.  1.
         25    2    1    2    0    0 -0.15573811769E+02 -0.79105249286E+02  0.62116171480E+03  0.63873991778E+03  0.12508646035E+03 0.  0.
          5    1    3    3  502    0 -0.48718251306E+02 -0.86881404740E+02  0.55827815069E+03  0.56711005320E+03  0.41800000000E+01 0.  1.
         -5    1    3    3    0  502  0.33144439536E+02  0.77761554539E+01  0.62883564104E+02  0.71629864584E+02  0.41800000000E+01 0.  1.
        -11    1    1    2    0    0 -0.26306769237E+02  0.53365500133E+02  0.27761972130E+03  0.28392363826E+03  0.00000000000E+00 0. -1.
         11    1    1    2    0    0  0.41880581006E+02  0.25739749153E+02  0.76612916842E+02  0.91027780259E+02  0.00000000000E+00 0.  1.
</event>
<event>
 7    1  0.2384639E-009  0.1380497E+03  0.7561462E-02  0.1215978E+00
         -2   -1    0    0    0  501 -0.00000000000E+00  0.00000000000E+00  0.62201363484E+02  0.62201363484E+02  0.00000000000E+00 0.  1.
          2   -1    0    0  501    0  0.00000000000E+00 -0.00000000000E+00 -0.49997977066E+03  0.49997977066E+03  0.00000000000E+00 0. -1.
         25    2    1    2    0    0  0.13442376935E+03  0.14391967137E+02 -0.28419975428E+03  0.33866586229E+03  0.12509271546E+03 0.  0.
          5    1    3    3  502    0  0.40507700227E+02  0.21516025127E+02 -0.21960164685E+03  0.22437951960E+03  0.41800000000E+01 0. -1.
         -5    1    3    3    0  502  0.93916069126E+02 -0.71240579902E+01 -0.64598107430E+02  0.11428634269E+03  0.41800000000E+01 0. -1.
        -11    1    1    2    0    0 -0.39610198057E+02  0.14435835329E+01  0.30365653783E+01  0.39752640829E+02  0.00000000000E+00 0.  1.
         11    1    1    2    0    0 -0.94813571295E+02 -0.15835550670E+02 -0.15661521827E+03  0.18376263102E+03  0.00000000000E+00 0. -1.
</event>
<event>
 7    1  0.2384639E-009  0.1096442E+03  0.7561462E-02  0.1261230E+00
          1   -1    0    0  501    0  0.00000000000E+00  0.00000000000E+00  0.34875410913E+03  0.34875410913E+03  0.00000000000E+00 0. -1.
         -1   -1    0    0    0  501 -0.00000000000E+00 -0.00000000000E+00 -0.71920321722E+02  0.71920321722E+02  0.00000000000E+00 0.  1.
         25    2    1    2    0    0  0.88479949145E+02  0.17906281404E+02  0.24496206142E+03  0.28948785894E+03  0.12508985819E+03 0.  0.
          5    1    3    3  502    0  0.99129009824E+02 -0.42478667701E+01  0.24520660347E+03  0.26455312462E+03  0.41800000000E+01 0. -1.
         -5    1    3    3    0  502 -0.10649060679E+02  0.22154148174E+02 -0.24454204999E+00  0.24934734317E+02  0.41800000000E+01 0. -1.
        -11    1    1    2    0    0 -0.52107011497E+02 -0.25309052057E+02  0.60910842128E+02  0.84058428798E+02  0.00000000000E+00 0.  1.
         11    1    1    2    0    0 -0.36372937648E+02  0.74027706536E+01 -0.29039116146E+02  0.47128143111E+02  0.00000000000E+00 0. -1.
</event>
<event>
 7    1  0.2384639E-009  0.1728868E+03  0.7561462E-02  0.1174870E+00
         -2   -1    0    0    0  501 -0.00000000000E+00  0.00000000000E+00  0.10739855796E+03  0.10739855796E+03  0.00000000000E+00 0.  1.
          2   -1    0    0  501    0  0.00000000000E+00 -0.00000000000E+00 -0.36043203230E+03  0.36043203230E+03  0.00000000000E+00 0. -1.
         25    2    1    2    0    0 -0.25293656006E+02  0.14450992919E+03 -0.21836795213E+03  0.29129808178E+03  0.12508845375E+03 0.  0.
          5    1    3    3  502    0  0.18808380219E+02  0.12883142050E+03 -0.20420892249E+03  0.24221900524E+03  0.41800000000E+01 0. -1.
         -5    1    3    3    0  502 -0.44102036225E+02  0.15678508689E+02 -0.14159029648E+02  0.49079076545E+02  0.41800000000E+01 0. -1.
        -11    1    1    2    0    0  0.55240806091E+02 -0.10790268589E+03 -0.63046166030E+01  0.12138486096E+03  0.00000000000E+00 0.  1.
         11    1    1    2    0    0 -0.29947150085E+02 -0.36607243297E+02 -0.28360905606E+02  0.55147647518E+02  0.00000000000E+00 0. -1.
</event>
<event>
 7    1  0.2384639E-009  0.3812702E+03  0.7561462E-02  0.1050465E+00
         -1   -1    0    0    0  501 -0.00000000000E+00  0.00000000000E+00  0.48904486207E+02  0.48904486207E+02  0.00000000000E+00 0.  1.
          1   -1    0    0  501    0  0.00000000000E+00 -0.00000000000E+00 -0.30577097899E+04  0.30577097899E+04  0.00000000000E+00 0. -1.
         25    2    1    2    0    0 -0.16550618608E+02 -0.37259156527E+03 -0.14195825609E+04  0.14730786059E+04  0.12509010537E+03 0.  0.
          5    1    3    3  502    0  0.36368245744E+02 -0.66414053743E+02 -0.40260897933E+03  0.40968883127E+03  0.41800000000E+01 0.  1.
         -5    1    3    3    0  502 -0.52918864352E+02 -0.30617751153E+03 -0.10169735816E+04  0.10633897746E+04  0.41800000000E+01 0.  1.
        -11    1    1    2    0    0 -0.36832309893E+01  0.31310504646E+03 -0.12562439825E+04  0.12946803775E+04  0.00000000000E+00 0.  1.
         11    1    1    2    0    0  0.20233849598E+02  0.59486518819E+02 -0.33297876032E+03  0.33885529274E+03  0.00000000000E+00 0. -1.
</event>
<event>
 7    1  0.2384639E-009  0.1575789E+03  0.7561462E-02  0.1191458E+00
         -2   -1    0    0    0  501 -0.00000000000E+00  0.00000000000E+00  0.67652851222E+03  0.67652851222E+03  0.00000000000E+00 0. -1.
          2   -1    0    0  501    0  0.00000000000E+00 -0.00000000000E+00 -0.53012752959E+02  0.53012752959E+02  0.00000000000E+00 0.  1.
         25    2    1    2    0    0 -0.12165786508E+03 -0.64004192128E+02  0.46558512417E+03  0.50131225752E+03  0.12508916400E+03 0.  0.
          5    1    3    3  502    0 -0.10019631561E+03 -0.76096299579E+02  0.21244398082E+03  0.24694101696E+03  0.41800000000E+01 0.  1.
         -5    1    3    3    0  502 -0.21461549467E+02  0.12092107451E+02  0.25314114335E+03  0.25437124056E+03  0.41800000000E+01 0.  1.
        -11    1    1    2    0    0  0.64653877941E+02  0.82078779919E+02  0.10866269719E+03  0.15074691309E+03  0.00000000000E+00 0.  1.
         11    1    1    2    0    0  0.57003987137E+02 -0.18074587791E+02  0.49267937900E+02  0.77482094565E+02  0.00000000000E+00 0. -1.
</event>
<event>
 7    1  0.2933061E-009  0.1062299E+03  0.7561462E-02  0.1267715E+00
          1   -1    0    0  501    0  0.00000000000E+00  0.00000000000E+00  0.15278131865E+03  0.15278131865E+03  0.00000000000E+00 0. -1.
         -1   -1    0    0    0  501 -0.00000000000E+00 -0.00000000000E+00 -0.12683030574E+03  0.12683030574E+03  0.00000000000E+00 0.  1.
         25    2    1    2    0    0 -0.81444595065E+02 -0.29886667907E+02  0.10390384519E+02  0.15258552653E+03  0.12509175765E+03 0.  0.
          5    1    3    3  502    0 -0.84499602765E+02 -0.53891157030E+02 -0.30538823253E+02  0.10485481295E+03  0.41800000000E+01 0. -1.
         -5    1    3    3    0  502  0.30550076997E+01  0.24004489122E+02  0.40929207772E+02  0.47730713580E+02  0.41800000000E+01 0. -1.
        -11    1    1    2    0    0  0.46328438117E+02  0.10582264508E+02 -0.37498684085E+02  0.60534781808E+02  0.00000000000E+00 0.  1.
         11    1    1    2    0    0  0.35116156949E+02  0.19304403399E+02  0.53059312477E+02  0.66491316049E+02  0.00000000000E+00 0. -1.
</event>
<event>
 7    1  0.2384639E-009  0.8436559E+02  0.7561462E-02  0.1317100E+00
          1   -1    0    0  501    0  0.00000000000E+00  0.00000000000E+00  0.56542322704E+03  0.56542322704E+03  0.00000000000E+00 0. -1.
         -1   -1    0    0    0  501 -0.00000000000E+00 -0.00000000000E+00 -0.25958625927E+02  0.25958625927E+02  0.00000000000E+00 0.  1.
         25    2    1    2    0    0  0.48422108408E+02 -0.13352011403E+01  0.36244540613E+03  0.38647178681E+03  0.12508911316E+03 0.  0.
          5    1    3    3  502    0  0.10325749402E+02  0.25036038221E+02  0.73898585185E+01  0.28381450270E+02  0.41800000000E+01 0.  1.
         -5    1    3    3    0  502  0.38096359006E+02 -0.26371239361E+02  0.35505554761E+03  0.35809033654E+03  0.41800000000E+01 0.  1.
        -11    1    1    2    0    0 -0.33180054222E+02  0.40748922836E+02  0.56324932102E+02  0.77031738178E+02  0.00000000000E+00 0.  1.
         11    1    1    2    0    0 -0.15242054186E+02 -0.39413721696E+02  0.12069426288E+03  0.12787832798E+03  0.00000000000E+00 0. -1.
</event>
<event>
 7    1  0.2384639E-009  0.1138752E+03  0.7561462E-02  0.1253557E+00
          1   -1    0    0  501    0  0.00000000000E+00  0.00000000000E+00  0.19316006472E+04  0.19316006472E+04  0.00000000000E+00 0. -1.
         -1   -1    0    0    0  501 -0.00000000000E+00 -0.00000000000E+00 -0.14482980958E+02  0.14482980958E+02  0.00000000000E+00 0.  1.
         25    2    1    2    0    0 -0.19095416648E+02  0.54467814633E+02  0.16972267317E+04  0.17028085867E+04  0.12508847417E+03 0.  0.
          5    1    3    3  502    0  0.30958141540E+00 -0.35194681856E+02  0.23043104318E+03  0.23314094349E+03  0.41800000000E+01 0. -1.
         -5    1    3    3    0  502 -0.19404998064E+02  0.89662496489E+02  0.14667956886E+04  0.14696676433E+04  0.41800000000E+01 0. -1.
        -11    1    1    2    0    0  0.51754133721E+02 -0.32450159672E+02  0.10106883973E+03  0.11809493463E+03  0.00000000000E+00 0.  1.
         11    1    1    2    0    0 -0.32658717073E+02 -0.22017654960E+02  0.11882209480E+03  0.12518010682E+03  0.00000000000E+00 0. -1.
</event>
<event>
 7    1  0.2384639E-009  0.1786612E+03  0.7561462E-02  0.1169105E+00
         -1   -1    0    0    0  501 -0.00000000000E+00  0.00000000000E+00  0.56621283455E+02  0.56621283455E+02  0.00000000000E+00 0.  1.
          1   -1    0    0  501    0  0.00000000000E+00 -0.00000000000E+00 -0.65485440070E+03  0.65485440070E+03  0.00000000000E+00 0. -1.
         25    2    1    2    0    0  0.12810146645E+03 -0.91050818002E+02 -0.35443999212E+03  0.40740040137E+03  0.12508853607E+03 0.  0.
          5    1    3    3  502    0 -0.19933514981E+02 -0.35224156773E+02 -0.51742741890E+02  0.65824539332E+02  0.41800000000E+01 0. -1.
         -5    1    3    3    0  502  0.14803498143E+03 -0.55826661229E+02 -0.30269725023E+03  0.34157586204E+03  0.41800000000E+01 0. -1.
        -11    1    1    2    0    0 -0.51868387153E+02  0.48759987962E+02 -0.18683945667E+03  0.19994211308E+03  0.00000000000E+00 0. -1.
         11    1    1    2    0    0 -0.76233079293E+02  0.42290830040E+02 -0.56953668457E+02  0.10413316971E+03  0.00000000000E+00 0.  1.
</event>
<event>
 7    1  0.2384639E-009  0.1087437E+03  0.7561462E-02  0.1262914E+00
         -3   -1    0    0    0  501 -0.00000000000E+00  0.00000000000E+00  0.93656346657E+02  0.93656346657E+02  0.00000000000E+00 0.  1.
          3   -1    0    0  501    0  0.00000000000E+00 -0.00000000000E+00 -0.27063147649E+03  0.27063147649E+03  0.00000000000E+00 0. -1.
         25    2    1    2    0    0  0.62528685804E+02  0.42556241183E+02 -0.19664235174E+03  0.24503251007E+03  0.12510733903E+03 0.  0.
          5    1    3    3  502    0  0.91502168243E+02  0.34373933324E+02 -0.85898383793E+02  0.13019300605E+03  0.41800000000E+01 0. -1.
         -5    1    3    3    0  502 -0.28973482439E+02  0.81823078595E+01 -0.11074396795E+03  0.11483950402E+03  0.41800000000E+01 0. -1.
        -11    1    1    2    0    0 -0.15346093148E+02  0.10240760574E+02  0.41286198744E+02  0.45220857563E+02  0.00000000000E+00 0.  1.
         11    1    1    2    0    0 -0.47182592657E+02 -0.52797001757E+02 -0.21618976836E+02  0.74034455517E+02  0.00000000000E+00 0. -1.
</event>
<event>
 7    1  0.2384639E-009  0.1733051E+03  0.7561462E-02  0.1174444E+00
          3   -1    0    0  501    0  0.00000000000E+00  0.00000000000E+00  0.81936973993E+02  0.81936973993E+02  0.00000000000E+00 0. -1.
         -3   -1    0    0    0  501 -0.00000000000E+00 -0.00000000000E+00 -0.44958836681E+03  0.44958836681E+03  0.00000000000E+00 0.  1.
         25    2    1    2    0    0  0.11567243324E+03 -0.72465683263E+02 -0.19452406256E+03  0.26854936871E+03  0.12509102868E+03 0.  0.
          5    1    3    3  502    0  0.61292186568E+02  0.28957443701E+01 -0.15631882314E+03  0.16798263106E+03  0.41800000000E+01 0.  1.
         -5    1    3    3    0  502  0.54380246674E+02 -0.75361427633E+02 -0.38205239425E+02  0.10056673766E+03  0.41800000000E+01 0.  1.
        -11    1    1    2    0    0 -0.97901998806E+01 -0.37895936536E+02 -0.12273269908E+02  0.41019302455E+02  0.00000000000E+00 0. -1.
         11    1    1    2    0    0 -0.10588223336E+03  0.11036161980E+03 -0.16085406035E+03  0.22195666964E+03  0.00000000000E+00 0.  1.
</event>
<event>
 7    1  0.2384639E-009  0.1163930E+03  0.7561462E-02  0.1249169E+00
         -3   -1    0    0    0  501 -0.00000000000E+00  0.00000000000E+00  0.32606605902E+02  0.32606605902E+02  0.00000000000E+00 0.  1.
          3   -1    0    0  501    0  0.00000000000E+00 -0.00000000000E+00 -0.85037512061E+03  0.85037512061E+03  0.00000000000E+00 0. -1.
         25    2    1    2    0    0 -0.49201579557E+02  0.89383231008E+02 -0.61539040508E+03  0.63620999252E+03  0.12509055320E+03 0.  0.
          5    1    3    3  502    0 -0.55757692545E+02  0.89760880712E+02 -0.25931382595E+03  0.28004833281E+03  0.41800000000E+01 0. -1.
         -5    1    3    3    0  502  0.65561129882E+01 -0.37764970366E+00 -0.35607657914E+03  0.35616165971E+03  0.41800000000E+01 0. -1.
        -11    1    1    2    0    0  0.20481948539E+00 -0.64125892462E+02 -0.40692485361E+02  0.75947681992E+02  0.00000000000E+00 0.  1.
         11    1    1    2    0    0  0.48996760071E+02 -0.25257338546E+02 -0.16168562426E+03  0.17082405199E+03  0.00000000000E+00 0. -1.
</event>
<event>
 7    1  0.2384639E-009  0.1088739E+03  0.7561462E-02  0.1262670E+00
          1   -1    0    0  501    0  0.00000000000E+00  0.00000000000E+00  0.27666958097E+02  0.27666958097E+02  0.00000000000E+00 0. -1.
         -1   -1    0    0    0  501 -0.00000000000E+00 -0.00000000000E+00 -0.47340268130E+03  0.47340268130E+03  0.00000000000E+00 0.  1.
         25    2    1    2    0    0  0.18091423941E+02 -0.27719537948E+02 -0.26680491424E+03  0.29652622864E+03  0.12508904668E+03 0.  0.
          5    1    3    3  502    0 -0.28548400621E+02  0.31920080340E+02 -0.15904105743E+03  0.16475871162E+03  0.41800000000E+01 0. -1.
         -5    1    3    3    0  502  0.46639824562E+02 -0.59639618288E+02 -0.10776385681E+03  0.13176751701E+03  0.41800000000E+01 0. -1.
        -11    1    1    2    0    0  0.36651297211E+02 -0.18072418789E+01 -0.72937998788E+02  0.81648854111E+02  0.00000000000E+00 0. -1.
         11    1    1    2    0    0 -0.54742721151E+02  0.29526779827E+02 -0.10599281017E+03  0.12289455665E+03  0.00000000000E+00 0.  1.
</event>
<event>
 7    1  0.2384639E-009  0.1908409E+03  0.7561462E-02  0.1157705E+00
         -1   -1    0    0    0  501 -0.00000000000E+00  0.00000000000E+00  0.11392542550E+03  0.11392542550E+03  0.00000000000E+00 0.  1.
          1   -1    0    0  501    0  0.00000000000E+00 -0.00000000000E+00 -0.39472967077E+03  0.39472967077E+03  0.00000000000E+00 0. -1.
         25    2    1    2    0    0  0.56266413794E+02 -0.16628491569E+03 -0.91016202840E+02  0.23398185055E+03  0.12508786792E+03 0.  0.
          5    1    3    3  502    0  0.63496593093E+02 -0.11296880791E+03 -0.17491118654E+01  0.12966996833E+03  0.41800000000E+01 0.  1.
         -5    1    3    3    0  502 -0.72301792997E+01 -0.53316107782E+02 -0.89267090975E+02  0.10431188222E+03  0.41800000000E+01 0.  1.
        -11    1    1    2    0    0 -0.78422470965E+02  0.93811495971E+02 -0.12654440980E+03  0.17596638423E+03  0.00000000000E+00 0.  1.
         11    1    1    2    0    0  0.22156057172E+02  0.72473419717E+02 -0.63243632633E+02  0.98706861482E+02  0.00000000000E+00 0. -1.
</event>
<event>
 7    1  0.2384639E-009  0.2759279E+03  0.7561462E-02  0.1097934E+00
          2   -1    0    0  501    0  0.00000000000E+00  0.00000000000E+00  0.53887345404E+03  0.53887345404E+03  0.00000000000E+00 0. -1.
         -2   -1    0    0    0  501 -0.00000000000E+00 -0.00000000000E+00 -0.15786564755E+03  0.15786564755E+03  0.00000000000E+00 0.  1.
         25    2    1    2    0    0  0.11962619653E+03 -0.24020144238E+03  0.15213405851E+03  0.33286525177E+03  0.12508934512E+03 0.  0.
          5    1    3    3  502    0  0.13393221518E+03 -0.20251630983E+03  0.90598163839E+02  0.25918370648E+03  0.41800000000E+01 0. -1.
         -5    1    3    3    0  502 -0.14306018653E+02 -0.37685132544E+02  0.61535894666E+02  0.73681545294E+02  0.41800000000E+01 0. -1.
        -11    1    1    2    0    0 -0.39540695316E+02  0.70015269064E+02  0.12605468295E+03  0.14951718156E+03  0.00000000000E+00 0.  1.
         11    1    1    2    0    0 -0.80085501210E+02  0.17018617331E+03  0.10281906504E+03  0.21435666826E+03  0.00000000000E+00 0. -1.
</event>
<event>
 7    1  0.2384639E-009  0.2441909E+03  0.7561462E-02  0.1117032E+00
         -1   -1    0    0    0  501 -0.00000000000E+00  0.00000000000E+00  0.48270619946E+03  0.48270619946E+03  0.00000000000E+00 0.  1.
          1   -1    0    0  501    0  0.00000000000E+00 -0.00000000000E+00 -0.14422295675E+03  0.14422295675E+03  0.00000000000E+00 0. -1.
         25    2    1    2    0    0  0.22252674653E+03 -0.24049322172E+02  0.69874184950E+02  0.26576347718E+03  0.12510516081E+03 0.  0.
          5    1    3    3  502    0  0.82336098221E+02 -0.66362132128E+02  0.52806964881E+02  0.11827600598E+03  0.41800000000E+01 0. -1.
         -5    1    3    3    0  502  0.14019064831E+03  0.42312809955E+02  0.17067220069E+02  0.14748747119E+03  0.41800000000E+01 0. -1.
        -11    1    1    2    0    0 -0.60232600226E+02 -0.26874682603E+02  0.11186862738E+03  0.12986456209E+03  0.00000000000E+00 0.  1.
         11    1    1    2    0    0 -0.16229414630E+03  0.50924004775E+02  0.15674043037E+03  0.23130111694E+03  0.00000000000E+00 0. -1.
</event>
<event>
 7    1  0.2384639E-009  0.8370134E+02  0.7561462E-02  0.1318864E+00
         -4   -1    0    0    0  501 -0.00000000000E+00  0.00000000000E+00  0.96700681911E+02  0.96700681911E+02  0.00000000000E+00 0.  1.
          4   -1    0    0  501    0  0.00000000000E+00 -0.00000000000E+00 -0.14224648018E+03  0.14224648018E+03  0.00000000000E+00 0. -1.
         25    2    1    2    0    0  0.76914544580E+01  0.14353918424E+02 -0.70343762864E+02  0.14443106438E+03  0.12508754510E+03 0.  0.
          5    1    3    3  502    0 -0.42528658880E+02  0.29519016068E+02 -0.75406013975E+02  0.91561992548E+02  0.41800000000E+01 0.  1.
         -5    1    3    3    0  502  0.50220113338E+02 -0.15165097644E+02  0.50622511112E+01  0.52869071833E+02  0.41800000000E+01 0.  1.
        -11    1    1    2    0    0  0.23663082209E+02 -0.19996366098E+02  0.46566734065E+02  0.55930821898E+02  0.00000000000E+00 0.  1.
         11    1    1    2    0    0 -0.31354536667E+02  0.56424476734E+01 -0.21768769475E+02  0.38585275816E+02  0.00000000000E+00 0. -1.
</event>
<event>
 7    1  0.2384639E-009  0.1035599E+03  0.7561462E-02  0.1272983E+00
         -4   -1    0    0    0  501 -0.00000000000E+00  0.00000000000E+00  0.11197973037E+03  0.11197973037E+03  0.00000000000E+00 0.  1.
          4   -1    0    0  501    0  0.00000000000E+00 -0.00000000000E+00 -0.14059906071E+03  0.14059906071E+03  0.00000000000E+00 0. -1.
         25    2    1    2    0    0  0.17713881241E+02  0.57827159898E+02 -0.36712414335E+02  0.14371193612E+03  0.12509019628E+03 0.  0.
          5    1    3    3  502    0  0.61832503571E+02  0.21510450007E+02  0.14136239195E+02  0.67106360473E+02  0.41800000000E+01 0. -1.
         -5    1    3    3    0  502 -0.44118622331E+02  0.36316709891E+02 -0.50848653530E+02  0.76605575642E+02  0.41800000000E+01 0. -1.
        -11    1    1    2    0    0  0.18384473835E+02 -0.30717691797E+01 -0.28281360505E+02  0.33871226670E+02  0.00000000000E+00 0. -1.
         11    1    1    2    0    0 -0.36098355076E+02 -0.54755390718E+02  0.36374444500E+02  0.74995628303E+02  0.00000000000E+00 0.  1.
</event>
<event>
 7    1  0.2384639E-009  0.8790247E+02  0.7561462E-02  0.1308012E+00
          1   -1    0    0  501    0  0.00000000000E+00  0.00000000000E+00  0.45771594749E+03  0.45771594749E+03  0.00000000000E+00 0. -1.
         -1   -1    0    0    0  501 -0.00000000000E+00 -0.00000000000E+00 -0.39038070764E+02  0.39038070764E+02  0.00000000000E+00 0.  1.
         25    2    1    2    0    0 -0.29043628134E+02 -0.71923748568E+02  0.21958999954E+03  0.26435613594E+03  0.12509132970E+03 0.  0.
          5    1    3    3  502    0 -0.20212045528E+02 -0.52264866692E+02  0.14417840289E+02  0.58012839901E+02  0.41800000000E+01 0. -1.
         -5    1    3    3    0  502 -0.88315826057E+01 -0.19658881876E+02  0.20517215925E+03  0.20634329604E+03  0.41800000000E+01 0. -1.
        -11    1    1    2    0    0  0.27867887109E+02  0.22316472061E+01  0.13448965510E+03  0.13736472149E+03  0.00000000000E+00 0. -1.
         11    1    1    2    0    0  0.11757410249E+01  0.69692101362E+02  0.64598222077E+02  0.95033160816E+02  0.00000000000E+00 0.  1.
</event>
<event>
 7    1  0.2384639E-009  0.2683922E+03  0.7561462E-02  0.1102203E+00
          1   -1    0    0  501    0  0.00000000000E+00  0.00000000000E+00  0.35640784872E+03  0.35640784872E+03  0.00000000000E+00 0. -1.
         -1   -1    0    0    0  501 -0.00000000000E+00 -0.00000000000E+00 -0.23498300750E+03  0.23498300750E+03  0.00000000000E+00 0.  1.
         25    2    1    2    0    0  0.25346516153E+03  0.81411912044E+02  0.94723099508E+02  0.30901920292E+03  0.12509162505E+03 0.  0.
          5    1    3    3  502    0  0.17555080789E+03  0.57379949440E+02  0.10239375536E+01  0.18474053588E+03  0.41800000000E+01 0. -1.
         -5    1    3    3    0  502  0.77914353643E+02  0.24031962604E+02  0.93699161954E+02  0.12427866704E+03  0.41800000000E+01 0. -1.
        -11    1    1    2    0    0 -0.21379482093E+03 -0.49400162310E+02  0.51938788437E+02  0.22549110678E+03  0.00000000000E+00 0. -1.
         11    1    1    2    0    0 -0.39670340601E+02 -0.32011749735E+02 -0.25237046723E+02  0.56880546514E+02  0.00000000000E+00 0.  1.
</event>
<event>
 7    1  0.2384639E-009  0.1244533E+03  0.7561462E-02  0.1235926E+00
         -1   -1    0    0    0  501 -0.00000000000E+00  0.00000000000E+00  0.70079230892E+03  0.70079230892E+03  0.00000000000E+00 0.  1.
          1   -1    0    0  501    0  0.00000000000E+00 -0.00000000000E+00 -0.22161223969E+02  0.22161223969E+02  0.00000000000E+00 0. -1.
         25    2    1    2    0    0  0.14405055497E+02  0.56932020534E+02  0.38518190663E+03  0.40922066212E+03  0.12509072121E+03 0.  0.
          5    1    3    3  502    0  0.17119916811E+02  0.96529951754E+02  0.28239430341E+03  0.29895674961E+03  0.41800000000E+01 0. -1.
         -5    1    3    3    0  502 -0.27148613136E+01 -0.39597931219E+02  0.10278760321E+03  0.11026391251E+03  0.41800000000E+01 0. -1.
        -11    1    1    2    0    0  0.39410624213E+02 -0.13315091102E+02  0.11681704407E+03  0.12400286584E+03  0.00000000000E+00 0. -1.
         11    1    1    2    0    0 -0.53815679710E+02 -0.43616929432E+02  0.17663213425E+03  0.18973000492E+03  0.00000000000E+00 0.  1.
</event>
<event>
 7    1  0.2384639E-009  0.1079155E+03  0.7561462E-02  0.1264479E+00
         -1   -1    0    0    0  501 -0.00000000000E+00  0.00000000000E+00  0.17441066022E+02  0.17441066022E+02  0.00000000000E+00 0.  1.
          1   -1    0    0  501    0  0.00000000000E+00 -0.00000000000E+00 -0.70941072540E+03  0.70941072540E+03  0.00000000000E+00 0. -1.
         25    2    1    2    0    0  0.12821282452E+02  0.25825751922E+02 -0.44637899394E+03  0.46447244270E+03  0.12509631907E+03 0.  0.
          5    1    3    3  502    0  0.14871256659E+02  0.74368181466E+02 -0.32289182104E+03  0.33170526252E+03  0.41800000000E+01 0. -1.
         -5    1    3    3    0  502 -0.20499742069E+01 -0.48542429544E+02 -0.12348717290E+03  0.13276718017E+03  0.41800000000E+01 0. -1.
        -11    1    1    2    0    0  0.34769912462E+02 -0.26169652959E+02 -0.96063657523E+02  0.10546100628E+03  0.00000000000E+00 0.  1.
         11    1    1    2    0    0 -0.47591194914E+02  0.34390103669E+00 -0.14952700791E+03  0.15691834245E+03  0.00000000000E+00 0. -1.
</event>
<event>
 7    1  0.2384639E-009  0.1652735E+03  0.7561462E-02  0.1182868E+00
          3   -1    0    0  501    0  0.00000000000E+00  0.00000000000E+00  0.65330714245E+02  0.65330714245E+02  0.00000000000E+00 0. -1.
         -3   -1    0    0    0  501 -0.00000000000E+00 -0.00000000000E+00 -0.46164690499E+03  0.46164690499E+03  0.00000000000E+00 0.  1.
         25    2    1    2    0    0  0.12797394542E+03 -0.42031059359E+02 -0.19101649130E+03  0.26510252003E+03  0.12509238794E+03 0.  0.
          5    1    3    3  502    0  0.52002539386E+02 -0.70683443864E+02 -0.46780356845E+02  0.99530334701E+02  0.41800000000E+01 0.  1.
         -5    1    3    3    0  502  0.75971406032E+02  0.28652384506E+02 -0.14423613445E+03  0.16557218533E+03  0.41800000000E+01 0.  1.
        -11    1    1    2    0    0 -0.88117680976E+02  0.70137591750E+02 -0.12818138803E+03  0.17062964489E+03  0.00000000000E+00 0.  1.
         11    1    1    2    0    0 -0.39856264443E+02 -0.28106532391E+02 -0.77118311421E+02  0.91245454324E+02  0.00000000000E+00 0. -1.
</event>
<event>
 7    1  0.2384639E-009  0.1061178E+03  0.7561462E-02  0.1267933E+00
         -2   -1    0    0    0  501 -0.00000000000E+00  0.00000000000E+00  0.10420177162E+03  0.10420177162E+03  0.00000000000E+00 0.  1.
          2   -1    0    0  501    0  0.00000000000E+00 -0.00000000000E+00 -0.15210661388E+03  0.15210661388E+03  0.00000000000E+00 0. -1.
         25    2    1    2    0    0  0.16636597391E+02 -0.31136026359E+02 -0.80459488711E+02  0.15286435844E+03  0.12509018446E+03 0.  0.
          5    1    3    3  502    0  0.61193441934E+02  0.24684449260E+01 -0.74576700175E+02  0.96591341046E+02  0.41800000000E+01 0.  1.
         -5    1    3    3    0  502 -0.44556844544E+02 -0.33604471285E+02 -0.58827885360E+01  0.56273017397E+02  0.41800000000E+01 0.  1.
        -11    1    1    2    0    0 -0.47458640624E+02 -0.46144362713E+01  0.29656007000E+02  0.56152420635E+02  0.00000000000E+00 0.  1.
         11    1    1    2    0    0  0.30822043234E+02  0.35750462630E+02  0.28986394458E+01  0.47291606422E+02  0.00000000000E+00 0. -1.
</event>
<event>
 7    1  0.2384639E-009  0.9792236E+02  0.7561462E-02  0.1284727E+00
         -1   -1    0    0    0  501 -0.00000000000E+00  0.00000000000E+00  0.41151864671E+03  0.41151864671E+03  0.00000000000E+00 0.  1.
          1   -1    0    0  501    0  0.00000000000E+00 -0.00000000000E+00 -0.67170350619E+02  0.67170350619E+02  0.00000000000E+00 0. -1.
         25    2    1    2    0    0 -0.42696750219E+02  0.39500567144E+02  0.34382922561E+03  0.37047092502E+03  0.12508741992E+03 0.  0.
          5    1    3    3  502    0  0.31254535320E+02  0.53543632176E+02  0.14103860575E+03  0.15412049583E+03  0.41800000000E+01 0. -1.
         -5    1    3    3    0  502 -0.73951285539E+02 -0.14043065032E+02  0.20279061986E+03  0.21635042919E+03  0.41800000000E+01 0. -1.
        -11    1    1    2    0    0  0.11076502275E+02 -0.12839156574E+02  0.44634074567E+02  0.47746554395E+02  0.00000000000E+00 0.  1.
         11    1    1    2    0    0  0.31620247945E+02 -0.26661410570E+02 -0.44115004080E+02  0.60471517912E+02  0.00000000000E+00 0. -1.
</event>
<event>
 7    1  0.2384639E-009  0.1255787E+03  0.7561462E-02  0.1234168E+00
          1   -1    0    0  501    0  0.00000000000E+00  0.00000000000E+00  0.63295067497E+03  0.63295067497E+03  0.00000000000E+00 0. -1.
         -1   -1    0    0    0  501 -0.00000000000E+00 -0.00000000000E+00 -0.31556322114E+02  0.31556322114E+02  0.00000000000E+00 0.  1.
         25    2    1    2    0    0 -0.36079518854E+02  0.81657458674E+02  0.37082363662E+03  0.40140670013E+03  0.12508995641E+03 0.  0.
          5    1    3    3  502    0 -0.54548757932E+02  0.14111382651E+02  0.58606347513E+02  0.81405617011E+02  0.41800000000E+01 0. -1.
         -5    1    3    3    0  502  0.18469239078E+02  0.67546076024E+02  0.31221728911E+03  0.32000108312E+03  0.41800000000E+01 0. -1.
        -11    1    1    2    0    0 -0.26953289968E+02 -0.92230249024E+01  0.75648282184E+02  0.80834439602E+02  0.00000000000E+00 0.  1.
         11    1    1    2    0    0  0.63032808822E+02 -0.72434433772E+02  0.15492243405E+03  0.18226585735E+03  0.00000000000E+00 0. -1.
</event>
<event>
 7    1  0.2497897E-009  0.9639055E+02  0.7561462E-02  0.1288075E+00
         -1   -1    0    0    0  501 -0.00000000000E+00  0.00000000000E+00  0.14877830488E+03  0.14877830488E+03  0.00000000000E+00 0.  1.
          1   -1    0    0  501    0  0.00000000000E+00 -0.00000000000E+00 -0.11867275910E+03  0.11867275910E+03  0.00000000000E+00 0. -1.
         25    2    1    2    0    0 -0.37168399902E+02 -0.21946966714E+02 -0.47141406257E+02  0.14047894145E+03  0.12509540962E+03 0.  0.
          5    1    3    3  502    0 -0.73012367411E+02  0.18679949892E+02 -0.13815285310E+02  0.76733831073E+02  0.41800000000E+01 0. -1.
         -5    1    3    3    0  502  0.35843967509E+02 -0.40626916606E+02 -0.33326120946E+02  0.63745110377E+02  0.41800000000E+01 0. -1.
        -11    1    1    2    0    0  0.34928561047E+00  0.25925611093E+02  0.85231257832E+02  0.89087746759E+02  0.00000000000E+00 0.  1.
         11    1    1    2    0    0  0.36819114292E+02 -0.39786443786E+01 -0.79843058012E+01  0.37884375769E+02  0.00000000000E+00 0. -1.
</event>
<event>
 7    1  0.2384639E-009  0.1096528E+03  0.7561462E-02  0.1261214E+00
         -2   -1    0    0    0  501 -0.00000000000E+00  0.00000000000E+00  0.90103513950E+02  0.90103513950E+02  0.00000000000E+00 0.  1.
          2   -1    0    0  501    0  0.00000000000E+00 -0.00000000000E+00 -0.18034174570E+03  0.18034174570E+03  0.00000000000E+00 0. -1.
         25    2    1    2    0    0  0.32255876001E+02  0.24211399486E+02  0.90593760381E+01  0.13174181488E+03  0.12508876885E+03 0.  0.
          5    1    3    3  502    0  0.57078234421E+02  0.61170552026E+02 -0.73925678248E+01  0.84094492916E+02  0.41800000000E+01 0.  1.
         -5    1    3    3    0  502 -0.24822358420E+02 -0.36959152540E+02  0.16451943863E+02  0.47647321969E+02  0.41800000000E+01 0.  1.
        -11    1    1    2    0    0 -0.34079472591E+02 -0.52435343018E+02 -0.43597069252E+02  0.76233720209E+02  0.00000000000E+00 0.  1.
         11    1    1    2    0    0  0.18235965896E+01  0.28223943532E+02 -0.55700538536E+02  0.62469724557E+02  0.00000000000E+00 0. -1.
</event>
<event>
 7    1  0.2384639E-009  0.1308042E+03  0.7561462E-02  0.1226267E+00
         -2   -1    0    0    0  501 -0.00000000000E+00  0.00000000000E+00  0.12798288035E+03  0.12798288035E+03  0.00000000000E+00 0. -1.
          2   -1    0    0  501    0  0.00000000000E+00 -0.00000000000E+00 -0.18144257045E+03  0.18144257045E+03  0.00000000000E+00 0.  1.
         25    2    1    2    0    0  0.83175134109E+02 -0.10741198861E+02 -0.95770885317E+02  0.17847340970E+03  0.12508884526E+03 0.  0.
          5    1    3    3  502    0 -0.29774063100E+02  0.39716386969E+01 -0.43626138758E+02  0.53131733742E+02  0.41800000000E+01 0.  1.
         -5    1    3    3    0  502  0.11294919721E+03 -0.14712837558E+02 -0.52144746559E+02  0.12534167596E+03  0.41800000000E+01 0.  1.
        -11    1    1    2    0    0 -0.82142882187E+02  0.37658570286E+02  0.49552455287E+02  0.10305856022E+03  0.00000000000E+00 0.  1.
         11    1    1    2    0    0 -0.10322519215E+01 -0.26917371425E+02 -0.72412600690E+01  0.27893480884E+02  0.00000000000E+00 0. -1.
</event>
<event>
 7    1  0.2384639E-009  0.9363214E+02  0.7561462E-02  0.1294287E+00
          2   -1    0    0  501    0  0.00000000000E+00  0.00000000000E+00  0.58004690079E+03  0.58004690079E+03  0.00000000000E+00 0. -1.
         -2   -1    0    0    0  501 -0.00000000000E+00 -0.00000000000E+00 -0.30374252300E+02  0.30374252300E+02  0.00000000000E+00 0.  1.
         25    2    1    2    0    0  0.31898012791E+02 -0.68323792900E+02  0.34083904418E+03  0.37081569770E+03  0.12508958282E+03 0.  0.
          5    1    3    3  502    0 -0.11580415797E+01 -0.37710588365E+02  0.31776536443E+03  0.32002457525E+03  0.41800000000E+01 0. -1.
         -5    1    3    3    0  502  0.33056054371E+02 -0.30613204535E+02  0.23073679747E+02  0.50791122448E+02  0.41800000000E+01 0. -1.
        -11    1    1    2    0    0 -0.54802176300E+02  0.41230751271E+02  0.77142337071E+02  0.10321915300E+03  0.00000000000E+00 0.  1.
         11    1    1    2    0    0  0.22904163509E+02  0.27093041630E+02  0.13169126724E+03  0.13638630239E+03  0.00000000000E+00 0. -1.
</event>
<event>
 7    1  0.2384639E-009  0.1243412E+03  0.7561462E-02  0.1236102E+00
          3   -1    0    0  501    0  0.00000000000E+00  0.00000000000E+00  0.37968094771E+03  0.37968094771E+03  0.00000000000E+00 0. -1.
         -3   -1    0    0    0  501 -0.00000000000E+00 -0.00000000000E+00 -0.54114395036E+02  0.54114395036E+02  0.00000000000E+00 0.  1.
         25    2    1    2    0    0 -0.88296593448E+02 -0.24385594626E+02  0.14617827104E+03  0.21308013159E+03  0.12507641630E+03 0.  0.
          5    1    3    3  502    0 -0.10373689751E+03 -0.43181408108E+02  0.68708325636E+02  0.13177361011E+03  0.41800000000E+01 0.  1.
         -5    1    3    3    0  502  0.15440304060E+02  0.18795813481E+02  0.77469945399E+02  0.81306521473E+02  0.41800000000E+01 0.  1.
        -11    1    1    2    0    0  0.77728855177E+02 -0.73824309171E+01  0.65205345323E+02  0.10172518013E+03  0.00000000000E+00 0.  1.
         11    1    1    2    0    0  0.10567738271E+02  0.31768025544E+02  0.11418293632E+03  0.11899003103E+03  0.00000000000E+00 0. -1.
</event>
<event>
 7    1  0.2384639E-009  0.1209113E+03  0.7561462E-02  0.1241601E+00
         -1   -1    0    0    0  501 -0.00000000000E+00  0.00000000000E+00  0.16135190096E+03  0.16135190096E+03  0.00000000000E+00 0.  1.
          1   -1    0    0  501    0  0.00000000000E+00 -0.00000000000E+00 -0.10645467941E+03  0.10645467941E+03  0.00000000000E+00 0. -1.
         25    2    1    2    0    0  0.42928574117E+02 -0.66928914016E+02  0.24231335839E+02  0.15018916469E+03  0.12508911043E+03 0.  0.
          5    1    3    3  502    0  0.44483630200E+02 -0.93038369464E+02  0.48705612365E+02  0.11412554764E+03  0.41800000000E+01 0.  1.
         -5    1    3    3    0  502 -0.15550560834E+01  0.26109455449E+02 -0.24474276527E+02  0.36063617050E+02  0.41800000000E+01 0.  1.
        -11    1    1    2    0    0 -0.39560512826E+02 -0.52143487537E+01  0.19926572690E+02  0.44601478755E+02  0.00000000000E+00 0.  1.
         11    1    1    2    0    0 -0.33680612908E+01  0.72143262769E+02  0.10739313019E+02  0.73015936918E+02  0.00000000000E+00 0. -1.
</event>
<event>
 7    1  0.2384639E-009  0.1350232E+03  0.7561462E-02  0.1220187E+00
         -1   -1    0    0    0  501 -0.00000000000E+00  0.00000000000E+00  0.40614373793E+02  0.40614373793E+02  0.00000000000E+00 0.  1.
          1   -1    0    0  501    0  0.00000000000E+00 -0.00000000000E+00 -0.61002075154E+03  0.61002075154E+03  0.00000000000E+00 0. -1.
         25    2    1    2    0    0  0.93226004949E+02 -0.30767774261E+02 -0.18877925578E+03  0.24682558952E+03  0.12509004875E+03 0.  0.
          5    1    3    3  502    0  0.12226527302E+03 -0.16207778894E+02 -0.12810758985E+03  0.17787781216E+03  0.41800000000E+01 0. -1.
         -5    1    3    3    0  502 -0.29039268068E+02 -0.14559995367E+02 -0.60671665935E+02  0.68947777356E+02  0.41800000000E+01 0. -1.
        -11    1    1    2    0    0 -0.68994160513E+02 -0.66448834691E+01 -0.11351519849E+03  0.13300394336E+03  0.00000000000E+00 0.  1.
         11    1    1    2    0    0 -0.24231844436E+02  0.37412657731E+02 -0.26711192347E+03  0.27080559245E+03  0.00000000000E+00 0. -1.
</event>
<event>
 7    1  0.2384639E-009  0.1531654E+03  0.7561462E-02  0.1196636E+00
          1   -1    0    0  501    0  0.00000000000E+00  0.00000000000E+00  0.71077938062E+02  0.71077938062E+02  0.00000000000E+00 0. -1.
         -1   -1    0    0    0  501 -0.00000000000E+00 -0.00000000000E+00 -0.40398654867E+03  0.40398654867E+03  0.00000000000E+00 0.  1.
         25    2    1    2    0    0  0.11633655791E+03  0.33689001276E+02 -0.24306866589E+03  0.29900002413E+03  0.12509793994E+03 0.  0.
          5    1    3    3  502    0  0.13225842717E+03  0.92130723637E+01 -0.23248182466E+03  0.26766106078E+03  0.41800000000E+01 0.  1.
         -5    1    3    3    0  502 -0.15921869254E+02  0.24475928912E+02 -0.10586841229E+02  0.31338963350E+02  0.41800000000E+01 0.  1.
        -11    1    1    2    0    0 -0.71826772034E+02  0.19894274963E+02 -0.73158066412E+02  0.10443644018E+03  0.00000000000E+00 0.  1.
         11    1    1    2    0    0 -0.44509785879E+02 -0.53583276239E+02 -0.16681878301E+02  0.71628022416E+02  0.00000000000E+00 0. -1.
</event>
<event>
 7    1  0.2384639E-009  0.1110106E+03  0.7561462E-02  0.1258710E+00
          2   -1    0    0  501    0  0.00000000000E+00  0.00000000000E+00  0.61393069188E+03  0.61393069188E+03  0.00000000000E+00 0. -1.
         -2   -1    0    0    0  501 -0.00000000000E+00 -0.00000000000E+00 -0.26613098249E+02  0.26613098249E+02  0.00000000000E+00 0.  1.
         25    2    1    2    0    0 -0.36235215869E+02 -0.52538587047E+02  0.29937177853E+03  0.33067125857E+03  0.12508687167E+03 0.  0.
          5    1    3    3  502    0 -0.77763568398E+02 -0.53821754768E+02  0.24078919427E+03  0.25872932253E+03  0.41800000000E+01 0. -1.
         -5    1    3    3    0  502  0.41528352529E+02  0.12831677211E+01  0.58582584262E+02  0.71941936046E+02  0.41800000000E+01 0. -1.
        -11    1    1    2    0    0  0.41993476557E+02  0.10659328650E+02  0.24785074809E+03  0.25160895590E+03  0.00000000000E+00 0. -1.
         11    1    1    2    0    0 -0.57582606881E+01  0.41879258397E+02  0.40095067008E+02  0.58263575658E+02  0.00000000000E+00 0.  1.
</event>
<event>
 7    1  0.2384639E-009  0.8185059E+02  0.7561462E-02  0.1323880E+00
          2   -1    0    0  501    0  0.00000000000E+00  0.00000000000E+00  0.40044608459E+03  0.40044608459E+03  0.00000000000E+00 0. -1.
         -2   -1    0    0    0  501 -0.00000000000E+00 -0.00000000000E+00 -0.35318813393E+02  0.35318813393E+02  0.00000000000E+00 0.  1.
         25    2    1    2    0    0 -0.31254643813E+02  0.10904505996E+02  0.27813857458E+03  0.30676400653E+03  0.12508928021E+03 0.  0.
          5    1    3    3  502    0 -0.27950677251E+02 -0.23357980419E+02  0.26819850209E+03  0.27069308179E+03  0.41800000000E+01 0.  1.
         -5    1    3    3    0  502 -0.33039665624E+01  0.34262486415E+02  0.99400724928E+01  0.36070924739E+02  0.41800000000E+01 0.  1.
        -11    1    1    2    0    0 -0.18741023957E+02  0.24684800395E+02  0.45007202217E+02  0.54646258801E+02  0.00000000000E+00 0.  1.
         11    1    1    2    0    0  0.49995667770E+02 -0.35589306390E+02  0.41981494407E+02  0.74354632658E+02  0.00000000000E+00 0. -1.
</event>
<event>
 7    1  0.2384639E-009  0.9512127E+02  0.7561462E-02  0.1290903E+00
         -2   -1    0    0    0  501 -0.00000000000E+00  0.00000000000E+00  0.21043151785E+03  0.21043151785E+03  0.00000000000E+00 0.  1.
          2   -1    0    0  501    0  0.00000000000E+00 -0.00000000000E+00 -0.67777461987E+02  0.67777461987E+02  0.00000000000E+00 0. -1.
         25    2    1    2    0    0 -0.28463525630E+02 -0.23470331971E+02  0.48241061727E+02  0.13904987555E+03  0.12508652637E+03 0.  0.
          5    1    3    3  502    0 -0.33261908304E+02 -0.66628758221E+02  0.57834470163E+02  0.94382436423E+02  0.41800000000E+01 0.  1.
         -5    1    3    3    0  502  0.47983826735E+01  0.43158426250E+02 -0.95934084364E+01  0.44667439126E+02  0.41800000000E+01 0.  1.
        -11    1    1    2    0    0  0.23805757213E+02 -0.18284124742E+02  0.92338016345E+02  0.97094451730E+02  0.00000000000E+00 0.  1.
         11    1    1    2    0    0  0.46577684171E+01  0.41754456713E+02  0.20749777924E+01  0.42064652559E+02  0.00000000000E+00 0. -1.
</event>
<event>
 7    1  0.2384639E-009  0.1261641E+03  0.7561462E-02  0.1233261E+00
          2   -1    0    0  501    0  0.00000000000E+00  0.00000000000E+00  0.11530275120E+04  0.11530275120E+04  0.00000000000E+00 0. -1.
         -2   -1    0    0    0  501 -0.00000000000E+00 -0.00000000000E+00 -0.21090199394E+02  0.21090199394E+02  0.00000000000E+00 0.  1.
         25    2    1    2    0    0 -0.11015822374E+00 -0.10213743090E+03  0.76853826935E+03  0.78532213051E+03  0.12509080816E+03 0.  0.
          5    1    3    3  502    0  0.24615309677E+02 -0.33011526850E+02  0.59496093514E+02  0.72477113070E+02  0.41800000000E+01 0. -1.
         -5    1    3    3    0  502 -0.24725467901E+02 -0.69125904054E+02  0.70904217584E+03  0.71284501744E+03  0.41800000000E+01 0. -1.
        -11    1    1    2    0    0 -0.13550549428E+02  0.11667282101E+03  0.32402902847E+03  0.34466066767E+03  0.00000000000E+00 0.  1.
         11    1    1    2    0    0  0.13660707652E+02 -0.14535390109E+02  0.39370014748E+02  0.44134913168E+02  0.00000000000E+00 0. -1.
</event>
<event>
 7    1  0.2384639E-009  0.1107796E+03  0.7561462E-02  0.1259133E+00
          2   -1    0    0  501    0  0.00000000000E+00  0.00000000000E+00  0.53065911626E+02  0.53065911626E+02  0.00000000000E+00 0. -1.
         -2   -1    0    0    0  501 -0.00000000000E+00 -0.00000000000E+00 -0.29519860719E+03  0.29519860719E+03  0.00000000000E+00 0.  1.
         25    2    1    2    0    0  0.51851423432E+02  0.69804647423E+01 -0.94906751454E+02  0.16550450189E+03  0.12508857532E+03 0.  0.
          5    1    3    3  502    0  0.71369455483E+02 -0.40618952802E+02 -0.45121651759E+02  0.93791973858E+02  0.41800000000E+01 0. -1.
         -5    1    3    3    0  502 -0.19518032051E+02  0.47599417545E+02 -0.49785099695E+02  0.71712528036E+02  0.41800000000E+01 0. -1.
        -11    1    1    2    0    0 -0.33635740150E+02 -0.38617790818E+02 -0.13479393340E+03  0.14419466448E+03  0.00000000000E+00 0.  1.
         11    1    1    2    0    0 -0.18215683281E+02  0.31637326076E+02 -0.12432010710E+02  0.38565352441E+02  0.00000000000E+00 0. -1.
</event>
<event>
 7    1  0.2384639E-009  0.9522943E+02  0.7561462E-02  0.1290660E+00
         -2   -1    0    0    0  501 -0.00000000000E+00  0.00000000000E+00  0.72846523667E+02  0.72846523667E+02  0.00000000000E+00 0.  1.
          2   -1    0    0  501    0  0.00000000000E+00 -0.00000000000E+00 -0.16786462016E+03  0.16786462016E+03  0.00000000000E+00 0. -1.
         25    2    1    2    0    0 -0.10215713916E+02 -0.14686665870E+02 -0.69936734112E+02  0.14442706921E+03  0.12509185656E+03 0.  0.
          5    1    3    3  502    0  0.40564240433E+02 -0.21849859537E+02 -0.79606478322E+02  0.92073545356E+02  0.41800000000E+01 0.  1.
         -5    1    3    3    0  502 -0.50779954349E+02  0.71631936672E+01  0.96697442095E+01  0.52353523857E+02  0.41800000000E+01 0.  1.
        -11    1    1    2    0    0  0.84912337949E+01 -0.38551793829E+02 -0.74282059130E+01  0.40168645756E+02  0.00000000000E+00 0.  1.
         11    1    1    2    0    0  0.17244801211E+01  0.53238459699E+02 -0.17653156470E+02  0.56115428860E+02  0.00000000000E+00 0. -1.
</event>
<event>
 7    1  0.2384639E-009  0.1200792E+03  0.7561462E-02  0.1242966E+00
          2   -1    0    0  501    0  0.00000000000E+00  0.00000000000E+00  0.60808500761E+02  0.60808500761E+02  0.00000000000E+00 0.  1.
         -2   -1    0    0    0  501 -0.00000000000E+00 -0.00000000000E+00 -0.32302894468E+03  0.32302894468E+03  0.00000000000E+00 0. -1.
         25    2    1    2    0    0 -0.81787673574E+02  0.30606265132E+02 -0.15837582412E+03  0.21990063186E+03  0.12508964470E+03 0.  0.
          5    1    3    3  502    0 -0.93922813035E+02  0.65990312552E+02 -0.11677261486E+03  0.16379722873E+03  0.41800000000E+01 0.  1.
         -5    1    3    3    0  502  0.12135139461E+02 -0.35384047420E+02 -0.41603209258E+02  0.56103403125E+02  0.41800000000E+01 0.  1.
        -11    1    1    2    0    0  0.60062053908E+02 -0.18840703794E+02 -0.11923319633E+03  0.13482943872E+03  0.00000000000E+00 0. -1.
         11    1    1    2    0    0  0.21725619665E+02 -0.11765561338E+02  0.15388576532E+02  0.29107374858E+02  0.00000000000E+00 0.  1.
</event>
<event>
 7    1  0.2384639E-009  0.9020722E+02  0.7561462E-02  0.1302351E+00
         -2   -1    0    0    0  501 -0.00000000000E+00  0.00000000000E+00  0.33942919261E+03  0.33942919261E+03  0.00000000000E+00 0.  1.
          2   -1    0    0  501    0  0.00000000000E+00 -0.00000000000E+00 -0.38790971997E+02  0.38790971997E+02  0.00000000000E+00 0. -1.
         25    2    1    2    0    0 -0.18784752932E+02  0.21399911852E+02  0.21403304448E+03  0.24953800431E+03  0.12509295862E+03 0.  0.
          5    1    3    3  502    0  0.19297473728E+02 -0.23115125791E+02  0.17812328150E+03  0.18069885818E+03  0.41800000000E+01 0.  1.
         -5    1    3    3    0  502 -0.38082226660E+02  0.44515037643E+02  0.35909762979E+02  0.68839146137E+02  0.41800000000E+01 0.  1.
        -11    1    1    2    0    0  0.52018767965E+02 -0.25257088357E+02  0.71543840421E+02  0.91991270428E+02  0.00000000000E+00 0.  1.
         11    1    1    2    0    0 -0.33234015033E+02  0.38571765050E+01  0.15061335711E+02  0.36690889866E+02  0.00000000000E+00 0. -1.
</event>
<event>
 7    1  0.2384639E-009  0.1121155E+03  0.7561462E-02  0.1256702E+00
          1   -1    0    0  501    0  0.00000000000E+00  0.00000000000E+00  0.12346131344E+03  0.12346131344E+03  0.00000000000E+00 0. -1.
         -1   -1    0    0    0  501 -0.00000000000E+00 -0.00000000000E+00 -0.18107445607E+03  0.18107445607E+03  0.00000000000E+00 0.  1.
         25    2    1    2    0    0 -0.36237472033E+02  0.73386486722E+02 -0.94562668614E+02  0.17687622751E+03  0.12507745901E+03 0.  0.
          5    1    3    3  502    0 -0.47971889450E+02  0.81894940779E+02 -0.15344007257E+02  0.96234060817E+02  0.41800000000E+01 0. -1.
         -5    1    3    3    0  502  0.11734417417E+02 -0.85084540574E+01 -0.79218661356E+02  0.80642166697E+02  0.41800000000E+01 0. -1.
        -11    1    1    2    0    0  0.46180007344E+02 -0.86279845368E+02  0.13030423014E+02  0.98724853603E+02  0.00000000000E+00 0.  1.
         11    1    1    2    0    0 -0.99425353110E+01  0.12893358646E+02  0.23919102969E+02  0.28934688393E+02  0.00000000000E+00 0. -1.
</event>
<event>
 7    1  0.2384639E-009  0.1210441E+03  0.7561462E-02  0.1241384E+00
          1   -1    0    0  501    0  0.00000000000E+00  0.00000000000E+00  0.89617758132E+02  0.89617758132E+02  0.00000000000E+00 0.  1.
         -1   -1    0    0    0  501 -0.00000000000E+00 -0.00000000000E+00 -0.22785913687E+03  0.22785913687E+03  0.00000000000E+00 0. -1.
         25    2    1    2    0    0 -0.62449607118E+02 -0.29102768979E+02 -0.13833358233E+03  0.19882369349E+03  0.12509099289E+03 0.  0.
          5    1    3    3  502    0  0.37598911016E+02 -0.13533580033E+02 -0.51872355279E+02  0.65612876330E+02  0.41800000000E+01 0.  1.
         -5    1    3    3    0  502 -0.10004851813E+03 -0.15569188946E+02 -0.86461227049E+02  0.13321081716E+03  0.41800000000E+01 0.  1.
        -11    1    1    2    0    0  0.69722982629E+02  0.45072358336E+02  0.26321223346E+02  0.87095456776E+02  0.00000000000E+00 0.  1.
         11    1    1    2    0    0 -0.72733755104E+01 -0.15969589357E+02 -0.26229019755E+02  0.31557744737E+02  0.00000000000E+00 0. -1.
</event>
<event>
 7    1  0.2384639E-009  0.1622174E+03  0.7561462E-02  0.1186216E+00
         -2   -1    0    0    0  501 -0.00000000000E+00  0.00000000000E+00  0.18854328985E+03  0.18854328985E+03  0.00000000000E+00 0. -1.
          2   -1    0    0  501    0  0.00000000000E+00 -0.00000000000E+00 -0.20987943642E+03  0.20987943642E+03  0.00000000000E+00 0.  1.
         25    2    1    2    0    0 -0.28214125437E+02 -0.14360266038E+03  0.67722021309E+02  0.20408542809E+03  0.12508728492E+03 0.  0.
          5    1    3    3  502    0 -0.62591062166E+02 -0.80418446068E+02 -0.44702310800E+01  0.10208928885E+03  0.41800000000E+01 0. -1.
         -5    1    3    3    0  502  0.34376936728E+02 -0.63184214307E+02  0.72192252389E+02  0.10199613925E+03  0.41800000000E+01 0. -1.
        -11    1    1    2    0    0  0.66185646039E+01  0.11152823449E+03 -0.10423527580E+03  0.15279838090E+03  0.00000000000E+00 0.  1.
         11    1    1    2    0    0  0.21595560833E+02  0.32074425882E+02  0.15177107917E+02  0.41538917272E+02  0.00000000000E+00 0. -1.
</event>
<event>
 7    1  0.2384639E-009  0.1081882E+03  0.7561462E-02  0.1263962E+00
         -2   -1    0    0    0  501 -0.00000000000E+00  0.00000000000E+00  0.37736464921E+02  0.37736464921E+02  0.00000000000E+00 0.  1.
          2   -1    0    0  501    0  0.00000000000E+00 -0.00000000000E+00 -0.35320591233E+03  0.35320591233E+03  0.00000000000E+00 0. -1.
         25    2    1    2    0    0 -0.60909997187E+01 -0.27439750885E+02 -0.12817862414E+03  0.18129942780E+03  0.12509869156E+03 0.  0.
          5    1    3    3  502    0 -0.56407778479E+02  0.14892696909E+02 -0.38522972597E+02  0.70036574102E+02  0.41800000000E+01 0. -1.
         -5    1    3    3    0  502  0.50316778761E+02 -0.42332447794E+02 -0.89655651540E+02  0.11126285370E+03  0.41800000000E+01 0. -1.
        -11    1    1    2    0    0  0.30949848329E+02  0.49752660532E+02 -0.96425944091E+02  0.11283254422E+03  0.00000000000E+00 0.  1.
         11    1    1    2    0    0 -0.24858848611E+02 -0.22312909647E+02 -0.90864879182E+02  0.96810405226E+02  0.00000000000E+00 0. -1.
</event>
<event>
 7    1  0.2384639E-009  0.5646473E+02  0.7561462E-02  0.1413296E+00
          2   -1    0    0  501    0  0.00000000000E+00  0.00000000000E+00  0.13544292512E+03  0.13544292512E+03  0.00000000000E+00 0. -1.
         -2   -1    0    0    0  501 -0.00000000000E+00 -0.00000000000E+00 -0.90974013931E+02  0.90974013931E+02  0.00000000000E+00 0.  1.
         25    2    1    2    0    0 -0.24886964557E+01  0.23099980189E+02  0.15259902911E+02  0.12813906408E+03  0.12508777882E+03 0.  0.
          5    1    3    3  502    0  0.29682031631E+02  0.12739627715E+00 -0.46123707402E+02  0.55008254072E+02  0.41800000000E+01 0.  1.
         -5    1    3    3    0  502 -0.32170728086E+02  0.22972583912E+02  0.61383610313E+02  0.73130810007E+02  0.41800000000E+01 0.  1.
        -11    1    1    2    0    0 -0.14606412685E+02 -0.21555541396E+02 -0.28185278901E+02  0.38371846491E+02  0.00000000000E+00 0.  1.
         11    1    1    2    0    0  0.17095109141E+02 -0.15444387927E+01  0.57394287177E+02  0.59906028481E+02  0.00000000000E+00 0. -1.
</event>
<event>
 7    1  0.2384639E-009  0.1641135E+03  0.7561462E-02  0.1184129E+00
          3   -1    0    0  501    0  0.00000000000E+00  0.00000000000E+00  0.29485584528E+03  0.29485584528E+03  0.00000000000E+00 0. -1.
         -3   -1    0    0    0  501 -0.00000000000E+00 -0.00000000000E+00 -0.12575334375E+03  0.12575334375E+03  0.00000000000E+00 0.  1.
         25    2    1    2    0    0 -0.14268686518E+03 -0.31698484038E+02  0.15408555930E+03  0.24648299330E+03  0.12508865264E+03 0.  0.
          5    1    3    3  502    0 -0.74058530781E+02 -0.51517074333E+02  0.14965198778E+03  0.17479091731E+03  0.41800000000E+01 0.  1.
         -5    1    3    3    0  502 -0.68628334397E+02  0.19818590295E+02  0.44335715204E+01  0.71692075991E+02  0.41800000000E+01 0.  1.
        -11    1    1    2    0    0 -0.21612863277E+01  0.21007659755E+02 -0.14886069313E+02  0.25837724098E+02  0.00000000000E+00 0.  1.
         11    1    1    2    0    0  0.14484815151E+03  0.10690824283E+02  0.29903011544E+02  0.14828847163E+03  0.00000000000E+00 0. -1.
</event>
<event>
 7    1  0.2384639E-009  0.1496437E+03  0.7561462E-02  0.1200912E+00
          3   -1    0    0  501    0  0.00000000000E+00  0.00000000000E+00  0.66000756863E+03  0.66000756863E+03  0.00000000000E+00 0. -1.
         -3   -1    0    0    0  501 -0.00000000000E+00 -0.00000000000E+00 -0.44667000456E+02  0.44667000456E+02  0.00000000000E+00 0.  1.
         25    2    1    2    0    0 -0.34307980748E+02 -0.11821930597E+03  0.43237496815E+03  0.46663394598E+03  0.12508510949E+03 0.  0.
          5    1    3    3  502    0  0.40663991172E+02 -0.58668954565E+02  0.11799067862E+03  0.13796694911E+03  0.41800000000E+01 0. -1.
         -5    1    3    3    0  502 -0.74971971920E+02 -0.59550351402E+02  0.31438428953E+03  0.32866699687E+03  0.41800000000E+01 0. -1.
        -11    1    1    2    0    0 -0.81958093423E+01  0.55987164279E+02  0.22750651155E+02  0.60986277004E+02  0.00000000000E+00 0.  1.
         11    1    1    2    0    0  0.42503790091E+02  0.62232141688E+02  0.16021494887E+03  0.17705434610E+03  0.00000000000E+00 0. -1.
</event>
<event>
 7    1  0.2384639E-009  0.1012631E+03  0.7561462E-02  0.1277662E+00
          2   -1    0    0  501    0  0.00000000000E+00  0.00000000000E+00  0.82324792799E+03  0.82324792799E+03  0.00000000000E+00 0. -1.
         -2   -1    0    0    0  501 -0.00000000000E+00 -0.00000000000E+00 -0.15985600218E+02  0.15985600218E+02  0.00000000000E+00 0.  1.
         25    2    1    2    0    0 -0.78858732965E+01  0.30169423286E+01  0.59562294450E+03  0.60867456588E+03  0.12508695455E+03 0.  0.
          5    1    3    3  502    0 -0.19195439840E+02 -0.51831692202E+02  0.15754264021E+03  0.16700941623E+03  0.41800000000E+01 0.  1.
         -5    1    3    3    0  502  0.11309566543E+02  0.54848634530E+02  0.43808030429E+03  0.44166514964E+03  0.41800000000E+01 0.  1.
        -11    1    1    2    0    0  0.39313350864E+02  0.26830026070E+02  0.98347431936E+02  0.10925935760E+03  0.00000000000E+00 0.  1.
         11    1    1    2    0    0 -0.31427477568E+02 -0.29846968399E+02  0.11329195133E+03  0.12129960472E+03  0.00000000000E+00 0. -1.
</event>
<event>
 7    1  0.2384639E-009  0.1008010E+03  0.7561462E-02  0.1278621E+00
          1   -1    0    0  501    0  0.00000000000E+00  0.00000000000E+00  0.28155653546E+03  0.28155653546E+03  0.00000000000E+00 0. -1.
         -1   -1    0    0    0  501 -0.00000000000E+00 -0.00000000000E+00 -0.53058741905E+02  0.53058741905E+02  0.00000000000E+00 0.  1.
         25    2    1    2    0    0 -0.43320807343E+02  0.66983822058E+01  0.17889726752E+03  0.22264877907E+03  0.12508671321E+03 0.  0.
          5    1    3    3  502    0 -0.61070611164E+02  0.47196403550E+02  0.15253126791E+03  0.17099818755E+03  0.41800000000E+01 0. -1.
         -5    1    3    3    0  502  0.17749803821E+02 -0.40498021345E+02  0.26365999609E+02  0.51650591515E+02  0.41800000000E+01 0. -1.
        -11    1    1    2    0    0 -0.18108143648E+02 -0.84709201856E-01  0.46729982091E+02  0.50115898358E+02  0.00000000000E+00 0. -1.
         11    1    1    2    0    0  0.61428950991E+02 -0.66136730040E+01  0.28705439469E+01  0.61850599941E+02  0.00000000000E+00 0.  1.
</event>
<event>
 7    1  0.2384639E-009  0.1029643E+03  0.7561462E-02  0.1274183E+00
         -2   -1    0    0    0  501 -0.00000000000E+00  0.00000000000E+00  0.74736281548E+02  0.74736281548E+02  0.00000000000E+00 0. -1.
          2   -1    0    0  501    0  0.00000000000E+00 -0.00000000000E+00 -0.18714518038E+03  0.18714518038E+03  0.00000000000E+00 0.  1.
         25    2    1    2    0    0  0.27935151522E+02 -0.32637962855E+02 -0.51351681244E+02  0.14188128468E+03  0.12509074493E+03 0.  0.
          5    1    3    3  502    0 -0.43739286804E+02 -0.39437849072E+02 -0.14061289984E+02  0.60693174456E+02  0.41800000000E+01 0. -1.
         -5    1    3    3    0  502  0.71674438327E+02  0.67998862172E+01 -0.37290391260E+02  0.81188110228E+02  0.41800000000E+01 0. -1.
        -11    1    1    2    0    0  0.19435349756E+02  0.13575131952E+02 -0.64602505294E+02  0.68814974518E+02  0.00000000000E+00 0.  1.
         11    1    1    2    0    0 -0.47370501278E+02  0.19062830903E+02  0.35452877032E+01  0.51185202728E+02  0.00000000000E+00 0. -1.
</event>
<event>
 7    1  0.2384639E-009  0.1347503E+03  0.7561462E-02  0.1220573E+00
          3   -1    0    0  501    0  0.00000000000E+00  0.00000000000E+00  0.14284024626E+02  0.14284024626E+02  0.00000000000E+00 0. -1.
         -3   -1    0    0    0  501 -0.00000000000E+00 -0.00000000000E+00 -0.18534075868E+04  0.18534075868E+04  0.00000000000E+00 0.  1.
         25    2    1    2    0    0 -0.20100809276E+02 -0.10026004849E+03 -0.13497314498E+04  0.13593670023E+04  0.12509012916E+03 0.  0.
          5    1    3    3  502    0  0.74338568074E+01 -0.10485763419E+03 -0.60344472216E+03  0.61254664375E+03  0.41800000000E+01 0.  1.
         -5    1    3    3    0  502 -0.27534666083E+02  0.45975857047E+01 -0.74628672768E+03  0.74682035855E+03  0.41800000000E+01 0.  1.
        -11    1    1    2    0    0 -0.32053094523E+02  0.13371681834E+02 -0.95989304378E+02  0.10207913253E+03  0.00000000000E+00 0. -1.
         11    1    1    2    0    0  0.52153903798E+02  0.86888366652E+02 -0.39340280793E+03  0.40624547656E+03  0.00000000000E+00 0.  1.
</event>
<event>
 7    1  0.2384639E-009  0.1625101E+03  0.7561462E-02  0.1185892E+00
         -4   -1    0    0    0  501 -0.00000000000E+00  0.00000000000E+00  0.70241304808E+03  0.70241304808E+03  0.00000000000E+00 0.  1.
          4   -1    0    0  501    0  0.00000000000E+00 -0.00000000000E+00 -0.58563983308E+02  0.58563983308E+02  0.00000000000E+00 0. -1.
         25    2    1    2    0    0  0.25223032138E+00 -0.12236361753E+03  0.55928549018E+03  0.58601778794E+03  0.12507465670E+03 0.  0.
          5    1    3    3  502    0  0.31069896375E+02 -0.13655754066E+03  0.46881590613E+03  0.48930473798E+03  0.41800000000E+01 0.  1.
         -5    1    3    3    0  502 -0.30817666054E+02  0.14193923132E+02  0.90469584045E+02  0.96713049958E+02  0.41800000000E+01 0.  1.
        -11    1    1    2    0    0 -0.37684978424E+02  0.22067317352E+02  0.39224970906E+02  0.58700276290E+02  0.00000000000E+00 0.  1.
         11    1    1    2    0    0  0.37432748103E+02  0.10029630018E+03  0.45338603690E+02  0.11625896716E+03  0.00000000000E+00 0. -1.
</event>
<event>
 7    1  0.2384639E-009  0.1781010E+03  0.7561462E-02  0.1169654E+00
          2   -1    0    0  501    0  0.00000000000E+00  0.00000000000E+00  0.75200018517E+02  0.75200018517E+02  0.00000000000E+00 0. -1.
         -2   -1    0    0    0  501 -0.00000000000E+00 -0.00000000000E+00 -0.50251488679E+03  0.50251488679E+03  0.00000000000E+00 0.  1.
         25    2    1    2    0    0  0.15124345898E+03 -0.42014789099E+02 -0.28057024764E+03  0.34497370643E+03  0.12508943953E+03 0.  0.
          5    1    3    3  502    0 -0.78700809666E+01 -0.38388885306E+02 -0.37474800316E+02  0.54382697139E+02  0.41800000000E+01 0. -1.
         -5    1    3    3    0  502  0.15911353995E+03 -0.36259037929E+01 -0.24309544732E+03  0.29059100930E+03  0.41800000000E+01 0. -1.
        -11    1    1    2    0    0 -0.81232716319E+02  0.15375566816E+02 -0.19276778020E+02  0.84892617030E+02  0.00000000000E+00 0.  1.
         11    1    1    2    0    0 -0.70010742663E+02  0.26639222283E+02 -0.12746784261E+03  0.14784858184E+03  0.00000000000E+00 0. -1.
</event>
<event>
 7    1  0.2384639E-009  0.9335405E+02  0.7561462E-02  0.1294927E+00
         -2   -1    0    0    0  501 -0.00000000000E+00  0.00000000000E+00  0.96653980024E+02  0.96653980024E+02  0.00000000000E+00 0.  1.
          2   -1    0    0  501    0  0.00000000000E+00 -0.00000000000E+00 -0.16214257839E+03  0.16214257839E+03  0.00000000000E+00 0. -1.
         25    2    1    2    0    0  0.40158747889E+02 -0.46089230675E+02 -0.28045100258E+02  0.14201875368E+03  0.12508339830E+03 0.  0.
          5    1    3    3  502    0  0.50392389663E+02 -0.37949242910E+02 -0.72089295307E+02  0.95884706139E+02  0.41800000000E+01 0. -1.
         -5    1    3    3    0  502 -0.10233641774E+02 -0.81399877651E+01  0.44044195049E+02  0.46134047539E+02  0.41800000000E+01 0. -1.
        -11    1    1    2    0    0  0.11506804351E+02  0.55983410019E+02 -0.26721146696E+02  0.63091746088E+02  0.00000000000E+00 0.  1.
         11    1    1    2    0    0 -0.51665552240E+02 -0.98941793432E+01 -0.10722351409E+02  0.53686058646E+02  0.00000000000E+00 0. -1.
</event>
<event>
 7    1  0.2384639E-009  0.2530988E+03  0.7561462E-02  0.1111362E+00
          2   -1    0    0  501    0  0.00000000000E+00  0.00000000000E+00  0.51139280769E+03  0.51139280769E+03  0.00000000000E+00 0. -1.
         -2   -1    0    0    0  501 -0.00000000000E+00 -0.00000000000E+00 -0.15088978429E+03  0.15088978429E+03  0.00000000000E+00 0.  1.
         25    2    1    2    0    0  0.21114833275E+03 -0.11024352466E+03  0.29416468192E+03  0.39864821555E+03  0.12510110520E+03 0.  0.
          5    1    3    3  502    0  0.21903649771E+03 -0.76106792922E+02  0.26974553785E+03  0.35573776697E+03  0.41800000000E+01 0. -1.
         -5    1    3    3    0  502 -0.78881649671E+01 -0.34136731736E+02  0.24419144067E+02  0.42910448577E+02  0.41800000000E+01 0. -1.
        -11    1    1    2    0    0 -0.14258821991E+03  0.84585354727E+02  0.87459869935E+02  0.18744415579E+03  0.00000000000E+00 0. -1.
         11    1    1    2    0    0 -0.68560112842E+02  0.25658169931E+02 -0.21121528448E+02  0.76190220639E+02  0.00000000000E+00 0.  1.
</event>
<event>
 7    1  0.2384639E-009  0.1783689E+03  0.7561462E-02  0.1169391E+00
          1   -1    0    0  501    0  0.00000000000E+00  0.00000000000E+00  0.47679360560E+02  0.47679360560E+02  0.00000000000E+00 0. -1.
         -1   -1    0    0    0  501 -0.00000000000E+00 -0.00000000000E+00 -0.93525580835E+03  0.93525580835E+03  0.00000000000E+00 0.  1.
         25    2    1    2    0    0  0.13591667797E+03  0.89498625513E+02 -0.64508167680E+03  0.67695033279E+03  0.12509211006E+03 0.  0.
          5    1    3    3  502    0  0.44673315800E+02  0.61354504079E+02 -0.11192819138E+03  0.13529771891E+03  0.41800000000E+01 0.  1.
         -5    1    3    3    0  502  0.91243362173E+02  0.28144121434E+02 -0.53315348542E+03  0.54165261389E+03  0.41800000000E+01 0.  1.
        -11    1    1    2    0    0 -0.29664381331E+02  0.17431806733E+02 -0.61176277614E+02  0.70188178124E+02  0.00000000000E+00 0.  1.
         11    1    1    2    0    0 -0.10625229664E+03 -0.10693043225E+03 -0.18131849337E+03  0.23579665799E+03  0.00000000000E+00 0. -1.
</event>
<event>
 7    1  0.2384639E-009  0.1079281E+03  0.7561462E-02  0.1264455E+00
         -2   -1    0    0    0  501 -0.00000000000E+00  0.00000000000E+00  0.13865479235E+03  0.13865479235E+03  0.00000000000E+00 0.  1.
          2   -1    0    0  501    0  0.00000000000E+00 -0.00000000000E+00 -0.16335376161E+03  0.16335376161E+03  0.00000000000E+00 0. -1.
         25    2    1    2    0    0 -0.75513730563E+02  0.10829122292E+01 -0.79575839232E+02  0.16638464483E+03  0.12509212463E+03 0.  0.
          5    1    3    3  502    0  0.17992645547E+02 -0.35244366746E+02 -0.45295990842E+02  0.60291789387E+02  0.41800000000E+01 0. -1.
         -5    1    3    3    0  502 -0.93506376110E+02  0.36327278975E+02 -0.34279848389E+02  0.10609285545E+03  0.41800000000E+01 0. -1.
        -11    1    1    2    0    0  0.47967824215E+02  0.15357867377E+01  0.83186404582E+02  0.96037746267E+02  0.00000000000E+00 0.  1.
         11    1    1    2    0    0  0.27545906348E+02 -0.26186989669E+01 -0.28309534608E+02  0.39586162867E+02  0.00000000000E+00 0. -1.
</event>
<event>
 7    1  0.2384639E-009  0.1017172E+03  0.7561462E-02  0.1276726E+00
          2   -1    0    0  501    0  0.00000000000E+00  0.00000000000E+00  0.10723335601E+03  0.10723335601E+03  0.00000000000E+00 0. -1.
         -2   -1    0    0    0  501 -0.00000000000E+00 -0.00000000000E+00 -0.11751411910E+03  0.11751411910E+03  0.00000000000E+00 0.  1.
         25    2    1    2    0    0  0.40757197911E+02 -0.27674020438E+00 -0.10628444564E+02  0.13199130573E+03  0.12509002833E+03 0.  0.
          5    1    3    3  502    0 -0.11939979561E+02 -0.43689721756E+02 -0.37046990003E+02  0.58662652236E+02  0.41800000000E+01 0. -1.
         -5    1    3    3    0  502  0.52697177472E+02  0.43412981551E+02  0.26418545439E+02  0.73328653498E+02  0.41800000000E+01 0. -1.
        -11    1    1    2    0    0 -0.54524315800E+02  0.25972545164E+02 -0.11157769054E+02  0.61416365295E+02  0.00000000000E+00 0. -1.
         11    1    1    2    0    0  0.13767117889E+02 -0.25695804960E+02  0.11505450529E+02  0.31339804074E+02  0.00000000000E+00 0.  1.
</event>
<event>
 7    1  0.2384639E-009  0.1708400E+03  0.7561462E-02  0.1176975E+00
          3   -1    0    0  501    0  0.00000000000E+00  0.00000000000E+00  0.25563696008E+02  0.25563696008E+02  0.00000000000E+00 0. -1.
         -3   -1    0    0    0  501 -0.00000000000E+00 -0.00000000000E+00 -0.15784636747E+04  0.15784636747E+04  0.00000000000E+00 0.  1.
         25    2    1    2    0    0  0.14667104902E+03 -0.30938812885E+02 -0.11206712358E+04  0.11375505802E+04  0.12509075458E+03 0.  0.
          5    1    3    3  502    0  0.59021958229E+02 -0.49183971302E+02 -0.82535527377E+03  0.82893392676E+03  0.41800000000E+01 0.  1.
         -5    1    3    3    0  502  0.87649090787E+02  0.18245158416E+02 -0.29531596204E+03  0.30861665340E+03  0.41800000000E+01 0.  1.
        -11    1    1    2    0    0 -0.11159297424E+03  0.62519201459E+02 -0.30271607694E+03  0.32863150441E+03  0.00000000000E+00 0.  1.
         11    1    1    2    0    0 -0.35078074778E+02 -0.31580388574E+02 -0.12951266594E+03  0.13784528614E+03  0.00000000000E+00 0. -1.
</event>
<event>
 7    1  0.2384639E-009  0.1143356E+03  0.7561462E-02  0.1252745E+00
          2   -1    0    0  501    0  0.00000000000E+00  0.00000000000E+00  0.37965293480E+03  0.37965293480E+03  0.00000000000E+00 0. -1.
         -2   -1    0    0    0  501 -0.00000000000E+00 -0.00000000000E+00 -0.47100671493E+02  0.47100671493E+02  0.00000000000E+00 0.  1.
         25    2    1    2    0    0 -0.27544273346E+02 -0.73229423044E+02  0.16283702366E+03  0.21973683538E+03  0.12508854925E+03 0.  0.
          5    1    3    3  502    0 -0.44113183491E+02 -0.98928341301E+02  0.90929871719E+02  0.14148676136E+03  0.41800000000E+01 0.  1.
         -5    1    3    3    0  502  0.16568910145E+02  0.25698918257E+02  0.71907151943E+02  0.78250074016E+02  0.41800000000E+01 0.  1.
        -11    1    1    2    0    0 -0.11075776301E+02  0.26930687220E+02  0.13359865265E+03  0.13673527242E+03  0.00000000000E+00 0. -1.
         11    1    1    2    0    0  0.38620049647E+02  0.46298735824E+02  0.36116586992E+02  0.70281498487E+02  0.00000000000E+00 0.  1.
</event>
<event>
 7    1  0.2384639E-009  0.1994680E+03  0.7561462E-02  0.1150189E+00
          1   -1    0    0  501    0  0.00000000000E+00  0.00000000000E+00  0.13468885815E+04  0.13468885815E+04  0.00000000000E+00 0. -1.
         -1   -1    0    0    0  501 -0.00000000000E+00 -0.00000000000E+00 -0.34434969355E+02  0.34434969355E+02  0.00000000000E+00 0.  1.
         25    2    1    2    0    0  0.16745975929E+03  0.35160417316E+02  0.44089994801E+03  0.48920175559E+03  0.12508624060E+03 0.  0.
          5    1    3    3  502    0  0.41179969568E+02  0.66470593071E+02  0.12458311489E+03  0.14714807016E+03  0.41800000000E+01 0.  1.
         -5    1    3    3    0  502  0.12627978973E+03 -0.31310175754E+02  0.31631683312E+03  0.34205368542E+03  0.41800000000E+01 0.  1.
        -11    1    1    2    0    0 -0.11348541996E+03  0.17765326680E+02  0.52649897599E+03  0.53888377141E+03  0.00000000000E+00 0.  1.
         11    1    1    2    0    0 -0.53974339334E+02 -0.52925743996E+02  0.34505468814E+03  0.35323802385E+03  0.00000000000E+00 0. -1.
</event>
<event>
 7    1  0.2384639E-009  0.1351481E+03  0.7561462E-02  0.1220011E+00
          2   -1    0    0  501    0  0.00000000000E+00  0.00000000000E+00  0.59604562286E+03  0.59604562286E+03  0.00000000000E+00 0.  1.
         -2   -1    0    0    0  501 -0.00000000000E+00 -0.00000000000E+00 -0.31515657547E+02  0.31515657547E+02  0.00000000000E+00 0. -1.
         25    2    1    2    0    0  0.60357078027E+02 -0.55918438977E+02  0.27619606274E+03  0.31416647151E+03  0.12508580282E+03 0.  0.
          5    1    3    3  502    0  0.38052799759E+02  0.37498192651E+02  0.98697574807E+02  0.11230678383E+03  0.41800000000E+01 0.  1.
         -5    1    3    3    0  502  0.22304278269E+02 -0.93416631628E+02  0.17749848793E+03  0.20185968768E+03  0.41800000000E+01 0.  1.
        -11    1    1    2    0    0 -0.60840895882E+02  0.77757441929E+02  0.25594785936E+03  0.27433035030E+03  0.00000000000E+00 0. -1.
         11    1    1    2    0    0  0.48381785449E+00 -0.21839002953E+02  0.32386043216E+02  0.39064458589E+02  0.00000000000E+00 0.  1.
</event>
<event>
 7    1  0.2384639E-009  0.1345244E+03  0.7561462E-02  0.1220893E+00
          2   -1    0    0  501    0  0.00000000000E+00  0.00000000000E+00  0.30561044603E+03  0.30561044603E+03  0.00000000000E+00 0. -1.
         -2   -1    0    0    0  501 -0.00000000000E+00 -0.00000000000E+00 -0.70723172877E+02  0.70723172877E+02  0.00000000000E+00 0.  1.
         25    2    1    2    0    0 -0.43779019564E+02 -0.50877987604E+02  0.69007560667E+02  0.15784853197E+03  0.12509573709E+03 0.  0.
          5    1    3    3  502    0  0.24933205621E+00  0.34626858059E+02  0.47971864623E+02  0.59311496869E+02  0.41800000000E+01 0. -1.
         -5    1    3    3    0  502 -0.44028351620E+02 -0.85504845663E+02  0.21035696044E+02  0.98537035099E+02  0.41800000000E+01 0. -1.
        -11    1    1    2    0    0  0.85770229719E+02  0.39304894964E+02  0.13655009775E+03  0.16597390238E+03  0.00000000000E+00 0. -1.
         11    1    1    2    0    0 -0.41991210155E+02  0.11573092640E+02  0.29329614734E+02  0.52511184561E+02  0.00000000000E+00 0.  1.
</event>
<event>
 7    1  0.2384639E-009  0.8817088E+02  0.7561462E-02  0.1307343E+00
         -2   -1    0    0    0  501 -0.00000000000E+00  0.00000000000E+00  0.42603792716E+02  0.42603792716E+02  0.00000000000E+00 0. -1.
          2   -1    0    0  501    0  0.00000000000E+00 -0.00000000000E+00 -0.28986112594E+03  0.28986112594E+03  0.00000000000E+00 0.  1.
         25    2    1    2    0    0  0.21334974363E+02 -0.19544231782E+02 -0.14469495879E+03  0.19344089631E+03  0.12508233743E+03 0.  0.
          5    1    3    3  502    0 -0.64008524705E+00 -0.55760080239E+02 -0.16410323819E+02  0.58278361209E+02  0.41800000000E+01 0.  1.
         -5    1    3    3    0  502  0.21975059610E+02  0.36215848456E+02 -0.12828463498E+03  0.13516253510E+03  0.41800000000E+01 0.  1.
        -11    1    1    2    0    0  0.26921485481E+02  0.96152632647E+01 -0.79774335312E+02  0.84741750293E+02  0.00000000000E+00 0.  1.
         11    1    1    2    0    0 -0.48256459844E+02  0.99289685177E+01 -0.22788039118E+02  0.54282272054E+02  0.00000000000E+00 0. -1.
</event>
<event>
 7    1  0.2384639E-009  0.8700418E+02  0.7561462E-02  0.1310273E+00
          1   -1    0    0  501    0  0.00000000000E+00  0.00000000000E+00  0.85630732299E+02  0.85630732299E+02  0.00000000000E+00 0. -1.
         -1   -1    0    0    0  501 -0.00000000000E+00 -0.00000000000E+00 -0.17402865080E+03  0.17402865080E+03  0.00000000000E+00 0.  1.
         25    2    1    2    0    0  0.87380602426E+01  0.53457624427E+02 -0.64705295817E+02  0.15088942285E+03  0.12508705494E+03 0.  0.
          5    1    3    3  502    0  0.30217894946E+02  0.64819480758E+02  0.98957325474E+01  0.72319320955E+02  0.41800000000E+01 0.  1.
         -5    1    3    3    0  502 -0.21479834704E+02 -0.11361856331E+02 -0.74601028364E+02  0.78570101891E+02  0.41800000000E+01 0.  1.
        -11    1    1    2    0    0  0.23376209912E+02 -0.15770113988E+02 -0.46400464514E+02  0.54296839615E+02  0.00000000000E+00 0.  1.
         11    1    1    2    0    0 -0.32114270155E+02 -0.37687510438E+02  0.22707841835E+02  0.54473120632E+02  0.00000000000E+00 0. -1.
</event>
<event>
 7    1  0.2384639E-009  0.1368845E+03  0.7561462E-02  0.1217584E+00
          1   -1    0    0  501    0  0.00000000000E+00  0.00000000000E+00  0.81101481833E+03  0.81101481833E+03  0.00000000000E+00 0. -1.
         -1   -1    0    0    0  501 -0.00000000000E+00 -0.00000000000E+00 -0.25994122283E+02  0.25994122283E+02  0.00000000000E+00 0.  1.
         25    2    1    2    0    0  0.88390403756E+02 -0.38286598538E+02  0.48587203822E+03  0.51088058352E+03  0.12509438833E+03 0.  0.
          5    1    3    3  502    0  0.80018145637E+02  0.28377842289E+02  0.33597084407E+03  0.34655747868E+03  0.41800000000E+01 0.  1.
         -5    1    3    3    0  502  0.83722581188E+01 -0.66664440827E+02  0.14990119415E+03  0.16432310484E+03  0.41800000000E+01 0.  1.
        -11    1    1    2    0    0  0.30700099402E+01  0.29395592530E+02  0.13316902328E+03  0.13640936398E+03  0.00000000000E+00 0.  1.
         11    1    1    2    0    0 -0.91460413696E+02  0.88910060079E+01  0.16597963455E+03  0.18971899311E+03  0.00000000000E+00 0. -1.
</event>
<event>
 7    1  0.4625371E-009  0.1437335E+03  0.7561462E-02  0.1208392E+00
          2   -1    0    0  501    0  0.00000000000E+00  0.00000000000E+00  0.79113831091E+03  0.79113831091E+03  0.00000000000E+00 0. -1.
         -2   -1    0    0    0  501 -0.00000000000E+00 -0.00000000000E+00 -0.30596619325E+02  0.30596619325E+02  0.00000000000E+00 0.  1.
         25    2    1    2    0    0 -0.32529006623E+02  0.96183308184E+02  0.52823563011E+03  0.55225913436E+03  0.12509158852E+03 0.  0.
          5    1    3    3  502    0 -0.79523172167E+02  0.52005821704E+02  0.34891256842E+03  0.36164346144E+03  0.41800000000E+01 0. -1.
         -5    1    3    3    0  502  0.46994165544E+02  0.44177486480E+02  0.17932306169E+03  0.19061567292E+03  0.41800000000E+01 0. -1.
        -11    1    1    2    0    0 -0.21800424193E+02 -0.56158287038E+02  0.15803303256E+03  0.16912554827E+03  0.00000000000E+00 0.  1.
         11    1    1    2    0    0  0.54329430815E+02 -0.40025021146E+02  0.74273028917E+02  0.10035024761E+03  0.00000000000E+00 0. -1.
</event>
<event>
 7    1  0.2384639E-009  0.2158221E+03  0.7561462E-02  0.1137037E+00
          2   -1    0    0  501    0  0.00000000000E+00  0.00000000000E+00  0.12245115973E+03  0.12245115973E+03  0.00000000000E+00 0. -1.
         -2   -1    0    0    0  501 -0.00000000000E+00 -0.00000000000E+00 -0.46688489805E+03  0.46688489805E+03  0.00000000000E+00 0.  1.
         25    2    1    2    0    0 -0.85599870057E+02 -0.19157728348E+03 -0.13018227422E+03  0.27681099450E+03  0.12509080244E+03 0.  0.
          5    1    3    3  502    0 -0.87506354345E+02 -0.16625012563E+03 -0.52707044001E+02  0.19517164550E+03  0.41800000000E+01 0. -1.
         -5    1    3    3    0  502  0.19064842875E+01 -0.25327157856E+02 -0.77475230218E+02  0.81639348998E+02  0.41800000000E+01 0. -1.
        -11    1    1    2    0    0  0.94692087512E+02  0.17053310202E+03 -0.21405596903E+03  0.28959987603E+03  0.00000000000E+00 0. -1.
         11    1    1    2    0    0 -0.90922174545E+01  0.21044181463E+02 -0.19549506854E+00  0.22925187240E+02  0.00000000000E+00 0.  1.
</event>
<event>
 7    1  0.2384639E-009  0.1464748E+03  0.7561462E-02  0.1204873E+00
          1   -1    0    0  501    0  0.00000000000E+00  0.00000000000E+00  0.27179532286E+03  0.27179532286E+03  0.00000000000E+00 0. -1.
         -1   -1    0    0    0  501 -0.00000000000E+00 -0.00000000000E+00 -0.14205040637E+03  0.14205040637E+03  0.00000000000E+00 0.  1.
         25    2    1    2    0    0  0.94450769858E+02 -0.45856070414E+02 -0.62684590651E+02  0.17493208640E+03  0.12509256503E+03 0.  0.
          5    1    3    3  502    0 -0.22484824107E+02  0.83839640301E+01  0.10633272977E+02  0.26578131277E+02  0.41800000000E+01 0. -1.
         -5    1    3    3    0  502  0.11693559396E+03 -0.54240034444E+02 -0.73317863628E+02  0.14835395512E+03  0.41800000000E+01 0. -1.
        -11    1    1    2    0    0  0.16297042074E+02  0.20173744720E+02  0.53043331954E+02  0.59043785627E+02  0.00000000000E+00 0. -1.
         11    1    1    2    0    0 -0.11074781193E+03  0.25682325694E+02  0.13938617518E+03  0.17986985721E+03  0.00000000000E+00 0.  1.
</event>
<event>
 7    1  0.2384639E-009  0.1164339E+03  0.7561462E-02  0.1249099E+00
         -1   -1    0    0    0  501 -0.00000000000E+00  0.00000000000E+00  0.27368245716E+02  0.27368245716E+02  0.00000000000E+00 0.  1.
          1   -1    0    0  501    0  0.00000000000E+00 -0.00000000000E+00 -0.79044535850E+03  0.79044535850E+03  0.00000000000E+00 0. -1.
         25    2    1    2    0    0 -0.85123812517E+01  0.81607251732E+02 -0.25640627953E+03  0.29685627455E+03  0.12508902185E+03 0.  0.
          5    1    3    3  502    0 -0.11700624314E+02 -0.14462456397E+02 -0.15830300210E+03  0.15944710762E+03  0.41800000000E+01 0. -1.
         -5    1    3    3    0  502  0.31882430622E+01  0.96069708129E+02 -0.98103277430E+02  0.13740916693E+03  0.41800000000E+01 0. -1.
        -11    1    1    2    0    0  0.41869734713E+02 -0.17617484346E+02 -0.13779615076E+03  0.14509041871E+03  0.00000000000E+00 0.  1.
         11    1    1    2    0    0 -0.33357353462E+02 -0.63989767386E+02 -0.36887468250E+03  0.37586691096E+03  0.00000000000E+00 0. -1.
</event>
<event>
 7    1  0.2384639E-009  0.1110918E+03  0.7561462E-02  0.1258561E+00
          2   -1    0    0  501    0  0.00000000000E+00  0.00000000000E+00  0.41787085907E+03  0.41787085907E+03  0.00000000000E+00 0.  1.
         -2   -1    0    0    0  501 -0.00000000000E+00 -0.00000000000E+00 -0.36476214000E+02  0.36476214000E+02  0.00000000000E+00 0. -1.
         25    2    1    2    0    0 -0.10587002207E+01  0.98483633418E+01  0.30291634124E+03  0.32787832225E+03  0.12509106004E+03 0.  0.
          5    1    3    3  502    0  0.45063678468E+02  0.47280734617E+02  0.14416894673E+03  0.15832991058E+03  0.41800000000E+01 0.  1.
         -5    1    3    3    0  502 -0.46122378689E+02 -0.37432371275E+02  0.15874739451E+03  0.16954841167E+03  0.41800000000E+01 0.  1.
        -11    1    1    2    0    0  0.21951748611E+02  0.38610849167E+02  0.48551706907E+02  0.65802318987E+02  0.00000000000E+00 0.  1.
         11    1    1    2    0    0 -0.20893048390E+02 -0.48459212509E+02  0.29926596918E+02  0.60666431831E+02  0.00000000000E+00 0. -1.
</event>
<event>
 7    1  0.2384639E-009  0.1209607E+03  0.7561462E-02  0.1241521E+00
          1   -1    0    0  501    0  0.00000000000E+00  0.00000000000E+00  0.17734129987E+03  0.17734129987E+03  0.00000000000E+00 0. -1.
         -1   -1    0    0    0  501 -0.00000000000E+00 -0.00000000000E+00 -0.96847646629E+02  0.96847646629E+02  0.00000000000E+00 0.  1.
         25    2    1    2    0    0  0.58786307153E+02  0.11524818927E+02 -0.67073435569E+00  0.13868998508E+03  0.12508321517E+03 0.  0.
          5    1    3    3  502    0  0.98195197858E+02  0.10746711507E+02 -0.36795238424E+01  0.98938364583E+02  0.41800000000E+01 0.  1.
         -5    1    3    3    0  502 -0.39408890705E+02  0.77810741991E+00  0.30087894867E+01  0.39751620494E+02  0.41800000000E+01 0.  1.
        -11    1    1    2    0    0 -0.22954719466E+02  0.36728469115E+02  0.14343171037E+02  0.45624841311E+02  0.00000000000E+00 0.  1.
         11    1    1    2    0    0 -0.35831587687E+02 -0.48253288042E+02  0.66821216556E+02  0.89874120107E+02  0.00000000000E+00 0. -1.
</event>
<event>
 7    1  0.2384639E-009  0.1877283E+03  0.7561462E-02  0.1160526E+00
          2   -1    0    0  501    0  0.00000000000E+00  0.00000000000E+00  0.51017939454E+03  0.51017939454E+03  0.00000000000E+00 0. -1.
         -2   -1    0    0    0  501 -0.00000000000E+00 -0.00000000000E+00 -0.12534728291E+03  0.12534728291E+03  0.00000000000E+00 0.  1.
         25    2    1    2    0    0 -0.14373447470E+03  0.83832430752E+02  0.39327872343E+03  0.44497471513E+03  0.12508743797E+03 0.  0.
          5    1    3    3  502    0  0.17742767939E+02  0.21938750206E+02  0.24344150664E+02  0.37499661949E+02  0.41800000000E+01 0. -1.
         -5    1    3    3    0  502 -0.16147724264E+03  0.61893680546E+02  0.36893457276E+03  0.40747505318E+03  0.41800000000E+01 0. -1.
        -11    1    1    2    0    0  0.79959770966E+02 -0.17342393570E+02  0.34632593336E+02  0.88846722556E+02  0.00000000000E+00 0. -1.
         11    1    1    2    0    0  0.63774703739E+02 -0.66490037182E+02 -0.43079205128E+02  0.10170523977E+03  0.00000000000E+00 0.  1.
</event>
<event>
 7    1  0.2384639E-009  0.7483197E+02  0.7561462E-02  0.1344392E+00
         -1   -1    0    0    0  501 -0.00000000000E+00  0.00000000000E+00  0.10516939316E+02  0.10516939316E+02  0.00000000000E+00 0.  1.
          1   -1    0    0  501    0  0.00000000000E+00 -0.00000000000E+00 -0.11781276945E+04  0.11781276945E+04  0.00000000000E+00 0. -1.
         25    2    1    2    0    0 -0.24335838262E+02 -0.41529101131E+02 -0.10028802709E+04  0.10117977408E+04  0.12509568884E+03 0.  0.
          5    1    3    3  502    0 -0.43659116252E+02 -0.34101842934E+01 -0.88904492156E+03  0.89013262649E+03  0.41800000000E+01 0. -1.
         -5    1    3    3    0  502  0.19323277989E+02 -0.38118916837E+02 -0.11383534931E+03  0.12166511434E+03  0.41800000000E+01 0. -1.
        -11    1    1    2    0    0  0.22079656860E+02  0.96033956605E+00 -0.40459200674E+02  0.46101848318E+02  0.00000000000E+00 0. -1.
         11    1    1    2    0    0  0.22561814023E+01  0.40568761565E+02 -0.12427128359E+03  0.13074504462E+03  0.00000000000E+00 0.  1.
</event>
<event>
 7    1  0.2384639E-009  0.1021965E+03  0.7561462E-02  0.1275744E+00
         -2   -1    0    0    0  501 -0.00000000000E+00  0.00000000000E+00  0.21810125089E+03  0.21810125089E+03  0.00000000000E+00 0.  1.
          2   -1    0    0  501    0  0.00000000000E+00 -0.00000000000E+00 -0.13106099357E+03  0.13106099357E+03  0.00000000000E+00 0. -1.
         25    2    1    2    0    0 -0.84084520924E+01 -0.82101141591E+02  0.14909985936E+03  0.21139843954E+03  0.12508889903E+03 0.  0.
          5    1    3    3  502    0 -0.74536577917E+01 -0.88879901076E+02  0.33263098289E+02  0.95284311078E+02  0.41800000000E+01 0. -1.
         -5    1    3    3    0  502 -0.95479430075E+00  0.67787594851E+01  0.11583676107E+03  0.11611412846E+03  0.41800000000E+01 0. -1.
        -11    1    1    2    0    0  0.37053278445E+02  0.30202014342E+02  0.52287408996E+01  0.48087907474E+02  0.00000000000E+00 0.  1.
         11    1    1    2    0    0 -0.28644826353E+02  0.51899127249E+02 -0.67288342949E+02  0.89675897446E+02  0.00000000000E+00 0. -1.
</event>
<event>
 7    1  0.2384639E-009  0.1165634E+03  0.7561462E-02  0.1248877E+00
          2   -1    0    0  501    0  0.00000000000E+00  0.00000000000E+00  0.44123052253E+03  0.44123052253E+03  0.00000000000E+00 0. -1.
         -2   -1    0    0    0  501 -0.00000000000E+00 -0.00000000000E+00 -0.60117511444E+02  0.60117511444E+02  0.00000000000E+00 0.  1.
         25    2    1    2    0    0 -0.73240680416E+02  0.46820668865E+02  0.33329976905E+03  0.36645944339E+03  0.12508962905E+03 0.  0.
          5    1    3    3  502    0 -0.39918640756E+02 -0.10962671512E+02  0.20099203768E+02  0.46207450033E+02  0.41800000000E+01 0. -1.
         -5    1    3    3    0  502 -0.33322039660E+02  0.57783340377E+02  0.31320056529E+03  0.32025199336E+03  0.41800000000E+01 0. -1.
        -11    1    1    2    0    0 -0.72059040102E+01  0.19269437694E+02  0.15878653820E+02  0.25987841941E+02  0.00000000000E+00 0. -1.
         11    1    1    2    0    0  0.80446584426E+02 -0.66090106559E+02  0.31934588210E+02  0.10890074864E+03  0.00000000000E+00 0.  1.
</event>
<event>
 7    1  0.2384639E-009  0.2496910E+03  0.7561462E-02  0.1113500E+00
         -2   -1    0    0    0  501 -0.00000000000E+00  0.00000000000E+00  0.16213761459E+03  0.16213761459E+03  0.00000000000E+00 0.  1.
          2   -1    0    0  501    0  0.00000000000E+00 -0.00000000000E+00 -0.43006092796E+03  0.43006092796E+03  0.00000000000E+00 0. -1.
         25    2    1    2    0    0 -0.23203551690E+03 -0.61316203158E+02 -0.15196013589E+03  0.31038466332E+03  0.12508636396E+03 0.  0.
          5    1    3    3  502    0 -0.12271950128E+03  0.79704055757E+01 -0.13007843680E+03  0.17905718494E+03  0.41800000000E+01 0.  1.
         -5    1    3    3    0  502 -0.10931601562E+03 -0.69286608734E+02 -0.21881699093E+02  0.13132747838E+03  0.41800000000E+01 0.  1.
        -11    1    1    2    0    0  0.36843218719E+02 -0.11365013518E+02 -0.50394239050E+02  0.63452073467E+02  0.00000000000E+00 0.  1.
         11    1    1    2    0    0  0.19519229818E+03  0.72681216676E+02 -0.65568938437E+02  0.21836180576E+03  0.00000000000E+00 0. -1.
</event>
<event>
 7    1  0.2384639E-009  0.3200087E+03  0.7561462E-02  0.1075645E+00
         -2   -1    0    0    0  501 -0.00000000000E+00  0.00000000000E+00  0.28483634396E+03  0.28483634396E+03  0.00000000000E+00 0.  1.
          2   -1    0    0  501    0  0.00000000000E+00 -0.00000000000E+00 -0.38372501937E+03  0.38372501937E+03  0.00000000000E+00 0. -1.
         25    2    1    2    0    0 -0.14382206277E+02  0.31065441122E+03 -0.25106437121E+02  0.33614299631E+03  0.12509504272E+03 0.  0.
          5    1    3    3  502    0 -0.21221039724E+02  0.31764519937E+03 -0.36607231307E+02  0.32047834091E+03  0.41800000000E+01 0. -1.
         -5    1    3    3    0  502  0.68388334470E+01 -0.69907881470E+01  0.11500794186E+02  0.15664655398E+02  0.41800000000E+01 0. -1.
        -11    1    1    2    0    0  0.49328788024E+01 -0.13823296154E+03  0.13417292080E+02  0.13897017189E+03  0.00000000000E+00 0.  1.
         11    1    1    2    0    0  0.94493274741E+01 -0.17242144969E+03 -0.87199530373E+02  0.19344819513E+03  0.00000000000E+00 0. -1.
</event>
<event>
 7    1  0.2384639E-009  0.1139707E+03  0.7561462E-02  0.1253388E+00
          2   -1    0    0  501    0  0.00000000000E+00  0.00000000000E+00  0.58612266951E+03  0.58612266951E+03  0.00000000000E+00 0. -1.
         -2   -1    0    0    0  501 -0.00000000000E+00 -0.00000000000E+00 -0.28292438248E+02  0.28292438248E+02  0.00000000000E+00 0.  1.
         25    2    1    2    0    0  0.28264367415E+02 -0.63820871925E+02  0.33463522427E+03  0.36400713224E+03  0.12509388812E+03 0.  0.
          5    1    3    3  502    0  0.57870797526E+02 -0.13681233629E+02  0.65301274182E+02  0.88419082611E+02  0.41800000000E+01 0. -1.
         -5    1    3    3    0  502 -0.29606430112E+02 -0.50139638296E+02  0.26933395008E+03  0.27558804963E+03  0.41800000000E+01 0. -1.
        -11    1    1    2    0    0 -0.49185694586E+02  0.73536726591E+01  0.13265505870E+03  0.14167100498E+03  0.00000000000E+00 0. -1.
         11    1    1    2    0    0  0.20921327171E+02  0.56467199266E+02  0.90539948291E+02  0.10873697053E+03  0.00000000000E+00 0.  1.
</event>
<event>
 7    1  0.2384639E-009  0.1036183E+03  0.7561462E-02  0.1272866E+00
          1   -1    0    0  501    0  0.00000000000E+00  0.00000000000E+00  0.24725799618E+03  0.24725799618E+03  0.00000000000E+00 0. -1.
         -1   -1    0    0    0  501 -0.00000000000E+00 -0.00000000000E+00 -0.65889036429E+02  0.65889036429E+02  0.00000000000E+00 0.  1.
         25    2    1    2    0    0  0.32433164906E+02  0.57889436738E+00  0.17331546298E+03  0.21618821294E+03  0.12508736308E+03 0.  0.
          5    1    3    3  502    0 -0.11829273180E+02  0.46365430861E+02  0.13122061355E+03  0.13973548835E+03  0.41800000000E+01 0. -1.
         -5    1    3    3    0  502  0.44262438086E+02 -0.45786536494E+02  0.42094849430E+02  0.76452724595E+02  0.41800000000E+01 0. -1.
        -11    1    1    2    0    0 -0.27469504106E+02  0.43270742762E+02  0.12042129713E+02  0.52649251875E+02  0.00000000000E+00 0.  1.
         11    1    1    2    0    0 -0.49636608001E+01 -0.43849637130E+02 -0.39886329458E+01  0.44309567790E+02  0.00000000000E+00 0. -1.
</event>
<event>
 7    1  0.2384639E-009  0.1079571E+03  0.7561462E-02  0.1264400E+00
         -1   -1    0    0    0  501 -0.00000000000E+00  0.00000000000E+00  0.24550161996E+02  0.24550161996E+02  0.00000000000E+00 0.  1.
          1   -1    0    0  501    0  0.00000000000E+00 -0.00000000000E+00 -0.76313240906E+03  0.76313240906E+03  0.00000000000E+00 0. -1.
         25    2    1    2    0    0  0.15021951831E+02  0.79291221789E+02 -0.34150110144E+03  0.37253569136E+03  0.12508829747E+03 0.  0.
          5    1    3    3  502    0  0.27939510736E+02  0.96679769350E+01 -0.70968285133E+01  0.30690770814E+02  0.41800000000E+01 0. -1.
         -5    1    3    3    0  502 -0.12917558906E+02  0.69623244854E+02 -0.33440427292E+03  0.34184492055E+03  0.41800000000E+01 0. -1.
        -11    1    1    2    0    0  0.30000979213E+02 -0.84245461938E+01 -0.17443177468E+03  0.17719332874E+03  0.00000000000E+00 0. -1.
         11    1    1    2    0    0 -0.45022931044E+02 -0.70866675595E+02 -0.22264937095E+03  0.23795355096E+03  0.00000000000E+00 0.  1.
</event>
<event>
 7    1  0.2384639E-009  0.1174588E+03  0.7561462E-02  0.1247349E+00
         -1   -1    0    0    0  501 -0.00000000000E+00  0.00000000000E+00  0.16243955120E+03  0.16243955120E+03  0.00000000000E+00 0.  1.
          1   -1    0    0  501    0  0.00000000000E+00 -0.00000000000E+00 -0.12587720173E+03  0.12587720173E+03  0.00000000000E+00 0. -1.
         25    2    1    2    0    0  0.73065121473E+01  0.61373835204E+02 -0.50561653621E+02  0.14840621517E+03  0.12509113125E+03 0.  0.
          5    1    3    3  502    0  0.37323323423E+02  0.83004249792E+02 -0.61115497747E+02  0.10970557151E+03  0.41800000000E+01 0. -1.
         -5    1    3    3    0  502 -0.30016811275E+02 -0.21630414588E+02  0.10553844126E+02  0.38700643667E+02  0.41800000000E+01 0. -1.
        -11    1    1    2    0    0  0.39797453363E+02 -0.31990452820E+02  0.25867837210E+02  0.57239596153E+02  0.00000000000E+00 0.  1.
         11    1    1    2    0    0 -0.47103965510E+02 -0.29383382384E+02  0.61256165880E+02  0.82670941603E+02  0.00000000000E+00 0. -1.
</event>
<event>
 7    1  0.2384639E-009  0.1020239E+03  0.7561462E-02  0.1276097E+00
         -1   -1    0    0    0  501 -0.00000000000E+00  0.00000000000E+00  0.28342002743E+03  0.28342002743E+03  0.00000000000E+00 0.  1.
          1   -1    0    0  501    0  0.00000000000E+00 -0.00000000000E+00 -0.41624029947E+02  0.41624029947E+02  0.00000000000E+00 0. -1.
         25    2    1    2    0    0 -0.80773016243E+01 -0.92235541747E+01  0.15152138645E+03  0.19686296566E+03  0.12508389162E+03 0.  0.
          5    1    3    3  502    0  0.41763824133E+02 -0.37267633039E+02  0.11742282412E+03  0.13014870535E+03  0.41800000000E+01 0.  1.
         -5    1    3    3    0  502 -0.49841125758E+02  0.28044078865E+02  0.34098562332E+02  0.66714260314E+02  0.41800000000E+01 0.  1.
        -11    1    1    2    0    0  0.33911921816E+01 -0.40495264335E+02  0.46686248495E+02  0.61894849677E+02  0.00000000000E+00 0. -1.
         11    1    1    2    0    0  0.46861094427E+01  0.49718818509E+02  0.43588362539E+02  0.66286242046E+02  0.00000000000E+00 0.  1.
</event>
<event>
 7    1  0.2384639E-009  0.1034693E+03  0.7561462E-02  0.1273165E+00
          1   -1    0    0  501    0  0.00000000000E+00  0.00000000000E+00  0.20522997885E+02  0.20522997885E+02  0.00000000000E+00 0. -1.
         -1   -1    0    0    0  501 -0.00000000000E+00 -0.00000000000E+00 -0.79754332176E+03  0.79754332176E+03  0.00000000000E+00 0.  1.
         25    2    1    2    0    0  0.29895720693E+02 -0.48875973048E+02 -0.31567352946E+03  0.34435227525E+03  0.12508436117E+03 0.  0.
          5    1    3    3  502    0  0.54512839131E+02 -0.54191499352E+02 -0.95308722782E+02  0.12251364524E+03  0.41800000000E+01 0. -1.
         -5    1    3    3    0  502 -0.24617118438E+02  0.53155263045E+01 -0.22036480668E+03  0.22183863001E+03  0.41800000000E+01 0. -1.
        -11    1    1    2    0    0 -0.46035442414E+02 -0.67339937451E+01 -0.26317178492E+03  0.26725268382E+03  0.00000000000E+00 0. -1.
         11    1    1    2    0    0  0.16139721721E+02  0.55609966793E+02 -0.19817500949E+03  0.20646136058E+03  0.00000000000E+00 0.  1.
</event>
<event>
 7    1  0.2384639E-009  0.1490398E+03  0.7561462E-02  0.1201658E+00
         -1   -1    0    0    0  501 -0.00000000000E+00  0.00000000000E+00  0.13370581369E+03  0.13370581369E+03  0.00000000000E+00 0.  1.
          1   -1    0    0  501    0  0.00000000000E+00 -0.00000000000E+00 -0.20932161998E+03  0.20932161998E+03  0.00000000000E+00 0. -1.
         25    2    1    2    0    0 -0.80664507461E+02 -0.94857380748E+02 -0.41150950542E+02  0.18122713325E+03  0.12508072453E+03 0.  0.
          5    1    3    3  502    0  0.62405356147E+01  0.19739071138E+02  0.15910669351E+02  0.26442333735E+02  0.41800000000E+01 0.  1.
         -5    1    3    3    0  502 -0.86905043076E+02 -0.11459645189E+03 -0.57061619892E+02  0.15478479952E+03  0.41800000000E+01 0.  1.
        -11    1    1    2    0    0  0.85866708979E+02  0.80091116464E+02 -0.59988914779E+02  0.13185730372E+03  0.00000000000E+00 0. -1.
         11    1    1    2    0    0 -0.52022015182E+01  0.14766264284E+02  0.25524059030E+02  0.29942996692E+02  0.00000000000E+00 0.  1.
</event>
<event>
 7    1  0.2384639E-009  0.1697225E+03  0.7561462E-02  0.1178138E+00
          2   -1    0    0  501    0  0.00000000000E+00  0.00000000000E+00  0.87456032250E+02  0.87456032250E+02  0.00000000000E+00 0.  1.
         -2   -1    0    0    0  501 -0.00000000000E+00 -0.00000000000E+00 -0.43459487465E+03  0.43459487465E+03  0.00000000000E+00 0. -1.
         25    2    1    2    0    0 -0.92942472262E+02  0.13277185330E+03 -0.24324537684E+03  0.31793530200E+03  0.12509146543E+03 0.  0.
          5    1    3    3  502    0 -0.21694841540E+02  0.50287974405E+02 -0.18762133135E+03  0.19549624778E+03  0.41800000000E+01 0. -1.
         -5    1    3    3    0  502 -0.71247630722E+02  0.82483878898E+02 -0.55624045491E+02  0.12243905422E+03  0.41800000000E+01 0. -1.
        -11    1    1    2    0    0  0.39261377823E+02 -0.86396744636E+01 -0.28498658855E+02  0.49277513329E+02  0.00000000000E+00 0. -1.
         11    1    1    2    0    0  0.53681094439E+02 -0.12413217884E+03 -0.75394806709E+02  0.15483809157E+03  0.00000000000E+00 0.  1.
</event>
<event>
 7    1  0.2384639E-009  0.7892804E+02  0.7561462E-02  0.1332121E+00
          2   -1    0    0  501    0  0.00000000000E+00  0.00000000000E+00  0.79046443235E+03  0.79046443235E+03  0.00000000000E+00 0. -1.
         -2   -1    0    0    0  501 -0.00000000000E+00 -0.00000000000E+00 -0.17090038986E+02  0.17090038986E+02  0.00000000000E+00 0.  1.
         25    2    1    2    0    0 -0.10157387912E+02 -0.37123421929E+02  0.46504315459E+03  0.48310904115E+03  0.12509152259E+03 0.  0.
          5    1    3    3  502    0 -0.24666252601E+02 -0.33693181972E+02  0.40623874590E+02  0.58407414902E+02  0.41800000000E+01 0.  1.
         -5    1    3    3    0  502  0.14508864689E+02 -0.34302399567E+01  0.42441928000E+03  0.42470162625E+03  0.41800000000E+01 0.  1.
        -11    1    1    2    0    0 -0.41558811413E+02  0.17483134881E+02  0.15578506069E+03  0.16217823512E+03  0.00000000000E+00 0. -1.
         11    1    1    2    0    0  0.51716199325E+02  0.19640287048E+02  0.15254617808E+03  0.16226719506E+03  0.00000000000E+00 0.  1.
</event>
<event>
 7    1  0.2384639E-009  0.1041835E+03  0.7561462E-02  0.1271737E+00
         -2   -1    0    0    0  501 -0.00000000000E+00  0.00000000000E+00  0.15539113894E+03  0.15539113894E+03  0.00000000000E+00 0.  1.
          2   -1    0    0  501    0  0.00000000000E+00 -0.00000000000E+00 -0.85557567268E+02  0.85557567268E+02  0.00000000000E+00 0. -1.
         25    2    1    2    0    0  0.31174073624E+02 -0.24065973184E+02  0.21468506924E+02  0.13288983146E+03  0.12509123305E+03 0.  0.
          5    1    3    3  502    0 -0.43552260096E+02  0.14633056784E+02  0.14436948314E+02  0.48340703211E+02  0.41800000000E+01 0. -1.
         -5    1    3    3    0  502  0.74726333721E+02 -0.38699029968E+02  0.70315586109E+01  0.84549128253E+02  0.41800000000E+01 0. -1.
        -11    1    1    2    0    0 -0.37828143251E+02  0.43374862467E+02  0.22194836726E+01  0.57595774356E+02  0.00000000000E+00 0. -1.
         11    1    1    2    0    0  0.66540696266E+01 -0.19308889284E+02  0.46145581078E+02  0.50463100390E+02  0.00000000000E+00 0.  1.
</event>
<event>
 7    1  0.2384639E-009  0.1042054E+03  0.7561462E-02  0.1271693E+00
          1   -1    0    0  501    0  0.00000000000E+00  0.00000000000E+00  0.42580729091E+03  0.42580729091E+03  0.00000000000E+00 0. -1.
         -1   -1    0    0    0  501 -0.00000000000E+00 -0.00000000000E+00 -0.32335395294E+02  0.32335395294E+02  0.00000000000E+00 0.  1.
         25    2    1    2    0    0 -0.42944493615E+01 -0.19629937974E+01  0.31074651695E+03  0.33501238474E+03  0.12509038528E+03 0.  0.
          5    1    3    3  502    0  0.56201185875E+02  0.57597476453E+01  0.93439925669E+02  0.10927140566E+03  0.41800000000E+01 0.  1.
         -5    1    3    3    0  502 -0.60495635237E+02 -0.77227414427E+01  0.21730659128E+03  0.22574097907E+03  0.41800000000E+01 0.  1.
        -11    1    1    2    0    0  0.45455010297E+02  0.14317375496E+02  0.36612016215E+02  0.60096463569E+02  0.00000000000E+00 0.  1.
         11    1    1    2    0    0 -0.41160560936E+02 -0.12354381699E+02  0.46113362447E+02  0.63033837896E+02  0.00000000000E+00 0. -1.
</event>
<event>
 7    1  0.2384639E-009  0.1369950E+03  0.7561462E-02  0.1217431E+00
          2   -1    0    0  501    0  0.00000000000E+00  0.00000000000E+00  0.54216417240E+02  0.54216417240E+02  0.00000000000E+00 0. -1.
         -2   -1    0    0    0  501 -0.00000000000E+00 -0.00000000000E+00 -0.47510174819E+03  0.47510174819E+03  0.00000000000E+00 0.  1.
         25    2    1    2    0    0  0.37601668240E+02  0.10279077673E+03 -0.29719699083E+03  0.34051862600E+03  0.12508818512E+03 0.  0.
          5    1    3    3  502    0  0.60936598729E+02  0.83210074012E+02 -0.29151578784E+03  0.30925088915E+03  0.41800000000E+01 0.  1.
         -5    1    3    3    0  502 -0.23334930489E+02  0.19580702722E+02 -0.56812029931E+01  0.31267736846E+02  0.41800000000E+01 0.  1.
        -11    1    1    2    0    0 -0.34324417090E+02  0.27456469307E+01 -0.15952962095E+02  0.37949982678E+02  0.00000000000E+00 0. -1.
         11    1    1    2    0    0 -0.32772511495E+01 -0.10553642366E+03 -0.10773537802E+03  0.15084955675E+03  0.00000000000E+00 0.  1.
</event>
<event>
 7    1  0.2384639E-009  0.3507722E+03  0.7561462E-02  0.1062299E+00
         -1   -1    0    0    0  501 -0.00000000000E+00  0.00000000000E+00  0.54141518150E+03  0.54141518150E+03  0.00000000000E+00 0.  1.
          1   -1    0    0  501    0  0.00000000000E+00 -0.00000000000E+00 -0.23485510882E+03  0.23485510882E+03  0.00000000000E+00 0. -1.
         25    2    1    2    0    0  0.35343837784E+02  0.33738082457E+03  0.15045793639E+03  0.39161065198E+03  0.12508518885E+03 0.  0.
          5    1    3    3  502    0 -0.93335125091E+01  0.26485623694E+03  0.69485968488E+02  0.27401042483E+03  0.41800000000E+01 0. -1.
         -5    1    3    3    0  502  0.44677350293E+02  0.72524587629E+02  0.80971967901E+02  0.11760022715E+03  0.41800000000E+01 0. -1.
        -11    1    1    2    0    0 -0.56189726223E+02 -0.31738712184E+03  0.14788603000E+03  0.35462959311E+03  0.00000000000E+00 0. -1.
         11    1    1    2    0    0  0.20845888440E+02 -0.19993702729E+02  0.82161062970E+01  0.30030045227E+02  0.00000000000E+00 0.  1.
</event>
<event>
 7    1  0.2384639E-009  0.2544262E+03  0.7561462E-02  0.1110539E+00
          1   -1    0    0  501    0  0.00000000000E+00  0.00000000000E+00  0.72393837741E+03  0.72393837741E+03  0.00000000000E+00 0. -1.
         -1   -1    0    0    0  501 -0.00000000000E+00 -0.00000000000E+00 -0.98078873414E+02  0.98078873414E+02  0.00000000000E+00 0.  1.
         25    2    1    2    0    0  0.69750825827E+02 -0.22362775340E+03  0.22056851765E+03  0.34521561797E+03  0.12509517225E+03 0.  0.
          5    1    3    3  502    0  0.75423376036E+02 -0.64683703906E+02  0.47767648015E+02  0.11032627883E+03  0.41800000000E+01 0.  1.
         -5    1    3    3    0  502 -0.56725502099E+01 -0.15894404949E+03  0.17280086964E+03  0.23488933914E+03  0.41800000000E+01 0.  1.
        -11    1    1    2    0    0 -0.50892929393E+02  0.37485763202E+02  0.85955312066E+02  0.10669390038E+03  0.00000000000E+00 0. -1.
         11    1    1    2    0    0 -0.18857896433E+02  0.18614199020E+03  0.31933567428E+03  0.37010773247E+03  0.00000000000E+00 0.  1.
</event>
<event>
 7    1  0.2384639E-009  0.7388307E+02  0.7561462E-02  0.1347365E+00
          1   -1    0    0  501    0  0.00000000000E+00  0.00000000000E+00  0.49660831630E+03  0.49660831630E+03  0.00000000000E+00 0. -1.
         -1   -1    0    0    0  501 -0.00000000000E+00 -0.00000000000E+00 -0.26201372089E+02  0.26201372089E+02  0.00000000000E+00 0.  1.
         25    2    1    2    0    0 -0.23482767050E+02  0.24136286336E+02  0.24604875122E+03  0.27806685882E+03  0.12508872584E+03 0.  0.
          5    1    3    3  502    0 -0.27861276931E+02  0.30308612107E+02  0.10943868697E+02  0.42803076783E+02  0.41800000000E+01 0.  1.
         -5    1    3    3    0  502  0.43785098804E+01 -0.61723257707E+01  0.23510488252E+03  0.23526378204E+03  0.41800000000E+01 0.  1.
        -11    1    1    2    0    0 -0.79331852516E+01 -0.53890131959E+02  0.12124089667E+03  0.13291514878E+03  0.00000000000E+00 0. -1.
         11    1    1    2    0    0  0.31415952302E+02  0.29753845623E+02  0.10311729632E+03  0.11182768078E+03  0.00000000000E+00 0.  1.
</event>
<event>
 7    1  0.2384639E-009  0.1069829E+03  0.7561462E-02  0.1266261E+00
          1   -1    0    0  501    0  0.00000000000E+00  0.00000000000E+00  0.10315497589E+04  0.10315497589E+04  0.00000000000E+00 0. -1.
         -1   -1    0    0    0  501 -0.00000000000E+00 -0.00000000000E+00 -0.14802239196E+02  0.14802239196E+02  0.00000000000E+00 0.  1.
         25    2    1    2    0    0  0.53118723523E+02  0.13437581496E+02  0.69450352983E+03  0.70780293978E+03  0.12509069204E+03 0.  0.
          5    1    3    3  502    0 -0.29161884003E+02  0.13852471035E+02  0.62672759301E+02  0.70623321862E+02  0.41800000000E+01 0. -1.
         -5    1    3    3    0  502  0.82280607526E+02 -0.41488953886E+00  0.63183077053E+03  0.63717961792E+03  0.41800000000E+01 0. -1.
        -11    1    1    2    0    0 -0.17390314486E+02  0.34854344591E+02  0.80155224748E+02  0.89118507782E+02  0.00000000000E+00 0. -1.
         11    1    1    2    0    0 -0.35728409037E+02 -0.48291926088E+02  0.24208876511E+03  0.24943055051E+03  0.00000000000E+00 0.  1.
</event>
<event>
 7    1  0.2384639E-009  0.1075530E+03  0.7561462E-02  0.1265170E+00
          1   -1    0    0  501    0  0.00000000000E+00  0.00000000000E+00  0.17581607512E+03  0.17581607512E+03  0.00000000000E+00 0. -1.
         -1   -1    0    0    0  501 -0.00000000000E+00 -0.00000000000E+00 -0.76999578473E+02  0.76999578473E+02  0.00000000000E+00 0.  1.
         25    2    1    2    0    0 -0.29008785376E+02  0.27422679556E+02  0.69704990417E+02  0.14865973642E+03  0.12508964210E+03 0.  0.
          5    1    3    3  502    0 -0.25232142101E+02 -0.42816262493E+02  0.59213684436E+02  0.77418512989E+02  0.41800000000E+01 0.  1.
         -5    1    3    3    0  502 -0.37766432756E+01  0.70238942049E+02  0.10491305981E+02  0.71241223430E+02  0.41800000000E+01 0.  1.
        -11    1    1    2    0    0  0.48641926515E+02  0.12549285727E+02 -0.12623828161E+01  0.50250524353E+02  0.00000000000E+00 0.  1.
         11    1    1    2    0    0 -0.19633141139E+02 -0.39971965283E+02  0.30373889047E+02  0.53905392823E+02  0.00000000000E+00 0. -1.
</event>
<event>
 7    1  0.2384639E-009  0.1549966E+03  0.7561462E-02  0.1194464E+00
          1   -1    0    0  501    0  0.00000000000E+00  0.00000000000E+00  0.23019938602E+03  0.23019938602E+03  0.00000000000E+00 0. -1.
         -1   -1    0    0    0  501 -0.00000000000E+00 -0.00000000000E+00 -0.16532915173E+03  0.16532915173E+03  0.00000000000E+00 0.  1.
         25    2    1    2    0    0 -0.25739861115E+02  0.13826909462E+03  0.11257693370E+03  0.21932114235E+03  0.12508922617E+03 0.  0.
          5    1    3    3  502    0 -0.14528599597E+02  0.29928823591E+02 -0.26416340171E+02  0.42686181790E+02  0.41800000000E+01 0. -1.
         -5    1    3    3    0  502 -0.11211261518E+02  0.10834027103E+03  0.13899327387E+03  0.17663496056E+03  0.41800000000E+01 0. -1.
        -11    1    1    2    0    0  0.97500715259E+01  0.12497974696E+02 -0.13412985956E+02  0.20764668515E+02  0.00000000000E+00 0. -1.
         11    1    1    2    0    0  0.15989789589E+02 -0.15076706931E+03 -0.34293713456E+02  0.15544272689E+03  0.00000000000E+00 0.  1.
</event>
<event>
 7    1  0.2384639E-009  0.1153042E+03  0.7561462E-02  0.1251051E+00
          2   -1    0    0  501    0  0.00000000000E+00  0.00000000000E+00  0.10324160929E+04  0.10324160929E+04  0.00000000000E+00 0. -1.
         -2   -1    0    0    0  501 -0.00000000000E+00 -0.00000000000E+00 -0.16271126091E+02  0.16271126091E+02  0.00000000000E+00 0.  1.
         25    2    1    2    0    0 -0.53380195098E+02  0.45015273845E+02  0.56361403219E+03  0.58153572654E+03  0.12508878388E+03 0.  0.
          5    1    3    3  502    0  0.17225120831E+02  0.42015002526E+02  0.40842168036E+03  0.41095949510E+03  0.41800000000E+01 0.  1.
         -5    1    3    3    0  502 -0.70605315929E+02  0.30002713188E+01  0.15519235184E+03  0.17057623145E+03  0.41800000000E+01 0.  1.
        -11    1    1    2    0    0 -0.22112236357E+02  0.62294198172E+01  0.62443717499E+02  0.66535513247E+02  0.00000000000E+00 0.  1.
         11    1    1    2    0    0  0.75492431456E+02 -0.51244693662E+02  0.39008721717E+03  0.40061597925E+03  0.00000000000E+00 0. -1.
</event>
<event>
 7    1  0.2384639E-009  0.1952024E+03  0.7561462E-02  0.1153851E+00
          2   -1    0    0  501    0  0.00000000000E+00  0.00000000000E+00  0.59356818262E+03  0.59356818262E+03  0.00000000000E+00 0. -1.
         -2   -1    0    0    0  501 -0.00000000000E+00 -0.00000000000E+00 -0.11143686330E+03  0.11143686330E+03  0.00000000000E+00 0.  1.
         25    2    1    2    0    0 -0.16081236128E+03 -0.68482851923E+02  0.36575846410E+02  0.21802657816E+03  0.12508908703E+03 0.  0.
          5    1    3    3  502    0  0.17000591965E+02  0.82622806797E+01  0.11961503997E+02  0.22755996728E+02  0.41800000000E+01 0. -1.
         -5    1    3    3    0  502 -0.17781295325E+03 -0.76745132603E+02  0.24614342412E+02  0.19527058143E+03  0.41800000000E+01 0. -1.
        -11    1    1    2    0    0  0.50132735965E+02  0.67038306767E+01  0.24165117868E+03  0.24688767631E+03  0.00000000000E+00 0. -1.
         11    1    1    2    0    0  0.11067962532E+03  0.61779021246E+02  0.20390429424E+03  0.24009079144E+03  0.00000000000E+00 0.  1.
</event>
<event>
 7    1  0.2384639E-009  0.1353383E+03  0.7561462E-02  0.1219743E+00
          1   -1    0    0  501    0  0.00000000000E+00  0.00000000000E+00  0.23658073962E+03  0.23658073962E+03  0.00000000000E+00 0. -1.
         -1   -1    0    0    0  501 -0.00000000000E+00 -0.00000000000E+00 -0.87882060514E+02  0.87882060514E+02  0.00000000000E+00 0.  1.
         25    2    1    2    0    0  0.67696443239E+02  0.63836616210E+02  0.59075507226E+02  0.16671993434E+03  0.12509076288E+03 0.  0.
          5    1    3    3  502    0  0.84210044406E+02 -0.23944944595E+01  0.15868125548E+02  0.85827355726E+02  0.41800000000E+01 0. -1.
         -5    1    3    3    0  502 -0.16513601167E+02  0.66231110669E+02  0.43207381678E+02  0.80892578618E+02  0.41800000000E+01 0. -1.
        -11    1    1    2    0    0 -0.12489475054E+02 -0.61425723347E+02  0.14248113920E+02  0.64281530988E+02  0.00000000000E+00 0.  1.
         11    1    1    2    0    0 -0.55206968185E+02 -0.24108928623E+01  0.75375057955E+02  0.93461334798E+02  0.00000000000E+00 0. -1.
</event>
<event>
 7    1  0.2384639E-009  0.1382628E+03  0.7561462E-02  0.1215686E+00
          1   -1    0    0  501    0  0.00000000000E+00  0.00000000000E+00  0.19455288133E+02  0.19455288133E+02  0.00000000000E+00 0. -1.
         -1   -1    0    0    0  501 -0.00000000000E+00 -0.00000000000E+00 -0.13757441973E+04  0.13757441973E+04  0.00000000000E+00 0.  1.
         25    2    1    2    0    0  0.76353915642E+02  0.82214322622E+02 -0.92932566088E+03  0.94439551446E+03  0.12509032136E+03 0.  0.
          5    1    3    3  502    0  0.62018705391E+02 -0.11391428691E+02 -0.22451068775E+03  0.23323508694E+03  0.41800000000E+01 0. -1.
         -5    1    3    3    0  502  0.14335210251E+02  0.93605751313E+02 -0.70481497312E+03  0.71116042752E+03  0.41800000000E+01 0. -1.
        -11    1    1    2    0    0 -0.59505175200E+02 -0.36467214790E+02 -0.36674043738E+03  0.37332194155E+03  0.00000000000E+00 0.  1.
         11    1    1    2    0    0 -0.16848740442E+02 -0.45747107832E+02 -0.60222810905E+02  0.77482029418E+02  0.00000000000E+00 0. -1.
</event>
<event>
 7    1  0.2384639E-009  0.1430903E+03  0.7561462E-02  0.1209230E+00
         -2   -1    0    0    0  501 -0.00000000000E+00  0.00000000000E+00  0.34288092586E+03  0.34288092586E+03  0.00000000000E+00 0.  1.
          2   -1    0    0  501    0  0.00000000000E+00 -0.00000000000E+00 -0.87505237193E+02  0.87505237193E+02  0.00000000000E+00 0. -1.
         25    2    1    2    0    0 -0.29931402589E+02 -0.91489203190E+02  0.18397617029E+02  0.15890886508E+03  0.12508953565E+03 0.  0.
          5    1    3    3  502    0  0.41201326922E+02 -0.48296653575E+01  0.21005191945E+02  0.46685816864E+02  0.41800000000E+01 0.  1.
         -5    1    3    3    0  502 -0.71132729511E+02 -0.86659537833E+02 -0.26075749163E+01  0.11222304822E+03  0.41800000000E+01 0.  1.
        -11    1    1    2    0    0 -0.82459717349E+01 -0.16123802427E+02  0.28199965494E+02  0.33514341832E+02  0.00000000000E+00 0. -1.
         11    1    1    2    0    0  0.38177374324E+02  0.10761300562E+03  0.20877810615E+03  0.23796295614E+03  0.00000000000E+00 0.  1.
</event>
<event>
 7    1  0.2384639E-009  0.2039119E+03  0.7561462E-02  0.1146480E+00
         -2   -1    0    0    0  501 -0.00000000000E+00  0.00000000000E+00  0.52915607451E+02  0.52915607451E+02  0.00000000000E+00 0.  1.
          2   -1    0    0  501    0  0.00000000000E+00 -0.00000000000E+00 -0.10764949414E+04  0.10764949414E+04  0.00000000000E+00 0. -1.
         25    2    1    2    0    0  0.13911372033E+03 -0.14684866370E+03 -0.68030315661E+03  0.72067835313E+03  0.12509095318E+03 0.  0.
          5    1    3    3  502    0  0.22048096277E+02 -0.82098227421E+01 -0.28153844021E+03  0.28255067768E+03  0.41800000000E+01 0.  1.
         -5    1    3    3    0  502  0.11706562405E+03 -0.13863884095E+03 -0.39876471640E+03  0.43812767546E+03  0.41800000000E+01 0.  1.
        -11    1    1    2    0    0 -0.13205941618E+03  0.13672039971E+03 -0.34715966256E+03  0.39579286048E+03  0.00000000000E+00 0. -1.
         11    1    1    2    0    0 -0.70543041461E+01  0.10128263987E+02  0.38834852377E+01  0.12939335221E+02  0.00000000000E+00 0.  1.
</event>
<event>
 7    1  0.2384639E-009  0.1148544E+03  0.7561462E-02  0.1251835E+00
         -1   -1    0    0    0  501 -0.00000000000E+00  0.00000000000E+00  0.12902410816E+03  0.12902410816E+03  0.00000000000E+00 0. -1.
          1   -1    0    0  501    0  0.00000000000E+00 -0.00000000000E+00 -0.13110550066E+03  0.13110550066E+03  0.00000000000E+00 0.  1.
         25    2    1    2    0    0 -0.32182119237E+02 -0.60604834601E+02 -0.18622562754E+02  0.14388262754E+03  0.12508707323E+03 0.  0.
          5    1    3    3  502    0  0.44611829116E+02 -0.28778155929E+02  0.13047663489E+02  0.54828017275E+02  0.41800000000E+01 0. -1.
         -5    1    3    3    0  502 -0.76793948353E+02 -0.31826678672E+02 -0.31670226243E+02  0.89054610264E+02  0.41800000000E+01 0. -1.
        -11    1    1    2    0    0  0.50544088328E+02  0.53318558066E+02  0.41529157266E+02  0.84393390750E+02  0.00000000000E+00 0. -1.
         11    1    1    2    0    0 -0.18361969091E+02  0.72862765354E+01 -0.24987987008E+02  0.31853590525E+02  0.00000000000E+00 0.  1.
</event>
<event>
 7    1  0.2384639E-009  0.1061284E+03  0.7561462E-02  0.1267912E+00
          2   -1    0    0  501    0  0.00000000000E+00  0.00000000000E+00  0.57278169052E+02  0.57278169052E+02  0.00000000000E+00 0. -1.
         -2   -1    0    0    0  501 -0.00000000000E+00 -0.00000000000E+00 -0.26859935260E+03  0.26859935260E+03  0.00000000000E+00 0.  1.
         25    2    1    2    0    0  0.45262580507E+02  0.23307415464E+02 -0.75456432255E+02  0.15470138523E+03  0.12508760375E+03 0.  0.
          5    1    3    3  502    0  0.12215397429E+02  0.72277431520E+02 -0.27173233589E+02  0.78288569186E+02  0.41800000000E+01 0.  1.
         -5    1    3    3    0  502  0.33047183078E+02 -0.48970016056E+02 -0.48283198666E+02  0.76412816041E+02  0.41800000000E+01 0.  1.
        -11    1    1    2    0    0 -0.12199356260E+02 -0.40532706585E+02 -0.12555123279E+03  0.13249466650E+03  0.00000000000E+00 0.  1.
         11    1    1    2    0    0 -0.33063224246E+02  0.17225291122E+02 -0.10313518508E+02  0.38681469928E+02  0.00000000000E+00 0. -1.
</event>
<event>
 7    1  0.2384639E-009  0.1116958E+03  0.7561462E-02  0.1257461E+00
          1   -1    0    0  501    0  0.00000000000E+00  0.00000000000E+00  0.83665024930E+03  0.83665024930E+03  0.00000000000E+00 0. -1.
         -1   -1    0    0    0  501 -0.00000000000E+00 -0.00000000000E+00 -0.18065638412E+02  0.18065638412E+02  0.00000000000E+00 0.  1.
         25    2    1    2    0    0  0.12383377729E+02  0.49072637044E+02  0.57322155043E+03  0.58889077862E+03  0.12509169245E+03 0.  0.
          5    1    3    3  502    0  0.59541459833E+02  0.18217729722E+01  0.17056291436E+03  0.18071437257E+03  0.41800000000E+01 0.  1.
         -5    1    3    3    0  502 -0.47158082103E+02  0.47250864072E+02  0.40265863606E+03  0.40817640606E+03  0.41800000000E+01 0.  1.
        -11    1    1    2    0    0  0.34611417817E+02 -0.11034359247E+02  0.53553026315E+02  0.64711930545E+02  0.00000000000E+00 0.  1.
         11    1    1    2    0    0 -0.46994795546E+02 -0.38038277797E+02  0.19181003414E+03  0.20111317854E+03  0.00000000000E+00 0. -1.
</event>
<event>
 7    1  0.2384639E-009  0.1170967E+03  0.7561462E-02  0.1247965E+00
          1   -1    0    0  501    0  0.00000000000E+00  0.00000000000E+00  0.20418459953E+03  0.20418459953E+03  0.00000000000E+00 0. -1.
         -1   -1    0    0    0  501 -0.00000000000E+00 -0.00000000000E+00 -0.13938803882E+03  0.13938803882E+03  0.00000000000E+00 0.  1.
         25    2    1    2    0    0  0.48984370540E+02 -0.66979362496E+02 -0.65685223547E+02  0.16385365574E+03  0.12509104024E+03 0.  0.
          5    1    3    3  502    0  0.59381855105E+02  0.19166874056E+02 -0.35347953057E+02  0.71836786969E+02  0.41800000000E+01 0.  1.
         -5    1    3    3    0  502 -0.10397484565E+02 -0.86146236552E+02 -0.30337270490E+02  0.92016868769E+02  0.41800000000E+01 0.  1.
        -11    1    1    2    0    0 -0.58608613813E+01  0.20754481299E+02 -0.11397879449E+02  0.24392823659E+02  0.00000000000E+00 0.  1.
         11    1    1    2    0    0 -0.43123509158E+02  0.46224881197E+02  0.14187966370E+03  0.15532615895E+03  0.00000000000E+00 0. -1.
</event>
<event>
 7    1  0.2384639E-009  0.1277775E+03  0.7561462E-02  0.1230791E+00
          1   -1    0    0  501    0  0.00000000000E+00  0.00000000000E+00  0.52730995757E+02  0.52730995757E+02  0.00000000000E+00 0. -1.
         -1   -1    0    0    0  501 -0.00000000000E+00 -0.00000000000E+00 -0.48216549416E+03  0.48216549416E+03  0.00000000000E+00 0.  1.
         25    2    1    2    0    0  0.56167884152E+02 -0.89992925247E+02 -0.31118313196E+03  0.35176115923E+03  0.12508962278E+03 0.  0.
          5    1    3    3  502    0 -0.82700865474E+01 -0.25454132649E+02  0.38652562563E+00  0.27091124053E+02  0.41800000000E+01 0.  1.
         -5    1    3    3    0  502  0.64437970699E+02 -0.64538792598E+02 -0.31156965758E+03  0.32467003518E+03  0.41800000000E+01 0.  1.
        -11    1    1    2    0    0 -0.41732664019E+02  0.10700751203E+03 -0.84158649010E+02  0.14238996130E+03  0.00000000000E+00 0. -1.
         11    1    1    2    0    0 -0.14435220133E+02 -0.17014586784E+02 -0.34092717431E+02  0.40745369375E+02  0.00000000000E+00 0.  1.
</event>
<event>
 7    1  0.2384639E-009  0.9569190E+02  0.7561462E-02  0.1289625E+00
          1   -1    0    0  501    0  0.00000000000E+00  0.00000000000E+00  0.57321885265E+03  0.57321885265E+03  0.00000000000E+00 0. -1.
         -1   -1    0    0    0  501 -0.00000000000E+00 -0.00000000000E+00 -0.21987110719E+02  0.21987110719E+02  0.00000000000E+00 0.  1.
         25    2    1    2    0    0  0.24052947909E+02  0.11342161845E+00  0.28238216890E+03  0.30978373089E+03  0.12509082079E+03 0.  0.
          5    1    3    3  502    0  0.49113353222E+02  0.29757711678E+02  0.25663907280E+03  0.26301849547E+03  0.41800000000E+01 0. -1.
         -5    1    3    3    0  502 -0.25060405313E+02 -0.29644290060E+02  0.25743096096E+02  0.46765235423E+02  0.41800000000E+01 0. -1.
        -11    1    1    2    0    0 -0.54865860663E+02  0.19512603037E+02  0.14373177239E+03  0.15508006557E+03  0.00000000000E+00 0. -1.
         11    1    1    2    0    0  0.30812912753E+02 -0.19626024656E+02  0.12511780065E+03  0.13034216692E+03  0.00000000000E+00 0.  1.
</event>
<event>
 7    1  0.2384639E-009  0.1050528E+03  0.7561462E-02  0.1270016E+00
          1   -1    0    0  501    0  0.00000000000E+00  0.00000000000E+00  0.69461410486E+03  0.69461410486E+03  0.00000000000E+00 0. -1.
         -1   -1    0    0    0  501 -0.00000000000E+00 -0.00000000000E+00 -0.24019558207E+02  0.24019558207E+02  0.00000000000E+00 0.  1.
         25    2    1    2    0    0 -0.32984294177E+02  0.58614992366E+02  0.31303743348E+03  0.34374998904E+03  0.12509172322E+03 0.  0.
          5    1    3    3  502    0 -0.11692309857E+02  0.75366563764E+02  0.30608243637E+03  0.31546910990E+03  0.41800000000E+01 0.  1.
         -5    1    3    3    0  502 -0.21291984320E+02 -0.16751571398E+02  0.69549971053E+01  0.28280879147E+02  0.41800000000E+01 0.  1.
        -11    1    1    2    0    0  0.57438275530E+02 -0.58318754440E+02  0.31809493848E+03  0.32845794632E+03  0.00000000000E+00 0. -1.
         11    1    1    2    0    0 -0.24453981353E+02 -0.29623792556E+00  0.39462174693E+02  0.46425727700E+02  0.00000000000E+00 0.  1.
</event>
<event>
 7    1  0.2384639E-009  0.1054825E+03  0.7561462E-02  0.1269172E+00
          1   -1    0    0  501    0  0.00000000000E+00  0.00000000000E+00  0.34111300208E+03  0.34111300208E+03  0.00000000000E+00 0. -1.
         -1   -1    0    0    0  501 -0.00000000000E+00 -0.00000000000E+00 -0.52488387898E+02  0.52488387898E+02  0.00000000000E+00 0.  1.
         25    2    1    2    0    0  0.59167441811E+02  0.23463440019E+02  0.91470397021E+02  0.16752719662E+03  0.12508880401E+03 0.  0.
          5    1    3    3  502    0 -0.26959622659E+02  0.31538284098E+02  0.64523697123E+02  0.76826196757E+02  0.41800000000E+01 0.  1.
         -5    1    3    3    0  502  0.86127064470E+02 -0.80748440788E+01  0.26946699898E+02  0.90700999865E+02  0.41800000000E+01 0.  1.
        -11    1    1    2    0    0 -0.67792634620E+02 -0.12879804508E+02  0.20047861816E+03  0.21202218519E+03  0.00000000000E+00 0. -1.
         11    1    1    2    0    0  0.86251928091E+01 -0.10583635511E+02 -0.33244009961E+01  0.14052008170E+02  0.00000000000E+00 0.  1.
</event>
<event>
 7    1  0.2384639E-009  0.9390779E+02  0.7561462E-02  0.1293655E+00
          1   -1    0    0  501    0  0.00000000000E+00  0.00000000000E+00  0.38353266286E+02  0.38353266286E+02  0.00000000000E+00 0. -1.
         -1   -1    0    0    0  501 -0.00000000000E+00 -0.00000000000E+00 -0.33574630412E+03  0.33574630412E+03  0.00000000000E+00 0.  1.
         25    2    1    2    0    0 -0.10825000234E+02  0.19388045149E+01 -0.22334378813E+03  0.25622563397E+03  0.12509271848E+03 0.  0.
          5    1    3    3  502    0  0.56554120447E+02 -0.82384988996E+01 -0.10194992797E+03  0.11695085128E+03  0.41800000000E+01 0.  1.
         -5    1    3    3    0  502 -0.67379120681E+02  0.10177303414E+02 -0.12139386016E+03  0.13927478269E+03  0.41800000000E+01 0.  1.
        -11    1    1    2    0    0  0.26981878929E+02  0.20994245677E+02 -0.81895053409E+02  0.88744464137E+02  0.00000000000E+00 0.  1.
         11    1    1    2    0    0 -0.16156878695E+02 -0.22933050192E+02  0.78458037043E+01  0.29129472292E+02  0.00000000000E+00 0. -1.
</event>
<event>
 7    1  0.2384639E-009  0.1468881E+03  0.7561462E-02  0.1204350E+00
         -1   -1    0    0    0  501 -0.00000000000E+00  0.00000000000E+00  0.10134790911E+04  0.10134790911E+04  0.00000000000E+00 0.  1.
          1   -1    0    0  501    0  0.00000000000E+00 -0.00000000000E+00 -0.25273611774E+02  0.25273611774E+02  0.00000000000E+00 0. -1.
         25    2    1    2    0    0 -0.36862198368E+02  0.10873269119E+03  0.60814053068E+03  0.63139970667E+03  0.12509622185E+03 0.  0.
          5    1    3    3  502    0  0.12834780980E+02  0.10965961263E+03  0.30967808365E+03  0.32879773439E+03  0.41800000000E+01 0.  1.
         -5    1    3    3    0  502 -0.49696979348E+02 -0.92692144219E+00  0.29846244703E+03  0.30260197228E+03  0.41800000000E+01 0.  1.
        -11    1    1    2    0    0  0.56853681702E+02 -0.86472456883E+02  0.34983236561E+03  0.36481846301E+03  0.00000000000E+00 0.  1.
         11    1    1    2    0    0 -0.19991483335E+02 -0.22260234309E+02  0.30232583028E+02  0.42534533193E+02  0.00000000000E+00 0. -1.
</event>
<event>
 7    1  0.2384639E-009  0.1467313E+03  0.7561462E-02  0.1204548E+00
         -1   -1    0    0    0  501 -0.00000000000E+00  0.00000000000E+00  0.59523834756E+02  0.59523834756E+02  0.00000000000E+00 0.  1.
          1   -1    0    0  501    0  0.00000000000E+00 -0.00000000000E+00 -0.39024332824E+03  0.39024332824E+03  0.00000000000E+00 0. -1.
         25    2    1    2    0    0  0.58815186347E+02 -0.90352316403E+02 -0.22650926543E+03  0.28031571883E+03  0.12509071778E+03 0.  0.
          5    1    3    3  502    0  0.40462496334E+02  0.21849865978E+02 -0.10017084189E+03  0.11030095294E+03  0.41800000000E+01 0. -1.
         -5    1    3    3    0  502  0.18352690013E+02 -0.11220218238E+03 -0.12633842353E+03  0.17001476590E+03  0.41800000000E+01 0. -1.
        -11    1    1    2    0    0 -0.26771907526E+02 -0.96881708341E+01 -0.24965474172E+02  0.37866483694E+02  0.00000000000E+00 0.  1.
         11    1    1    2    0    0 -0.32043278821E+02  0.10004048724E+03 -0.79244753888E+02  0.13158496047E+03  0.00000000000E+00 0. -1.
</event>
<event>
 7    1  0.2384639E-009  0.1066680E+03  0.7561462E-02  0.1266868E+00
         -1   -1    0    0    0  501 -0.00000000000E+00  0.00000000000E+00  0.16767755627E+03  0.16767755627E+03  0.00000000000E+00 0.  1.
          1   -1    0    0  501    0  0.00000000000E+00 -0.00000000000E+00 -0.15562096153E+03  0.15562096153E+03  0.00000000000E+00 0. -1.
         25    2    1    2    0    0 -0.63569614642E+02 -0.72230981041E+01 -0.94090876967E+02  0.16909378243E+03  0.12508535117E+03 0.  0.
          5    1    3    3  502    0 -0.24227913457E+02  0.41343969852E+02  0.85419849180E+01  0.48854411673E+02  0.41800000000E+01 0. -1.
         -5    1    3    3    0  502 -0.39341701185E+02 -0.48567067956E+02 -0.10263286188E+03  0.12023937076E+03  0.41800000000E+01 0. -1.
        -11    1    1    2    0    0  0.10117150897E+02  0.39078841801E+02  0.73692537565E+02  0.84024417353E+02  0.00000000000E+00 0.  1.
         11    1    1    2    0    0  0.53452463745E+02 -0.31855743697E+02  0.32454934144E+02  0.70180318019E+02  0.00000000000E+00 0. -1.
</event>
<event>
 7    1  0.2384639E-009  0.1968926E+03  0.7561462E-02  0.1152387E+00
         -1   -1    0    0    0  501 -0.00000000000E+00  0.00000000000E+00  0.76635912204E+02  0.76635912204E+02  0.00000000000E+00 0.  1.
          1   -1    0    0  501    0  0.00000000000E+00 -0.00000000000E+00 -0.54393636687E+03  0.54393636687E+03  0.00000000000E+00 0. -1.
         25    2    1    2    0    0  0.81830818202E+02  0.14720131868E+03 -0.18610660142E+03  0.28044178327E+03  0.12508963061E+03 0.  0.
          5    1    3    3  502    0  0.48166580134E+02  0.15958748972E+03 -0.17704503038E+03  0.24320896673E+03  0.41800000000E+01 0.  1.
         -5    1    3    3    0  502  0.33664238068E+02 -0.12386171046E+02 -0.90615710385E+01  0.37232816541E+02  0.41800000000E+01 0.  1.
        -11    1    1    2    0    0  0.29576617943E+01 -0.86724657493E+02 -0.13932375985E+03  0.16413721102E+03  0.00000000000E+00 0.  1.
         11    1    1    2    0    0 -0.84788479996E+02 -0.60476661184E+02 -0.14187009339E+03  0.17599328478E+03  0.00000000000E+00 0. -1.
</event>
<event>
 7    1  0.2384639E-009  0.8759845E+02  0.7561462E-02  0.1308774E+00
         -1   -1    0    0    0  501 -0.00000000000E+00  0.00000000000E+00  0.16188865879E+03  0.16188865879E+03  0.00000000000E+00 0.  1.
          1   -1    0    0  501    0  0.00000000000E+00 -0.00000000000E+00 -0.12149721185E+03  0.12149721185E+03  0.00000000000E+00 0. -1.
         25    2    1    2    0    0 -0.48538059791E+02  0.35918006768E+02 -0.40020692542E+02  0.14455163032E+03  0.12508985386E+03 0.  0.
          5    1    3    3  502    0  0.11088611933E+02  0.51659901444E+02 -0.59557696519E+02  0.79726371713E+02  0.41800000000E+01 0. -1.
         -5    1    3    3    0  502 -0.59626671724E+02 -0.15741894676E+02  0.19537003977E+02  0.64825258605E+02  0.41800000000E+01 0. -1.
        -11    1    1    2    0    0  0.27252950322E+02 -0.19896283852E+02 -0.17043359141E+02  0.37802929823E+02  0.00000000000E+00 0. -1.
         11    1    1    2    0    0  0.21285109468E+02 -0.16021722916E+02  0.97455498618E+02  0.10103131050E+03  0.00000000000E+00 0.  1.
</event>
<event>
 7    1  0.2384639E-009  0.1111509E+03  0.7561462E-02  0.1258453E+00
          2   -1    0    0  501    0  0.00000000000E+00  0.00000000000E+00  0.72413854812E+03  0.72413854812E+03  0.00000000000E+00 0. -1.
         -2   -1    0    0    0  501 -0.00000000000E+00 -0.00000000000E+00 -0.19899987468E+02  0.19899987468E+02  0.00000000000E+00 0.  1.
         25    2    1    2    0    0 -0.43939417270E+02 -0.11136909755E+02  0.44935565989E+03  0.46863860957E+03  0.12508770585E+03 0.  0.
          5    1    3    3  502    0 -0.59186063717E+02  0.38729913813E+02  0.34140793433E+03  0.34868301705E+03  0.41800000000E+01 0. -1.
         -5    1    3    3    0  502  0.15246646447E+02 -0.49866823568E+02  0.10794772557E+03  0.11995559252E+03  0.41800000000E+01 0. -1.
        -11    1    1    2    0    0  0.64442027313E+02 -0.14752502777E+02  0.12524520937E+03  0.14162193931E+03  0.00000000000E+00 0.  1.
         11    1    1    2    0    0 -0.20502610043E+02  0.25889412532E+02  0.12963769139E+03  0.13377798671E+03  0.00000000000E+00 0. -1.
</event>
<event>
 7    1  0.2384639E-009  0.1089581E+03  0.7561462E-02  0.1262512E+00
          2   -1    0    0  501    0  0.00000000000E+00  0.00000000000E+00  0.53484528028E+03  0.53484528028E+03  0.00000000000E+00 0.  1.
         -2   -1    0    0    0  501 -0.00000000000E+00 -0.00000000000E+00 -0.31653346651E+02  0.31653346651E+02  0.00000000000E+00 0. -1.
         25    2    1    2    0    0 -0.67723789718E+02  0.20936016209E+02  0.24871042588E+03  0.28728029181E+03  0.12509301200E+03 0.  0.
          5    1    3    3  502    0 -0.86352823664E+02  0.56505614453E+02  0.18420442690E+03  0.21118342243E+03  0.41800000000E+01 0. -1.
         -5    1    3    3    0  502  0.18629033946E+02 -0.35569598245E+02  0.64505998981E+02  0.76096869381E+02  0.41800000000E+01 0. -1.
        -11    1    1    2    0    0  0.45002292206E+02 -0.26174951056E+01  0.24412051591E+03  0.24824762611E+03  0.00000000000E+00 0.  1.
         11    1    1    2    0    0  0.22721497512E+02 -0.18318521103E+02  0.10360991846E+02  0.30970709011E+02  0.00000000000E+00 0. -1.
</event>
<event>
 7    1  0.2384639E-009  0.1586890E+03  0.7561462E-02  0.1190185E+00
          1   -1    0    0  501    0  0.00000000000E+00  0.00000000000E+00  0.37496396191E+03  0.37496396191E+03  0.00000000000E+00 0. -1.
         -1   -1    0    0    0  501 -0.00000000000E+00 -0.00000000000E+00 -0.11621399814E+03  0.11621399814E+03  0.00000000000E+00 0.  1.
         25    2    1    2    0    0 -0.30049967570E+02 -0.14444640016E+03  0.25219279065E+03  0.31782921233E+03  0.12508573655E+03 0.  0.
          5    1    3    3  502    0 -0.12156147463E+02 -0.11470730750E+03  0.25776622174E+03  0.28242952357E+03  0.41800000000E+01 0.  1.
         -5    1    3    3    0  502 -0.17893820108E+02 -0.29739092666E+02 -0.55734310886E+01  0.35399688766E+02  0.41800000000E+01 0.  1.
        -11    1    1    2    0    0 -0.26868508324E+02  0.47685938695E+02  0.23957909024E+02  0.59748195735E+02  0.00000000000E+00 0.  1.
         11    1    1    2    0    0  0.56918475894E+02  0.96760461466E+02 -0.17400735902E+02  0.11360055198E+03  0.00000000000E+00 0. -1.
</event>
<event>
 7    1  0.2384639E-009  0.9721916E+02  0.7561462E-02  0.1286255E+00
          1   -1    0    0  501    0  0.00000000000E+00  0.00000000000E+00  0.39316754880E+03  0.39316754880E+03  0.00000000000E+00 0. -1.
         -1   -1    0    0    0  501 -0.00000000000E+00 -0.00000000000E+00 -0.47657797091E+02  0.47657797091E+02  0.00000000000E+00 0.  1.
         25    2    1    2    0    0  0.71406587331E+01  0.86424570562E+02  0.15112142257E+03  0.21448807682E+03  0.12508898966E+03 0.  0.
          5    1    3    3  502    0  0.10816395856E+02  0.42558001201E+02  0.16286858908E+03  0.16873597007E+03  0.41800000000E+01 0. -1.
         -5    1    3    3    0  502 -0.36757371229E+01  0.43866569361E+02 -0.11747166514E+02  0.45752106750E+02  0.41800000000E+01 0. -1.
        -11    1    1    2    0    0 -0.34165720224E+02 -0.42393651014E+02  0.53744547911E+02  0.76504865955E+02  0.00000000000E+00 0.  1.
         11    1    1    2    0    0  0.27025061491E+02 -0.44030919549E+02  0.14064378123E+03  0.14983240312E+03  0.00000000000E+00 0. -1.
</event>
<event>
 7    1  0.2384639E-009  0.1837522E+03  0.7561462E-02  0.1164220E+00
         -1   -1    0    0    0  501 -0.00000000000E+00  0.00000000000E+00  0.44799800450E+02  0.44799800450E+02  0.00000000000E+00 0.  1.
          1   -1    0    0  501    0  0.00000000000E+00 -0.00000000000E+00 -0.91307655586E+03  0.91307655586E+03  0.00000000000E+00 0. -1.
         25    2    1    2    0    0  0.91811207362E+02  0.12827418565E+03 -0.60711865944E+03  0.63962795437E+03  0.12508912370E+03 0.  0.
          5    1    3    3  502    0  0.45225358537E+02  0.14476760135E+03 -0.45876885308E+03  0.48320733066E+03  0.41800000000E+01 0. -1.
         -5    1    3    3    0  502  0.46585848825E+02 -0.16493415694E+02 -0.14834980637E+03  0.15642062371E+03  0.41800000000E+01 0. -1.
        -11    1    1    2    0    0 -0.37613946098E+02 -0.95997002822E+02 -0.21990717172E+03  0.24287733049E+03  0.00000000000E+00 0. -1.
         11    1    1    2    0    0 -0.54197261264E+02 -0.32277182829E+02 -0.41250924244E+02  0.75371071446E+02  0.00000000000E+00 0.  1.
</event>
<event>
 7    1  0.2384639E-009  0.9913225E+02  0.7561462E-02  0.1282131E+00
         -1   -1    0    0    0  501 -0.00000000000E+00  0.00000000000E+00  0.32809875789E+02  0.32809875789E+02  0.00000000000E+00 0.  1.
          1   -1    0    0  501    0  0.00000000000E+00 -0.00000000000E+00 -0.40684810146E+03  0.40684810146E+03  0.00000000000E+00 0. -1.
         25    2    1    2    0    0 -0.23444314173E+02 -0.26983780000E+02 -0.24530084877E+03  0.27766444979E+03  0.12508908833E+03 0.  0.
          5    1    3    3  502    0 -0.45624639083E+02 -0.51303457591E+02 -0.23189148099E+03  0.24187762155E+03  0.41800000000E+01 0. -1.
         -5    1    3    3    0  502  0.22180324909E+02  0.24319677591E+02 -0.13409367783E+02  0.35786828241E+02  0.41800000000E+01 0. -1.
        -11    1    1    2    0    0 -0.34013749745E+02  0.16843489946E+02 -0.35289189318E+02  0.51826298421E+02  0.00000000000E+00 0.  1.
         11    1    1    2    0    0  0.57458063918E+02  0.10140290054E+02 -0.93448187583E+02  0.11016722904E+03  0.00000000000E+00 0. -1.
</event>
<event>
 7    1  0.2384639E-009  0.1032984E+03  0.7561462E-02  0.1273509E+00
          1   -1    0    0  501    0  0.00000000000E+00  0.00000000000E+00  0.14466400926E+03  0.14466400926E+03  0.00000000000E+00 0. -1.
         -1   -1    0    0    0  501 -0.00000000000E+00 -0.00000000000E+00 -0.12036518765E+03  0.12036518765E+03  0.00000000000E+00 0.  1.
         25    2    1    2    0    0  0.21940179696E+02 -0.15224843045E+02  0.83224347074E+02  0.15260115414E+03  0.12509057906E+03 0.  0.
          5    1    3    3  502    0 -0.63017439681E+01 -0.63015063918E+02  0.71695472328E+02  0.95751362444E+02  0.41800000000E+01 0.  1.
         -5    1    3    3    0  502  0.28241923664E+02  0.47790220873E+02  0.11528874746E+02  0.56849791700E+02  0.41800000000E+01 0.  1.
        -11    1    1    2    0    0 -0.27504332509E+01 -0.34267987739E+02 -0.17687487005E+01  0.34423659578E+02  0.00000000000E+00 0.  1.
         11    1    1    2    0    0 -0.19189746445E+02  0.49492830784E+02 -0.57156776755E+02  0.78004383189E+02  0.00000000000E+00 0. -1.
</event>
<event>
 7    1  0.2384639E-009  0.1600381E+03  0.7561462E-02  0.1188654E+00
         -2   -1    0    0    0  501 -0.00000000000E+00  0.00000000000E+00  0.98499553800E+02  0.98499553800E+02  0.00000000000E+00 0.  1.
          2   -1    0    0  501    0  0.00000000000E+00 -0.00000000000E+00 -0.34399531653E+03  0.34399531653E+03  0.00000000000E+00 0. -1.
         25    2    1    2    0    0  0.73387854468E+02  0.10685116450E+03 -0.21673739370E+03  0.28182512329E+03  0.12508938305E+03 0.  0.
          5    1    3    3  502    0 -0.31215829066E+02  0.47870192594E+02 -0.48425899337E+02  0.75023485989E+02  0.41800000000E+01 0.  1.
         -5    1    3    3    0  502  0.10460368353E+03  0.58980971902E+02 -0.16831149437E+03  0.20680163730E+03  0.41800000000E+01 0.  1.
        -11    1    1    2    0    0 -0.55896516017E+02 -0.29287832373E+02 -0.47494994332E+02  0.78980833843E+02  0.00000000000E+00 0. -1.
         11    1    1    2    0    0 -0.17491338451E+02 -0.77563332123E+02  0.18736625307E+02  0.81688913194E+02  0.00000000000E+00 0.  1.
</event>
<event>
 7    1  0.2384639E-009  0.2269596E+03  0.7561462E-02  0.1128798E+00
          1   -1    0    0  501    0  0.00000000000E+00  0.00000000000E+00  0.33353662023E+03  0.33353662023E+03  0.00000000000E+00 0. -1.
         -1   -1    0    0    0  501 -0.00000000000E+00 -0.00000000000E+00 -0.16445470997E+03  0.16445470997E+03  0.00000000000E+00 0.  1.
         25    2    1    2    0    0  0.14849340456E+03  0.14405394649E+03  0.70814701238E+02  0.25191654256E+03  0.12508154062E+03 0.  0.
          5    1    3    3  502    0  0.16307471471E+03  0.12032422679E+03  0.33953514434E+02  0.20552760319E+03  0.41800000000E+01 0.  1.
         -5    1    3    3    0  502 -0.14581310152E+02  0.23729719698E+02  0.36861186805E+02  0.46388939364E+02  0.41800000000E+01 0.  1.
        -11    1    1    2    0    0  0.10745139673E+02 -0.60322897986E+01 -0.23693562484E+01  0.12548322431E+02  0.00000000000E+00 0.  1.
         11    1    1    2    0    0 -0.15923854423E+03 -0.13802165669E+03  0.10063656527E+03  0.23352646521E+03  0.00000000000E+00 0. -1.
</event>
<event>
 7    1  0.2384639E-009  0.1127916E+03  0.7561462E-02  0.1255486E+00
         -2   -1    0    0    0  501 -0.00000000000E+00  0.00000000000E+00  0.14766820071E+03  0.14766820071E+03  0.00000000000E+00 0.  1.
          2   -1    0    0  501    0  0.00000000000E+00 -0.00000000000E+00 -0.10832580033E+03  0.10832580033E+03  0.00000000000E+00 0. -1.
         25    2    1    2    0    0 -0.32759200311E+02 -0.38615790714E+02 -0.21972146935E+02  0.13672765625E+03  0.12508929709E+03 0.  0.
          5    1    3    3  502    0  0.28573924993E+02 -0.56633428484E+02 -0.33154959116E+02  0.71697546160E+02  0.41800000000E+01 0.  1.
         -5    1    3    3    0  502 -0.61333125304E+02  0.18017637770E+02  0.11182812181E+02  0.65030110093E+02  0.41800000000E+01 0. -1.
        -11    1    1    2    0    0  0.48415863341E+02 -0.77324777072E+01  0.13487957531E+02  0.50850880355E+02  0.00000000000E+00 0.  1.
         11    1    1    2    0    0 -0.15656663030E+02  0.46348268422E+02  0.47826589789E+02  0.68415464434E+02  0.00000000000E+00 0. -1.
</event>
<event>
 7    1  0.2384639E-009  0.1852206E+03  0.7561462E-02  0.1162844E+00
          1   -1    0    0  501    0  0.00000000000E+00  0.00000000000E+00  0.83902642592E+02  0.83902642592E+02  0.00000000000E+00 0. -1.
         -1   -1    0    0    0  501 -0.00000000000E+00 -0.00000000000E+00 -0.54211177050E+03  0.54211177050E+03  0.00000000000E+00 0.  1.
         25    2    1    2    0    0  0.14850064150E+03 -0.10890510321E+03 -0.24897413600E+03  0.33398369601E+03  0.12507688345E+03 0.  0.
          5    1    3    3  502    0  0.51338622333E+02 -0.53907921297E+02 -0.19723918160E+03  0.21086129393E+03  0.41800000000E+01 0.  1.
         -5    1    3    3    0  502  0.97162019164E+02 -0.54997181918E+02 -0.51734954399E+02  0.12312240208E+03  0.41800000000E+01 0.  1.
        -11    1    1    2    0    0 -0.11137044682E+03  0.82063025026E+02 -0.20319642008E+03  0.24581802544E+03  0.00000000000E+00 0. -1.
         11    1    1    2    0    0 -0.37130194682E+02  0.26842078188E+02 -0.60385718320E+01  0.46212691637E+02  0.00000000000E+00 0.  1.
</event>
<event>
 7    1  0.2384639E-009  0.2899031E+03  0.7561462E-02  0.1090400E+00
         -1   -1    0    0    0  501 -0.00000000000E+00  0.00000000000E+00  0.11538841601E+03  0.11538841601E+03  0.00000000000E+00 0.  1.
          1   -1    0    0  501    0  0.00000000000E+00 -0.00000000000E+00 -0.81080639626E+03  0.81080639626E+03  0.00000000000E+00 0. -1.
         25    2    1    2    0    0  0.19792477662E+03 -0.20589534074E+03 -0.37671934776E+03  0.48901168234E+03  0.12509136641E+03 0.  0.
          5    1    3    3  502    0  0.15275794435E+03 -0.15666808116E+03 -0.18712158389E+03  0.28794415565E+03  0.41800000000E+01 0. -1.
         -5    1    3    3    0  502  0.45166832269E+02 -0.49227259574E+02 -0.18959776387E+03  0.20106752669E+03  0.41800000000E+01 0. -1.
        -11    1    1    2    0    0 -0.27786939496E+02  0.73043517338E+02 -0.12351469542E+03  0.14616206559E+03  0.00000000000E+00 0. -1.
         11    1    1    2    0    0 -0.17013783712E+03  0.13285182340E+03 -0.19518393706E+03  0.29102106434E+03  0.00000000000E+00 0.  1.
</event>
<event>
 7    1  0.2384639E-009  0.1702156E+03  0.7561462E-02  0.1177623E+00
          1   -1    0    0  501    0  0.00000000000E+00  0.00000000000E+00  0.54549434350E+03  0.54549434350E+03  0.00000000000E+00 0. -1.
         -1   -1    0    0    0  501 -0.00000000000E+00 -0.00000000000E+00 -0.78919112704E+02  0.78919112704E+02  0.00000000000E+00 0.  1.
         25    2    1    2    0    0  0.14519585641E+03  0.53177238670E+02  0.35585364540E+03  0.40766404878E+03  0.12509398182E+03 0.  0.
          5    1    3    3  502    0  0.14254706279E+03  0.21356895873E+02  0.34459614785E+03  0.37355021032E+03  0.41800000000E+01 0. -1.
         -5    1    3    3    0  502  0.26487936152E+01  0.31820342797E+02  0.11257497548E+02  0.34113838459E+02  0.41800000000E+01 0. -1.
        -11    1    1    2    0    0 -0.99953536411E+02 -0.82878390889E+01  0.14506395557E+02  0.10134018566E+03  0.00000000000E+00 0.  1.
         11    1    1    2    0    0 -0.45242319996E+02 -0.44889399581E+02  0.96215189832E+02  0.11540922176E+03  0.00000000000E+00 0. -1.
</event>
<event>
 7    1  0.2384639E-009  0.2054746E+03  0.7561462E-02  0.1145201E+00
         -2   -1    0    0    0  501 -0.00000000000E+00  0.00000000000E+00  0.45993003939E+03  0.45993003939E+03  0.00000000000E+00 0. -1.
          2   -1    0    0  501    0  0.00000000000E+00 -0.00000000000E+00 -0.10540100826E+03  0.10540100826E+03  0.00000000000E+00 0.  1.
         25    2    1    2    0    0 -0.12459312239E+03  0.13515296413E+03  0.12086862647E+03  0.25307443081E+03  0.12509065834E+03 0.  0.
          5    1    3    3  502    0 -0.61126642031E+02  0.14179616343E+03  0.62973173504E+02  0.16681040528E+03  0.41800000000E+01 0.  1.
         -5    1    3    3    0  502 -0.63466480360E+02 -0.66431992980E+01  0.57895452968E+02  0.86264025529E+02  0.41800000000E+01 0.  1.
        -11    1    1    2    0    0  0.61446914670E+02 -0.10701260715E+03  0.89698211761E+02  0.15255553286E+03  0.00000000000E+00 0.  1.
         11    1    1    2    0    0  0.63146207722E+02 -0.28140356981E+02  0.14396219290E+03  0.15970108398E+03  0.00000000000E+00 0. -1.
</event>
<event>
 7    1  0.2384639E-009  0.1022744E+03  0.7561462E-02  0.1275585E+00
          3   -1    0    0  501    0  0.00000000000E+00  0.00000000000E+00  0.29268444291E+03  0.29268444291E+03  0.00000000000E+00 0. -1.
         -3   -1    0    0    0  501 -0.00000000000E+00 -0.00000000000E+00 -0.79888971367E+02  0.79888971367E+02  0.00000000000E+00 0.  1.
         25    2    1    2    0    0  0.17143416744E+02 -0.45623138452E+02 -0.11823277248E+01  0.13425630157E+03  0.12509192265E+03 0.  0.
          5    1    3    3  502    0  0.51999407518E-01 -0.85555212422E+02  0.16395507537E+02  0.87212282070E+02  0.41800000000E+01 0. -1.
         -5    1    3    3    0  502  0.17091417337E+02  0.39932073969E+02 -0.17577835262E+02  0.47044019498E+02  0.41800000000E+01 0. -1.
        -11    1    1    2    0    0  0.14539712809E+01 -0.13344853552E+02 -0.20818049961E+01  0.13584294640E+02  0.00000000000E+00 0.  1.
         11    1    1    2    0    0 -0.18597388025E+02  0.58967992004E+02  0.21605960426E+03  0.22473281806E+03  0.00000000000E+00 0. -1.
</event>
<event>
 7    1  0.2384639E-009  0.1389713E+03  0.7561462E-02  0.1214720E+00
          1   -1    0    0  501    0  0.00000000000E+00  0.00000000000E+00  0.20201015543E+03  0.20201015543E+03  0.00000000000E+00 0. -1.
         -1   -1    0    0    0  501 -0.00000000000E+00 -0.00000000000E+00 -0.10654840003E+03  0.10654840003E+03  0.00000000000E+00 0.  1.
         25    2    1    2    0    0  0.39268740251E+02 -0.90706001849E+02  0.46326433472E+02  0.16602276653E+03  0.12509119808E+03 0.  0.
          5    1    3    3  502    0 -0.91949704719E+01  0.25424113296E+02  0.27369190512E+02  0.38697260990E+02  0.41800000000E+01 0.  1.
         -5    1    3    3    0  502  0.48463710723E+02 -0.11613011515E+03  0.18957242960E+02  0.12732550554E+03  0.41800000000E+01 0.  1.
        -11    1    1    2    0    0 -0.50839211569E+02  0.22666951119E+02 -0.34487733001E+01  0.55770154593E+02  0.00000000000E+00 0.  1.
         11    1    1    2    0    0  0.11570471319E+02  0.68039050730E+02  0.52584095229E+02  0.86765634337E+02  0.00000000000E+00 0. -1.
</event>
<event>
 7    1  0.2384639E-009  0.1152562E+03  0.7561462E-02  0.1251135E+00
         -2   -1    0    0    0  501 -0.00000000000E+00  0.00000000000E+00  0.24894484210E+03  0.24894484210E+03  0.00000000000E+00 0.  1.
          2   -1    0    0  501    0  0.00000000000E+00 -0.00000000000E+00 -0.60499856050E+02  0.60499856050E+02  0.00000000000E+00 0. -1.
         25    2    1    2    0    0  0.17125268276E+02 -0.40908285749E+02  0.14577695395E+03  0.19714415487E+03  0.12509250514E+03 0.  0.
          5    1    3    3  502    0  0.33233114251E+02 -0.81582995290E+02  0.10577770723E+03  0.13771935503E+03  0.41800000000E+01 0. -1.
         -5    1    3    3    0  502 -0.16107845974E+02  0.40674709542E+02  0.39999246718E+02  0.59424799842E+02  0.41800000000E+01 0. -1.
        -11    1    1    2    0    0 -0.53231547010E+02  0.26932539946E+02  0.43073272829E+02  0.73581697026E+02  0.00000000000E+00 0.  1.
         11    1    1    2    0    0  0.36106278734E+02  0.13975745802E+02 -0.40524072996E+00  0.38718846248E+02  0.00000000000E+00 0. -1.
</event>
<event>
 7    1  0.2384639E-009  0.1409539E+03  0.7561462E-02  0.1212051E+00
         -1   -1    0    0    0  501 -0.00000000000E+00  0.00000000000E+00  0.73147495768E+02  0.73147495768E+02  0.00000000000E+00 0.  1.
          1   -1    0    0  501    0  0.00000000000E+00 -0.00000000000E+00 -0.38160630504E+03  0.38160630504E+03  0.00000000000E+00 0. -1.
         25    2    1    2    0    0 -0.10827565745E+03  0.45467300427E+02 -0.10023240745E+03  0.19870612513E+03  0.12508675092E+03 0.  0.
          5    1    3    3  502    0 -0.71847775277E+02  0.74948406403E+02 -0.10928084428E+03  0.15079503228E+03  0.41800000000E+01 0.  1.
         -5    1    3    3    0  502 -0.36427882169E+02 -0.29481105976E+02  0.90484368257E+01  0.47911092847E+02  0.41800000000E+01 0.  1.
        -11    1    1    2    0    0  0.22112317873E+02  0.14078970244E+02 -0.39827646891E+01  0.26514796236E+02  0.00000000000E+00 0.  1.
         11    1    1    2    0    0  0.86163339572E+02 -0.59546270671E+02 -0.20424363712E+03  0.22953287944E+03  0.00000000000E+00 0. -1.
</event>
<event>
 7    1  0.2384639E-009  0.1015609E+03  0.7561462E-02  0.1277047E+00
         -2   -1    0    0    0  501 -0.00000000000E+00  0.00000000000E+00  0.10858254599E+03  0.10858254599E+03  0.00000000000E+00 0.  1.
          2   -1    0    0  501    0  0.00000000000E+00 -0.00000000000E+00 -0.12687039837E+03  0.12687039837E+03  0.00000000000E+00 0. -1.
         25    2    1    2    0    0  0.26236321794E+01  0.40899795352E+02 -0.27726083884E+02  0.13452244646E+03  0.12509147120E+03 0.  0.
          5    1    3    3  502    0  0.35290488765E+02 -0.16989044795E+02 -0.50581006078E+02  0.64108944900E+02  0.41800000000E+01 0.  1.
         -5    1    3    3    0  502 -0.32666856586E+02  0.57888840147E+02  0.22854922194E+02  0.70413501555E+02  0.41800000000E+01 0.  1.
        -11    1    1    2    0    0  0.31274914654E+02  0.12664422980E+02  0.15732351033E+02  0.37229219238E+02  0.00000000000E+00 0.  1.
         11    1    1    2    0    0 -0.33898546834E+02 -0.53564218332E+02 -0.62941195385E+01  0.63701278666E+02  0.00000000000E+00 0. -1.
</event>
<event>
 7    1  0.2384639E-009  0.1520693E+03  0.7561462E-02  0.1197953E+00
         -1   -1    0    0    0  501 -0.00000000000E+00  0.00000000000E+00  0.51840197660E+03  0.51840197660E+03  0.00000000000E+00 0.  1.
          1   -1    0    0  501    0  0.00000000000E+00 -0.00000000000E+00 -0.76742491457E+02  0.76742491457E+02  0.00000000000E+00 0. -1.
         25    2    1    2    0    0  0.68419455806E+02 -0.10563831491E+03  0.39425943716E+03  0.43235316704E+03  0.12509229292E+03 0.  0.
          5    1    3    3  502    0  0.58177512524E+01  0.15362611901E+02  0.16327639416E+03  0.16415391973E+03  0.41800000000E+01 0. -1.
         -5    1    3    3    0  502  0.62601704554E+02 -0.12100092681E+03  0.23098304300E+03  0.26819924731E+03  0.41800000000E+01 0. -1.
        -11    1    1    2    0    0 -0.87229069768E+02  0.75519452812E+02  0.18173312345E+02  0.11680054643E+03  0.00000000000E+00 0. -1.
         11    1    1    2    0    0  0.18809613962E+02  0.30118862094E+02  0.29226735640E+02  0.45990754586E+02  0.00000000000E+00 0.  1.
</event>
<event>
 7    1  0.2384639E-009  0.1543052E+03  0.7561462E-02  0.1195280E+00
          1   -1    0    0  501    0  0.00000000000E+00  0.00000000000E+00  0.41525787767E+03  0.41525787767E+03  0.00000000000E+00 0. -1.
         -1   -1    0    0    0  501 -0.00000000000E+00 -0.00000000000E+00 -0.82241354995E+02  0.82241354995E+02  0.00000000000E+00 0.  1.
         25    2    1    2    0    0 -0.13738365407E+03  0.44148577119E+02  0.13528182451E+03  0.23403504764E+03  0.12509143142E+03 0.  0.
          5    1    3    3  502    0 -0.18805225327E+02  0.95007707394E+01  0.10445639397E+03  0.10664197947E+03  0.41800000000E+01 0.  1.
         -5    1    3    3    0  502 -0.11857842874E+03  0.34647806379E+02  0.30825430540E+02  0.12739306817E+03  0.41800000000E+01 0.  1.
        -11    1    1    2    0    0  0.13775736479E+03 -0.19801274227E+02  0.12610041241E+03  0.18780440896E+03  0.00000000000E+00 0.  1.
         11    1    1    2    0    0 -0.37371072489E+00 -0.24347302892E+02  0.71634285754E+02  0.75659776059E+02  0.00000000000E+00 0. -1.
</event>
<event>
 7    1  0.2384639E-009  0.3841845E+03  0.7561462E-02  0.1049398E+00
         -3   -1    0    0    0  501 -0.00000000000E+00  0.00000000000E+00  0.80777864933E+03  0.80777864933E+03  0.00000000000E+00 0.  1.
          3   -1    0    0  501    0  0.00000000000E+00 -0.00000000000E+00 -0.19649009120E+03  0.19649009120E+03  0.00000000000E+00 0. -1.
         25    2    1    2    0    0 -0.36952724863E+03  0.77651573201E+02  0.22878099520E+03  0.45887721298E+03  0.12508956205E+03 0.  0.
          5    1    3    3  502    0 -0.11911775351E+03  0.70588579087E+01  0.13987194666E+03  0.18390350877E+03  0.41800000000E+01 0.  1.
         -5    1    3    3    0  502 -0.25040949511E+03  0.70592715292E+02  0.88909048546E+02  0.27497370421E+03  0.41800000000E+01 0.  1.
        -11    1    1    2    0    0  0.64593392519E+02 -0.51688814032E+02  0.80821557906E+02  0.11565536769E+03  0.00000000000E+00 0.  1.
         11    1    1    2    0    0  0.30493385611E+03 -0.25962759168E+02  0.30168600503E+03  0.42973615986E+03  0.00000000000E+00 0. -1.
</event>
<event>
 7    1  0.2384639E-009  0.1958218E+03  0.7561462E-02  0.1153313E+00
          1   -1    0    0  501    0  0.00000000000E+00  0.00000000000E+00  0.11998639286E+04  0.11998639286E+04  0.00000000000E+00 0. -1.
         -1   -1    0    0    0  501 -0.00000000000E+00 -0.00000000000E+00 -0.35972956730E+02  0.35972956730E+02  0.00000000000E+00 0.  1.
         25    2    1    2    0    0  0.16660783451E+03  0.96586220454E+01  0.78628727146E+03  0.81347817759E+03  0.12509041792E+03 0.  0.
          5    1    3    3  502    0  0.17568248212E+03 -0.15032729920E+02  0.73278814616E+03  0.75371497069E+03  0.41800000000E+01 0. -1.
         -5    1    3    3    0  502 -0.90746476044E+01  0.24691351965E+02  0.53499125302E+02  0.59763206901E+02  0.41800000000E+01 0. -1.
        -11    1    1    2    0    0 -0.90147155044E+02  0.38765104312E+02  0.17985348595E+03  0.20488172022E+03  0.00000000000E+00 0.  1.
         11    1    1    2    0    0 -0.76460679470E+02 -0.48423726357E+02  0.19775021449E+03  0.21747698754E+03  0.00000000000E+00 0. -1.
</event>
<event>
 7    1  0.2384639E-009  0.1513619E+03  0.7561462E-02  0.1198809E+00
          1   -1    0    0  501    0  0.00000000000E+00  0.00000000000E+00  0.83259736228E+03  0.83259736228E+03  0.00000000000E+00 0. -1.
         -1   -1    0    0    0  501 -0.00000000000E+00 -0.00000000000E+00 -0.42450895015E+02  0.42450895015E+02  0.00000000000E+00 0.  1.
         25    2    1    2    0    0  0.11305172879E+03 -0.10027618831E+03  0.52138503433E+03  0.55706856157E+03  0.12508805277E+03 0.  0.
          5    1    3    3  502    0  0.30144807971E+02 -0.31284484019E+02  0.36170582773E+03  0.36432953024E+03  0.41800000000E+01 0.  1.
         -5    1    3    3    0  502  0.82906920820E+02 -0.68991704290E+02  0.15967920659E+03  0.19273903133E+03  0.41800000000E+01 0.  1.
        -11    1    1    2    0    0 -0.81172587771E+02  0.73589086474E+02  0.24880986130E+03  0.27186520508E+03  0.00000000000E+00 0. -1.
         11    1    1    2    0    0 -0.31879141019E+02  0.26687101835E+02  0.19951571640E+02  0.46114490644E+02  0.00000000000E+00 0.  1.
</event>
<event>
 7    1  0.2384639E-009  0.2115932E+03  0.7561462E-02  0.1140311E+00
         -2   -1    0    0    0  501 -0.00000000000E+00  0.00000000000E+00  0.18132704953E+04  0.18132704953E+04  0.00000000000E+00 0.  1.
          2   -1    0    0  501    0  0.00000000000E+00 -0.00000000000E+00 -0.25581877520E+02  0.25581877520E+02  0.00000000000E+00 0. -1.
         25    2    1    2    0    0  0.33750271524E+02 -0.18298614134E+03  0.91682141509E+03  0.94383759675E+03  0.12507954721E+03 0.  0.
          5    1    3    3  502    0 -0.16142076152E+02  0.10432149787E+02  0.40425401339E+02  0.44956443867E+02  0.41800000000E+01 0. -1.
         -5    1    3    3    0  502  0.49892347677E+02 -0.19341829113E+03  0.87639601375E+03  0.89888115288E+03  0.41800000000E+01 0. -1.
        -11    1    1    2    0    0 -0.56148900306E+02  0.76422491616E+02  0.47912807731E+03  0.48842277864E+03  0.00000000000E+00 0.  1.
         11    1    1    2    0    0  0.22398628781E+02  0.10656364972E+03  0.39173912535E+03  0.40659199739E+03  0.00000000000E+00 0. -1.
</event>
<event>
 7    1  0.2384639E-009  0.1183582E+03  0.7561462E-02  0.1245830E+00
          2   -1    0    0  501    0  0.00000000000E+00  0.00000000000E+00  0.47339040468E+02  0.47339040468E+02  0.00000000000E+00 0. -1.
         -2   -1    0    0    0  501 -0.00000000000E+00 -0.00000000000E+00 -0.37322756558E+03  0.37322756558E+03  0.00000000000E+00 0.  1.
         25    2    1    2    0    0 -0.61360805599E+02  0.35292289886E+02 -0.13369943806E+03  0.19630103205E+03  0.12509141160E+03 0.  0.
          5    1    3    3  502    0 -0.28679774809E+02 -0.41298713208E+02 -0.17746825849E+02  0.53483973519E+02  0.41800000000E+01 0. -1.
         -5    1    3    3    0  502 -0.32681030790E+02  0.76591003094E+02 -0.11595261221E+03  0.14281705853E+03  0.41800000000E+01 0. -1.
        -11    1    1    2    0    0  0.47826353971E+00 -0.41667575892E+02 -0.31276045952E+02  0.52101887366E+02  0.00000000000E+00 0. -1.
         11    1    1    2    0    0  0.60882542059E+02  0.63752860057E+01 -0.16091304110E+03  0.17216368663E+03  0.00000000000E+00 0.  1.
</event>
<event>
 7    1  0.2384639E-009  0.1388183E+03  0.7561462E-02  0.1214928E+00
         -2   -1    0    0    0  501 -0.00000000000E+00  0.00000000000E+00  0.73393183647E+02  0.73393183647E+02  0.00000000000E+00 0.  1.
          2   -1    0    0  501    0  0.00000000000E+00 -0.00000000000E+00 -0.37152569035E+03  0.37152569035E+03  0.00000000000E+00 0. -1.
         25    2    1    2    0    0  0.94933128350E+02  0.81326983393E+02 -0.16818401527E+03  0.24404745551E+03  0.12508765111E+03 0.  0.
          5    1    3    3  502    0  0.20402132240E+01  0.24329261050E+02  0.16359133425E+02  0.29684491905E+02  0.41800000000E+01 0.  1.
         -5    1    3    3    0  502  0.92892915126E+02  0.56997722343E+02 -0.18454314870E+03  0.21436296360E+03  0.41800000000E+01 0.  1.
        -11    1    1    2    0    0 -0.86097050557E+02 -0.94563397869E+02 -0.85956254067E+02  0.15408898710E+03  0.00000000000E+00 0.  1.
         11    1    1    2    0    0 -0.88360777928E+01  0.13236414476E+02 -0.43992237365E+02  0.46782431396E+02  0.00000000000E+00 0. -1.
</event>
<event>
 7    1  0.2384639E-009  0.9607655E+02  0.7561462E-02  0.1288770E+00
          2   -1    0    0  501    0  0.00000000000E+00  0.00000000000E+00  0.11821426797E+04  0.11821426797E+04  0.00000000000E+00 0. -1.
         -2   -1    0    0    0  501 -0.00000000000E+00 -0.00000000000E+00 -0.14577892597E+02  0.14577892597E+02  0.00000000000E+00 0.  1.
         25    2    1    2    0    0 -0.24297409823E+02  0.68857950894E+01  0.96229662832E+03  0.97072133799E+03  0.12508931557E+03 0.  0.
          5    1    3    3  502    0  0.23306104730E+02  0.47139750433E+02  0.65595392205E+03  0.65807169126E+03  0.41800000000E+01 0.  1.
         -5    1    3    3    0  502 -0.47603514553E+02 -0.40253955344E+02  0.30634270626E+03  0.31264964673E+03  0.41800000000E+01 0.  1.
        -11    1    1    2    0    0  0.38254796418E+02 -0.30878510815E+02  0.18554711109E+03  0.19194958274E+03  0.00000000000E+00 0. -1.
         11    1    1    2    0    0 -0.13957386595E+02  0.23992715726E+02  0.19721047659E+02  0.34049651529E+02  0.00000000000E+00 0.  1.
</event>
<event>
 7    1  0.2384639E-009  0.1346747E+03  0.7561462E-02  0.1220680E+00
          1   -1    0    0  501    0  0.00000000000E+00  0.00000000000E+00  0.38884970474E+02  0.38884970474E+02  0.00000000000E+00 0. -1.
         -1   -1    0    0    0  501 -0.00000000000E+00 -0.00000000000E+00 -0.53189179673E+03  0.53189179673E+03  0.00000000000E+00 0.  1.
         25    2    1    2    0    0 -0.89951227741E+02 -0.58355159567E+01 -0.28736175583E+03  0.32611076788E+03  0.12508468169E+03 0.  0.
          5    1    3    3  502    0 -0.75558594010E+01 -0.46019459327E+02 -0.37686204388E+02  0.60104941970E+02  0.41800000000E+01 0. -1.
         -5    1    3    3    0  502 -0.82395368340E+02  0.40183943370E+02 -0.24967555144E+03  0.26600582591E+03  0.41800000000E+01 0. -1.
        -11    1    1    2    0    0  0.87832084261E+02 -0.31540593668E+02 -0.16379414347E+03  0.18851473552E+03  0.00000000000E+00 0.  1.
         11    1    1    2    0    0  0.21191434807E+01  0.37376109625E+02 -0.41850926963E+02  0.56151263809E+02  0.00000000000E+00 0. -1.
</event>
<event>
 7    1  0.2384639E-009  0.2680453E+03  0.7561462E-02  0.1102404E+00
         -1   -1    0    0    0  501 -0.00000000000E+00  0.00000000000E+00  0.23514700608E+03  0.23514700608E+03  0.00000000000E+00 0.  1.
          1   -1    0    0  501    0  0.00000000000E+00 -0.00000000000E+00 -0.32701855479E+03  0.32701855479E+03  0.00000000000E+00 0. -1.
         25    2    1    2    0    0  0.25875471058E+02  0.24359043836E+03  0.22613852756E+02  0.27597987531E+03  0.12509062144E+03 0.  0.
          5    1    3    3  502    0  0.73735378421E+02  0.18548660728E+03  0.17465595913E+02  0.20041134437E+03  0.41800000000E+01 0. -1.
         -5    1    3    3    0  502 -0.47859907363E+02  0.58103831080E+02  0.51482568432E+01  0.75568530934E+02  0.41800000000E+01 0. -1.
        -11    1    1    2    0    0 -0.59150828030E+02 -0.17672209101E+03 -0.68923769262E+02  0.19869575706E+03  0.00000000000E+00 0. -1.
         11    1    1    2    0    0  0.33275356972E+02 -0.66868347358E+02 -0.45561632208E+02  0.87489928503E+02  0.00000000000E+00 0.  1.
</event>
<event>
 7    1  0.2384639E-009  0.1129291E+03  0.7561462E-02  0.1255240E+00
          4   -1    0    0  501    0  0.00000000000E+00  0.00000000000E+00  0.37941640652E+02  0.37941640652E+02  0.00000000000E+00 0. -1.
         -4   -1    0    0    0  501 -0.00000000000E+00 -0.00000000000E+00 -0.10262643978E+04  0.10262643978E+04  0.00000000000E+00 0.  1.
         25    2    1    2    0    0  0.36143994612E+02 -0.48569480691E+02 -0.92725655094E+03  0.93761328208E+03  0.12509425514E+03 0.  0.
          5    1    3    3  502    0  0.63845091255E+02  0.81993907421E+01 -0.28321408391E+03  0.29046706425E+03  0.41800000000E+01 0. -1.
         -5    1    3    3    0  502 -0.27701096643E+02 -0.56768871434E+02 -0.64404246702E+03  0.64714621783E+03  0.41800000000E+01 0. -1.
        -11    1    1    2    0    0 -0.46214618831E+02  0.64411839576E+02 -0.70041604955E+02  0.10578517144E+03  0.00000000000E+00 0.  1.
         11    1    1    2    0    0  0.10070624219E+02 -0.15842358885E+02  0.89753987645E+01  0.20807584919E+02  0.00000000000E+00 0. -1.
</event>
<event>
 7    1  0.2384639E-009  0.1143904E+03  0.7561462E-02  0.1252649E+00
          1   -1    0    0  501    0  0.00000000000E+00  0.00000000000E+00  0.40403642727E+03  0.40403642727E+03  0.00000000000E+00 0. -1.
         -1   -1    0    0    0  501 -0.00000000000E+00 -0.00000000000E+00 -0.38983387898E+02  0.38983387898E+02  0.00000000000E+00 0.  1.
         25    2    1    2    0    0 -0.35466331833E+02  0.33096892909E+02  0.13260068153E+03  0.18863725911E+03  0.12509120580E+03 0.  0.
          5    1    3    3  502    0 -0.74584186603E+02  0.47849545532E+02  0.68889409410E+02  0.11231920151E+03  0.41800000000E+01 0.  1.
         -5    1    3    3    0  502  0.39117854770E+02 -0.14752652623E+02  0.63711272121E+02  0.76318057604E+02  0.41800000000E+01 0.  1.
        -11    1    1    2    0    0  0.40396851016E+02  0.19757121324E+02  0.14755637001E+03  0.15425670729E+03  0.00000000000E+00 0. -1.
         11    1    1    2    0    0 -0.49305191831E+01 -0.52854014233E+02  0.84895987839E+02  0.10012584877E+03  0.00000000000E+00 0.  1.
</event>
<event>
 7    1  0.2384639E-009  0.1118681E+03  0.7561462E-02  0.1257149E+00
          1   -1    0    0  501    0  0.00000000000E+00  0.00000000000E+00  0.17339839015E+03  0.17339839015E+03  0.00000000000E+00 0. -1.
         -1   -1    0    0    0  501 -0.00000000000E+00 -0.00000000000E+00 -0.93524633135E+02  0.93524633135E+02  0.00000000000E+00 0.  1.
         25    2    1    2    0    0  0.27187967527E+02 -0.44623452364E+02  0.85084587462E+02  0.16004663531E+03  0.12508037564E+03 0.  0.
          5    1    3    3  502    0  0.66559219209E+02 -0.15239490596E+02  0.87036260456E+02  0.11070300253E+03  0.41800000000E+01 0. -1.
         -5    1    3    3    0  502 -0.39371251682E+02 -0.29383961767E+02 -0.19516729935E+01  0.49343632777E+02  0.41800000000E+01 0. -1.
        -11    1    1    2    0    0  0.25482205595E+02 -0.12448302243E+02 -0.69340576606E+01  0.29195619301E+02  0.00000000000E+00 0. -1.
         11    1    1    2    0    0 -0.52670173121E+02  0.57071754607E+02  0.17232272173E+01  0.77680768679E+02  0.00000000000E+00 0.  1.
</event>
<event>
 7    1  0.2384639E-009  0.1241371E+03  0.7561462E-02  0.1236424E+00
         -4   -1    0    0    0  501 -0.00000000000E+00  0.00000000000E+00  0.30350002964E+03  0.30350002964E+03  0.00000000000E+00 0.  1.
          4   -1    0    0  501    0  0.00000000000E+00 -0.00000000000E+00 -0.60512507097E+02  0.60512507097E+02  0.00000000000E+00 0. -1.
         25    2    1    2    0    0  0.78745483278E+02 -0.23721014879E+02  0.14987275925E+03  0.21183121764E+03  0.12508830129E+03 0.  0.
          5    1    3    3  502    0 -0.59994512287E+01  0.30810004716E+02  0.87955216272E+02  0.93481775096E+02  0.41800000000E+01 0. -1.
         -5    1    3    3    0  502  0.84744934506E+02 -0.54531019596E+02  0.61917542978E+02  0.11834944255E+03  0.41800000000E+01 0. -1.
        -11    1    1    2    0    0 -0.22571620790E+02 -0.30320417270E+02  0.51310101210E+02  0.63730151849E+02  0.00000000000E+00 0.  1.
         11    1    1    2    0    0 -0.56173862488E+02  0.54041432149E+02  0.41804662085E+02  0.88451167248E+02  0.00000000000E+00 0. -1.
</event>
<event>
 7    1  0.2384639E-009  0.1248467E+03  0.7561462E-02  0.1235309E+00
          1   -1    0    0  501    0  0.00000000000E+00  0.00000000000E+00  0.51135613782E+03  0.51135613782E+03  0.00000000000E+00 0. -1.
         -1   -1    0    0    0  501 -0.00000000000E+00 -0.00000000000E+00 -0.41247326424E+02  0.41247326424E+02  0.00000000000E+00 0.  1.
         25    2    1    2    0    0  0.64152614767E+02 -0.56407527347E+02  0.16039568529E+03  0.22061477141E+03  0.12508690732E+03 0.  0.
          5    1    3    3  502    0  0.58497266779E+02  0.13973149874E+02  0.20191615160E+02  0.63579500319E+02  0.41800000000E+01 0. -1.
         -5    1    3    3    0  502  0.56553479876E+01 -0.70380677220E+02  0.14020407013E+03  0.15703527109E+03  0.41800000000E+01 0. -1.
        -11    1    1    2    0    0 -0.76756169434E+02  0.18819885404E+02  0.18646327037E+03  0.20251974923E+03  0.00000000000E+00 0.  1.
         11    1    1    2    0    0  0.12603554668E+02  0.37587641942E+02  0.12324985574E+03  0.12946894360E+03  0.00000000000E+00 0. -1.
</event>
<event>
 7    1  0.2384639E-009  0.1062558E+03  0.7561462E-02  0.1267665E+00
          1   -1    0    0  501    0  0.00000000000E+00  0.00000000000E+00  0.10894394051E+03  0.10894394051E+03  0.00000000000E+00 0.  1.
         -1   -1    0    0    0  501 -0.00000000000E+00 -0.00000000000E+00 -0.11029345473E+03  0.11029345473E+03  0.00000000000E+00 0. -1.
         25    2    1    2    0    0 -0.70950544560E+00  0.12525787872E+02  0.17295815742E+02  0.12689263937E+03  0.12508076561E+03 0.  0.
          5    1    3    3  502    0 -0.18552915854E+02  0.64944257665E+02 -0.30824800987E+01  0.67741725502E+02  0.41800000000E+01 0. -1.
         -5    1    3    3    0  502  0.17843410409E+02 -0.52418469793E+02  0.20378295841E+02  0.59150913872E+02  0.41800000000E+01 0. -1.
        -11    1    1    2    0    0  0.16666452146E+02  0.35222263653E+02 -0.93811153829E+00  0.38977667160E+02  0.00000000000E+00 0.  1.
         11    1    1    2    0    0 -0.15956946701E+02 -0.47748051525E+02 -0.17707218420E+02  0.53367088703E+02  0.00000000000E+00 0. -1.
</event>
<event>
 7    1  0.2384639E-009  0.2194350E+03  0.7561462E-02  0.1134305E+00
          1   -1    0    0  501    0  0.00000000000E+00  0.00000000000E+00  0.86368708328E+02  0.86368708328E+02  0.00000000000E+00 0.  1.
         -1   -1    0    0    0  501 -0.00000000000E+00 -0.00000000000E+00 -0.84544558123E+03  0.84544558123E+03  0.00000000000E+00 0. -1.
         25    2    1    2    0    0  0.21580662229E+03  0.31918700888E+02 -0.19016827624E+03  0.31528234460E+03  0.12509069444E+03 0.  0.
          5    1    3    3  502    0  0.20665882858E+03  0.29220063935E+02 -0.11292822707E+03  0.23734350725E+03  0.41800000000E+01 0. -1.
         -5    1    3    3    0  502  0.91477937141E+01  0.26986369536E+01 -0.77240049166E+02  0.77938837343E+02  0.41800000000E+01 0. -1.
        -11    1    1    2    0    0 -0.10404367090E+03 -0.28537310871E+02 -0.39747763452E+03  0.41185911853E+03  0.00000000000E+00 0. -1.
         11    1    1    2    0    0 -0.11176295139E+03 -0.33813900175E+01 -0.17143096214E+03  0.20467282643E+03  0.00000000000E+00 0.  1.
</event>
<event>
 7    1  0.2384639E-009  0.1253960E+03  0.7561462E-02  0.1234452E+00
          1   -1    0    0  501    0  0.00000000000E+00  0.00000000000E+00  0.40357538520E+03  0.40357538520E+03  0.00000000000E+00 0. -1.
         -1   -1    0    0    0  501 -0.00000000000E+00 -0.00000000000E+00 -0.52260710848E+02  0.52260710848E+02  0.00000000000E+00 0.  1.
         25    2    1    2    0    0  0.84091337924E+02  0.45977741142E+02  0.21243251652E+03  0.26449730744E+03  0.12508375504E+03 0.  0.
          5    1    3    3  502    0  0.10329128185E+03  0.64767291603E+02  0.20074517180E+03  0.23490420892E+03  0.41800000000E+01 0.  1.
         -5    1    3    3    0  502 -0.19199943930E+02 -0.18789550461E+02  0.11687344723E+02  0.29593098522E+02  0.41800000000E+01 0.  1.
        -11    1    1    2    0    0 -0.79832489315E+02 -0.30332285994E+02  0.45901211934E+02  0.96954603711E+02  0.00000000000E+00 0.  1.
         11    1    1    2    0    0 -0.42588486097E+01 -0.15645455148E+02  0.92980945896E+02  0.94384184893E+02  0.00000000000E+00 0. -1.
</event>
<event>
 7    1  0.2681656E-009  0.7146613E+02  0.7561462E-02  0.1355177E+00
          1   -1    0    0  501    0  0.00000000000E+00  0.00000000000E+00  0.17798452699E+03  0.17798452699E+03  0.00000000000E+00 0. -1.
         -1   -1    0    0    0  501 -0.00000000000E+00 -0.00000000000E+00 -0.95600264870E+02  0.95600264870E+02  0.00000000000E+00 0.  1.
         25    2    1    2    0    0 -0.25680225000E+02  0.63301497824E+02  0.22233347423E+02  0.14425219787E+03  0.12509125177E+03 0.  0.
          5    1    3    3  502    0 -0.26676865799E+02  0.44591878632E+02  0.73156961357E+02  0.89830419145E+02  0.41800000000E+01 0. -1.
         -5    1    3    3    0  502  0.99664079898E+00  0.18709619192E+02 -0.50923613933E+02  0.54421778722E+02  0.41800000000E+01 0. -1.
        -11    1    1    2    0    0  0.28481758263E+02 -0.46185615406E+02 -0.11623372705E+02  0.55492561819E+02  0.00000000000E+00 0.  1.
         11    1    1    2    0    0 -0.28015332628E+01 -0.17115882418E+02  0.71774287402E+02  0.73840032175E+02  0.00000000000E+00 0. -1.
</event>
<event>
 7    1  0.2384639E-009  0.1061769E+03  0.7561462E-02  0.1267818E+00
          2   -1    0    0  501    0  0.00000000000E+00  0.00000000000E+00  0.13521211801E+02  0.13521211801E+02  0.00000000000E+00 0. -1.
         -2   -1    0    0    0  501 -0.00000000000E+00 -0.00000000000E+00 -0.10333025187E+04  0.10333025187E+04  0.00000000000E+00 0.  1.
         25    2    1    2    0    0  0.33745259259E+02  0.20030307652E+02 -0.68647359223E+03  0.69888024187E+03  0.12509054283E+03 0.  0.
          5    1    3    3  502    0 -0.39658284063E+02  0.14308325613E+02 -0.42801777234E+03  0.43010951339E+03  0.41800000000E+01 0.  1.
         -5    1    3    3    0  502  0.73403543322E+02  0.57219820385E+01 -0.25845581989E+03  0.26877072848E+03  0.41800000000E+01 0.  1.
        -11    1    1    2    0    0 -0.31844904129E+02  0.31431973374E+02 -0.20204872407E+03  0.20694384206E+03  0.00000000000E+00 0.  1.
         11    1    1    2    0    0 -0.19003551296E+01 -0.51462281026E+02 -0.13125899059E+03  0.14099964655E+03  0.00000000000E+00 0. -1.
</event>
<event>
 7    1  0.2384639E-009  0.9509922E+02  0.7561462E-02  0.1290953E+00
          4   -1    0    0  501    0  0.00000000000E+00  0.00000000000E+00  0.17287160739E+03  0.17287160739E+03  0.00000000000E+00 0.  1.
         -4   -1    0    0    0  501 -0.00000000000E+00 -0.00000000000E+00 -0.68645494376E+02  0.68645494376E+02  0.00000000000E+00 0. -1.
         25    2    1    2    0    0 -0.43272286683E+00  0.35714120634E+02  0.49042168655E+02  0.13902735309E+03  0.12509110656E+03 0.  0.
          5    1    3    3  502    0 -0.32488063485E+02 -0.37653972696E+02  0.18043966567E+02  0.53069323137E+02  0.41800000000E+01 0.  1.
         -5    1    3    3    0  502  0.32055340618E+02  0.73368093329E+02  0.30998202088E+02  0.85958029954E+02  0.41800000000E+01 0.  1.
        -11    1    1    2    0    0 -0.23873221341E+02 -0.15113694702E+02  0.63549947698E+02  0.69548187016E+02  0.00000000000E+00 0.  1.
         11    1    1    2    0    0  0.24305944208E+02 -0.20600425931E+02 -0.83660033423E+01  0.32941561655E+02  0.00000000000E+00 0. -1.
</event>
<event>
 7    1  0.2384639E-009  0.9843858E+02  0.7561462E-02  0.1283614E+00
         -1   -1    0    0    0  501 -0.00000000000E+00  0.00000000000E+00  0.37903196414E+03  0.37903196414E+03  0.00000000000E+00 0.  1.
          1   -1    0    0  501    0  0.00000000000E+00 -0.00000000000E+00 -0.33741143180E+02  0.33741143180E+02  0.00000000000E+00 0. -1.
         25    2    1    2    0    0 -0.32292747377E+02 -0.13705604743E+01  0.22177694780E+03  0.25666619318E+03  0.12509124740E+03 0.  0.
          5    1    3    3  502    0 -0.22737896411E+02 -0.59313591756E+02  0.74124220745E+02  0.97708682322E+02  0.41800000000E+01 0. -1.
         -5    1    3    3    0  502 -0.95548509663E+01  0.57943031281E+02  0.14765272706E+03  0.15895751086E+03  0.41800000000E+01 0. -1.
        -11    1    1    2    0    0  0.67057859479E+01  0.32991794160E+02  0.10705955121E+03  0.11222822084E+03  0.00000000000E+00 0.  1.
         11    1    1    2    0    0  0.25586961429E+02 -0.31621233686E+02  0.16454321945E+02  0.43878693299E+02  0.00000000000E+00 0. -1.
</event>
<event>
 7    1  0.2384639E-009  0.8689164E+02  0.7561462E-02  0.1310559E+00
          3   -1    0    0  501    0  0.00000000000E+00  0.00000000000E+00  0.41970271351E+02  0.41970271351E+02  0.00000000000E+00 0. -1.
         -3   -1    0    0    0  501 -0.00000000000E+00 -0.00000000000E+00 -0.28927608454E+03  0.28927608454E+03  0.00000000000E+00 0.  1.
         25    2    1    2    0    0 -0.11224742374E+02  0.79488437138E+01 -0.16080350883E+03  0.20419278912E+03  0.12509095778E+03 0.  0.
          5    1    3    3  502    0 -0.11673313811E+02  0.54952171894E+02 -0.14310223194E+03  0.15379118518E+03  0.41800000000E+01 0. -1.
         -5    1    3    3    0  502  0.44857143730E+00 -0.47003328180E+02 -0.17701276887E+02  0.50401603941E+02  0.41800000000E+01 0. -1.
        -11    1    1    2    0    0  0.27920538998E+02 -0.31049148636E+02 -0.89134101362E+02  0.98430148606E+02  0.00000000000E+00 0.  1.
         11    1    1    2    0    0 -0.16695796624E+02  0.23100304922E+02  0.26317969974E+01  0.28623418172E+02  0.00000000000E+00 0. -1.
</event>
<event>
 7    1  0.2384639E-009  0.9534420E+02  0.7561462E-02  0.1290403E+00
         -2   -1    0    0    0  501 -0.00000000000E+00  0.00000000000E+00  0.31228236042E+02  0.31228236042E+02  0.00000000000E+00 0.  1.
          2   -1    0    0  501    0  0.00000000000E+00 -0.00000000000E+00 -0.73913184178E+03  0.73913184178E+03  0.00000000000E+00 0. -1.
         25    2    1    2    0    0  0.16237936270E+02 -0.58614953682E+02 -0.60302416267E+03  0.61885813512E+03  0.12509143568E+03 0.  0.
          5    1    3    3  502    0  0.38752121513E+02 -0.50642296780E+02 -0.12657471355E+03  0.14179210012E+03  0.41800000000E+01 0. -1.
         -5    1    3    3    0  502 -0.22514185244E+02 -0.79726569027E+01 -0.47644944912E+03  0.47706603501E+03  0.41800000000E+01 0. -1.
        -11    1    1    2    0    0 -0.68343473677E+01  0.79415432803E+02 -0.55577918563E+02  0.97172137483E+02  0.00000000000E+00 0.  1.
         11    1    1    2    0    0 -0.94035889021E+01 -0.20800479121E+02 -0.49301524507E+02  0.54329805214E+02  0.00000000000E+00 0. -1.
</event>
<event>
 7    1  0.2384639E-009  0.8435196E+02  0.7561462E-02  0.1317136E+00
          1   -1    0    0  501    0  0.00000000000E+00  0.00000000000E+00  0.31350908856E+03  0.31350908856E+03  0.00000000000E+00 0. -1.
         -1   -1    0    0    0  501 -0.00000000000E+00 -0.00000000000E+00 -0.44530613038E+02  0.44530613038E+02  0.00000000000E+00 0.  1.
         25    2    1    2    0    0 -0.23002701173E+02 -0.39183492620E+02  0.17614499205E+03  0.22077518850E+03  0.12510058064E+03 0.  0.
          5    1    3    3  502    0  0.48985178463E+01 -0.48646870758E+02  0.76394978487E+01  0.49662338235E+02  0.41800000000E+01 0.  1.
         -5    1    3    3    0  502 -0.27901219020E+02  0.94633781380E+01  0.16850549420E+03  0.17111285026E+03  0.41800000000E+01 0.  1.
        -11    1    1    2    0    0 -0.23968187049E+02 -0.59916844881E+01  0.58721667462E+02  0.63707209192E+02  0.00000000000E+00 0. -1.
         11    1    1    2    0    0  0.46970888223E+02  0.45175177108E+02  0.34111816010E+02  0.73557303911E+02  0.00000000000E+00 0.  1.
</event>
<event>
 7    1  0.3070531E-009  0.1674321E+03  0.7561462E-02  0.1180553E+00
         -2   -1    0    0    0  501 -0.00000000000E+00  0.00000000000E+00  0.99802032557E+02  0.99802032557E+02  0.00000000000E+00 0.  1.
          2   -1    0    0  501    0  0.00000000000E+00 -0.00000000000E+00 -0.40145641732E+03  0.40145641732E+03  0.00000000000E+00 0. -1.
         25    2    1    2    0    0  0.96717179631E+02 -0.13215652127E+03 -0.20377436219E+03  0.28981276463E+03  0.12509152212E+03 0.  0.
          5    1    3    3  502    0  0.61033917257E+02 -0.68301868077E+02 -0.22678162826E+02  0.94456634006E+02  0.41800000000E+01 0. -1.
         -5    1    3    3    0  502  0.35683262374E+02 -0.63854653190E+02 -0.18109619937E+03  0.19535613062E+03  0.41800000000E+01 0. -1.
        -11    1    1    2    0    0 -0.78717087859E+02  0.70500441894E+02 -0.10228137555E+03  0.14706519647E+03  0.00000000000E+00 0. -1.
         11    1    1    2    0    0 -0.18000091772E+02  0.61656079373E+02  0.44013529769E+01  0.64380488779E+02  0.00000000000E+00 0.  1.
</event>
<event>
 7    1  0.2384639E-009  0.1248459E+03  0.7561462E-02  0.1235310E+00
         -1   -1    0    0    0  501 -0.00000000000E+00  0.00000000000E+00  0.37793536923E+03  0.37793536923E+03  0.00000000000E+00 0.  1.
          1   -1    0    0  501    0  0.00000000000E+00 -0.00000000000E+00 -0.53543291901E+02  0.53543291901E+02  0.00000000000E+00 0. -1.
         25    2    1    2    0    0  0.24195137667E+02 -0.77715001716E+02  0.11176063363E+03  0.18644956054E+03  0.12509185911E+03 0.  0.
          5    1    3    3  502    0  0.12772908179E+02  0.24361555470E+02 -0.76794303056E+01  0.28863101325E+02  0.41800000000E+01 0. -1.
         -5    1    3    3    0  502  0.11422229488E+02 -0.10207655719E+03  0.11944006394E+03  0.15758645921E+03  0.41800000000E+01 0. -1.
        -11    1    1    2    0    0 -0.38487143771E+02  0.91468409740E+02  0.19354464652E+03  0.21750232277E+03  0.00000000000E+00 0.  1.
         11    1    1    2    0    0  0.14292006104E+02 -0.13753408024E+02  0.19086797182E+02  0.27526777825E+02  0.00000000000E+00 0. -1.
</event>
<event>
 7    1  0.2384639E-009  0.1242818E+03  0.7561462E-02  0.1236196E+00
         -1   -1    0    0    0  501 -0.00000000000E+00  0.00000000000E+00  0.44473019528E+02  0.44473019528E+02  0.00000000000E+00 0.  1.
          1   -1    0    0  501    0  0.00000000000E+00 -0.00000000000E+00 -0.37338842808E+03  0.37338842808E+03  0.00000000000E+00 0. -1.
         25    2    1    2    0    0  0.57201922759E+02  0.37466585229E+02 -0.18421954080E+03  0.23293637197E+03  0.12508680664E+03 0.  0.
          5    1    3    3  502    0  0.87893031675E+02  0.57939332154E+02 -0.13288666479E+03  0.16958328133E+03  0.41800000000E+01 0.  1.
         -5    1    3    3    0  502 -0.30691108916E+02 -0.20472746926E+02 -0.51332876017E+02  0.63353090637E+02  0.41800000000E+01 0.  1.
        -11    1    1    2    0    0 -0.49252611402E+02 -0.62638220345E+02 -0.71295741771E+02  0.10692263171E+03  0.00000000000E+00 0.  1.
         11    1    1    2    0    0 -0.79493113570E+01  0.25171635117E+02 -0.73400125972E+02  0.78002443925E+02  0.00000000000E+00 0. -1.
</event>
<event>
 7    1  0.2384639E-009  0.9248368E+02  0.7561462E-02  0.1296946E+00
         -2   -1    0    0    0  501 -0.00000000000E+00  0.00000000000E+00  0.36175311582E+02  0.36175311582E+02  0.00000000000E+00 0.  1.
          2   -1    0    0  501    0  0.00000000000E+00 -0.00000000000E+00 -0.42680418004E+03  0.42680418004E+03  0.00000000000E+00 0. -1.
         25    2    1    2    0    0  0.54612799629E+02 -0.45123578255E+01 -0.26381680232E+03  0.29706778223E+03  0.12508814011E+03 0.  0.
          5    1    3    3  502    0 -0.90307310865E+01  0.13019524246E+02 -0.21306598231E+03  0.21369522066E+03  0.41800000000E+01 0.  1.
         -5    1    3    3    0  502  0.63643530716E+02 -0.17531882072E+02 -0.50750820010E+02  0.83372561569E+02  0.41800000000E+01 0.  1.
        -11    1    1    2    0    0 -0.75985486323E+01  0.41764530611E+02 -0.29846439669E+02  0.51892426416E+02  0.00000000000E+00 0.  1.
         11    1    1    2    0    0 -0.47014250997E+02 -0.37252172786E+02 -0.96965626476E+02  0.11401928298E+03  0.00000000000E+00 0. -1.
</event>
<event>
 7    1  0.2384639E-009  0.1404545E+03  0.7561462E-02  0.1212719E+00
          1   -1    0    0  501    0  0.00000000000E+00  0.00000000000E+00  0.19602343373E+03  0.19602343373E+03  0.00000000000E+00 0. -1.
         -1   -1    0    0    0  501 -0.00000000000E+00 -0.00000000000E+00 -0.10460662614E+03  0.10460662614E+03  0.00000000000E+00 0.  1.
         25    2    1    2    0    0  0.62640675216E+02  0.69223849928E+02  0.44688625659E+02  0.16235782195E+03  0.12508874248E+03 0.  0.
          5    1    3    3  502    0  0.92148758588E+02  0.18616799887E+02  0.11245520432E+02  0.94772955409E+02  0.41800000000E+01 0.  1.
         -5    1    3    3    0  502 -0.29508083372E+02  0.50607050041E+02  0.33443105227E+02  0.67584866541E+02  0.41800000000E+01 0.  1.
        -11    1    1    2    0    0 -0.11124755598E+02 -0.75376464887E+02  0.15616392181E+02  0.77776881853E+02  0.00000000000E+00 0.  1.
         11    1    1    2    0    0 -0.51515919618E+02  0.61526149594E+01  0.31111789751E+02  0.60495356073E+02  0.00000000000E+00 0. -1.
</event>
<event>
 7    1  0.2384639E-009  0.1807876E+03  0.7561462E-02  0.1167043E+00
          1   -1    0    0  501    0  0.00000000000E+00  0.00000000000E+00  0.48054307838E+03  0.48054307838E+03  0.00000000000E+00 0. -1.
         -1   -1    0    0    0  501 -0.00000000000E+00 -0.00000000000E+00 -0.80576346239E+02  0.80576346239E+02  0.00000000000E+00 0.  1.
         25    2    1    2    0    0  0.12452984806E+03  0.10252708156E+03  0.16025029665E+03  0.25951425037E+03  0.12509197838E+03 0.  0.
          5    1    3    3  502    0 -0.18054953546E+02 -0.35860861360E+01 -0.17925090302E+01  0.18961193263E+02  0.41800000000E+01 0. -1.
         -5    1    3    3    0  502  0.14258480161E+03  0.10611316770E+03  0.16204280568E+03  0.24055305710E+03  0.41800000000E+01 0. -1.
        -11    1    1    2    0    0 -0.63579530309E+02 -0.74163555016E+02  0.20234061625E+03  0.22468714817E+03  0.00000000000E+00 0. -1.
         11    1    1    2    0    0 -0.60950317755E+02 -0.28363526549E+02  0.37375819235E+02  0.76918026081E+02  0.00000000000E+00 0.  1.
</event>
<event>
 7    1  0.2384639E-009  0.1333450E+03  0.7561462E-02  0.1222575E+00
          2   -1    0    0  501    0  0.00000000000E+00  0.00000000000E+00  0.56763738330E+03  0.56763738330E+03  0.00000000000E+00 0. -1.
         -2   -1    0    0    0  501 -0.00000000000E+00 -0.00000000000E+00 -0.39995808158E+02  0.39995808158E+02  0.00000000000E+00 0.  1.
         25    2    1    2    0    0 -0.88860792796E+02 -0.46033687621E+02  0.34335387603E+03  0.37888597006E+03  0.12508938097E+03 0.  0.
          5    1    3    3  502    0 -0.27541573557E+02  0.43135212857E+02  0.12549674308E+03  0.13559531624E+03  0.41800000000E+01 0.  1.
         -5    1    3    3    0  502 -0.61319219238E+02 -0.89168900478E+02  0.21785713295E+03  0.24329065382E+03  0.41800000000E+01 0.  1.
        -11    1    1    2    0    0  0.68818311479E+02  0.51859800630E+02  0.65761500038E+02  0.10839729611E+03  0.00000000000E+00 0.  1.
         11    1    1    2    0    0  0.20042481316E+02 -0.58261130090E+01  0.11852619908E+03  0.12034992529E+03  0.00000000000E+00 0. -1.
</event>
<event>
 7    1  0.2384639E-009  0.1465389E+03  0.7561462E-02  0.1204792E+00
          1   -1    0    0  501    0  0.00000000000E+00  0.00000000000E+00  0.36490709142E+03  0.36490709142E+03  0.00000000000E+00 0. -1.
         -1   -1    0    0    0  501 -0.00000000000E+00 -0.00000000000E+00 -0.10183211317E+03  0.10183211317E+03  0.00000000000E+00 0.  1.
         25    2    1    2    0    0  0.11104083714E+03  0.35937192040E+02  0.70969964148E+01  0.17122726595E+03  0.12508740929E+03 0.  0.
          5    1    3    3  502    0 -0.14505004678E+02  0.14895844026E+01  0.34887594633E+02  0.38042485220E+02  0.41800000000E+01 0.  1.
         -5    1    3    3    0  502  0.12554584181E+03  0.34447607637E+02 -0.27790598218E+02  0.13318478073E+03  0.41800000000E+01 0.  1.
        -11    1    1    2    0    0 -0.10018052364E+03  0.97891524706E+01  0.17499445785E+03  0.20187873861E+03  0.00000000000E+00 0.  1.
         11    1    1    2    0    0 -0.10860313492E+02 -0.45726344510E+02  0.80983523984E+02  0.93633200033E+02  0.00000000000E+00 0. -1.
</event>
<event>
 7    1  0.2384639E-009  0.1065979E+03  0.7561462E-02  0.1267003E+00
          1   -1    0    0  501    0  0.00000000000E+00  0.00000000000E+00  0.14490111211E+03  0.14490111211E+03  0.00000000000E+00 0. -1.
         -1   -1    0    0    0  501 -0.00000000000E+00 -0.00000000000E+00 -0.82418009633E+02  0.82418009633E+02  0.00000000000E+00 0.  1.
         25    2    1    2    0    0  0.50760792295E+01  0.40428118485E+01  0.45685600079E+02  0.13332751179E+03  0.12508773096E+03 0.  0.
          5    1    3    3  502    0  0.62628091168E+02  0.15459661596E+02  0.12669960328E+02  0.65873205742E+02  0.41800000000E+01 0.  1.
         -5    1    3    3    0  502 -0.57552011939E+02 -0.11416849747E+02  0.33015639751E+02  0.67454306049E+02  0.41800000000E+01 0.  1.
        -11    1    1    2    0    0  0.40887621885E+02 -0.12994910957E+02 -0.33084211190E+01  0.43030349574E+02  0.00000000000E+00 0.  1.
         11    1    1    2    0    0 -0.45963701115E+02  0.89520991082E+01  0.20105923514E+02  0.50961260374E+02  0.00000000000E+00 0. -1.
</event>
<event>
 7    1  0.2384639E-009  0.1216576E+03  0.7561462E-02  0.1240387E+00
          2   -1    0    0  501    0  0.00000000000E+00  0.00000000000E+00  0.55977352387E+03  0.55977352387E+03  0.00000000000E+00 0. -1.
         -2   -1    0    0    0  501 -0.00000000000E+00 -0.00000000000E+00 -0.32745554354E+02  0.32745554354E+02  0.00000000000E+00 0.  1.
         25    2    1    2    0    0 -0.28075372342E+02 -0.72662013306E+02  0.24282945241E+03  0.28404443796E+03  0.12508838903E+03 0.  0.
          5    1    3    3  502    0  0.33450450518E+02  0.71578823520E+00  0.15059542243E+02  0.36928406481E+02  0.41800000000E+01 0. -1.
         -5    1    3    3    0  502 -0.61525822860E+02 -0.73377801541E+02  0.22776991016E+03  0.24711603148E+03  0.41800000000E+01 0. -1.
        -11    1    1    2    0    0  0.25311651453E+02 -0.12714737992E+02  0.12100941312E+03  0.12428041811E+03  0.00000000000E+00 0.  1.
         11    1    1    2    0    0  0.27637208888E+01  0.85376751298E+02  0.16318910399E+03  0.18419422216E+03  0.00000000000E+00 0. -1.
</event>
<event>
 7    1  0.2384639E-009  0.2654046E+03  0.7561462E-02  0.1103939E+00
         -2   -1    0    0    0  501 -0.00000000000E+00  0.00000000000E+00  0.23819047156E+03  0.23819047156E+03  0.00000000000E+00 0.  1.
          2   -1    0    0  501    0  0.00000000000E+00 -0.00000000000E+00 -0.31201252939E+03  0.31201252939E+03  0.00000000000E+00 0. -1.
         25    2    1    2    0    0 -0.22788129465E+03  0.96080274667E+02 -0.31086380524E+00  0.27714089328E+03  0.12508267051E+03 0.  0.
          5    1    3    3  502    0 -0.16233647404E+03  0.12450359071E+03 -0.10287497782E+02  0.20488430861E+03  0.41800000000E+01 0. -1.
         -5    1    3    3    0  502 -0.65544820602E+02 -0.28423316040E+02  0.99766339771E+01  0.72256584668E+02  0.41800000000E+01 0. -1.
        -11    1    1    2    0    0  0.13256050884E+03 -0.23077034809E+02 -0.72820113908E+02  0.15299544774E+03  0.00000000000E+00 0. -1.
         11    1    1    2    0    0  0.95320785808E+02 -0.73003239858E+02 -0.69108011186E+00  0.12006665994E+03  0.00000000000E+00 0.  1.
</event>
<event>
 7    1  0.2384639E-009  0.1100941E+03  0.7561462E-02  0.1260396E+00
          1   -1    0    0  501    0  0.00000000000E+00  0.00000000000E+00  0.27318220629E+03  0.27318220629E+03  0.00000000000E+00 0. -1.
         -1   -1    0    0    0  501 -0.00000000000E+00 -0.00000000000E+00 -0.84261344654E+02  0.84261344654E+02  0.00000000000E+00 0.  1.
         25    2    1    2    0    0  0.29324413040E+02 -0.64858524582E+02  0.11420682361E+02  0.14437492072E+03  0.12508851401E+03 0.  0.
          5    1    3    3  502    0 -0.27737535998E+02 -0.53305860275E+01  0.46580037896E+02  0.54634772636E+02  0.41800000000E+01 0. -1.
         -5    1    3    3    0  502  0.57061949038E+02 -0.59527938554E+02 -0.35159355535E+02  0.89740148084E+02  0.41800000000E+01 0. -1.
        -11    1    1    2    0    0  0.24908519424E+02  0.50774884055E+00  0.82377752453E+02  0.86062687897E+02  0.00000000000E+00 0. -1.
         11    1    1    2    0    0 -0.54232932465E+02  0.64350775741E+02  0.95122426825E+02  0.12700594233E+03  0.00000000000E+00 0.  1.
</event>
<event>
 7    1  0.2384639E-009  0.1457269E+03  0.7561462E-02  0.1205824E+00
          1   -1    0    0  501    0  0.00000000000E+00  0.00000000000E+00  0.13662280037E+03  0.13662280037E+03  0.00000000000E+00 0. -1.
         -1   -1    0    0    0  501 -0.00000000000E+00 -0.00000000000E+00 -0.17755786104E+03  0.17755786104E+03  0.00000000000E+00 0.  1.
         25    2    1    2    0    0 -0.32696363960E+02 -0.10455913722E+03 -0.42836572198E+02  0.17170626564E+03  0.12508558809E+03 0.  0.
          5    1    3    3  502    0 -0.62712573968E+02 -0.11218667672E+03 -0.14298679231E+02  0.12938563288E+03  0.41800000000E+01 0.  1.
         -5    1    3    3    0  502  0.30016210007E+02  0.76275394992E+01 -0.28537892966E+02  0.42320632757E+02  0.41800000000E+01 0.  1.
        -11    1    1    2    0    0 -0.23605018315E+02  0.32302574415E+02 -0.24786692800E+02  0.47064140738E+02  0.00000000000E+00 0.  1.
         11    1    1    2    0    0  0.56301382275E+02  0.72256562810E+02  0.26688204335E+02  0.95410255035E+02  0.00000000000E+00 0. -1.
</event>
<event>
 7    1  0.2384639E-009  0.8605202E+02  0.7561462E-02  0.1312704E+00
          2   -1    0    0  501    0  0.00000000000E+00  0.00000000000E+00  0.47966356811E+03  0.47966356811E+03  0.00000000000E+00 0. -1.
         -2   -1    0    0    0  501 -0.00000000000E+00 -0.00000000000E+00 -0.32042903141E+02  0.32042903141E+02  0.00000000000E+00 0.  1.
         25    2    1    2    0    0  0.12777401700E+02 -0.39517122742E+02  0.34298518389E+03  0.36743624116E+03  0.12508273247E+03 0.  0.
          5    1    3    3  502    0 -0.44175054302E+02 -0.24767718544E+01  0.51109897336E+02  0.67729342438E+02  0.41800000000E+01 0.  1.
         -5    1    3    3    0  502  0.56952456002E+02 -0.37040350888E+02  0.29187528656E+03  0.29970689872E+03  0.41800000000E+01 0.  1.
        -11    1    1    2    0    0  0.15780881561E+02  0.10989639554E+02  0.10202352313E+03  0.10382007355E+03  0.00000000000E+00 0. -1.
         11    1    1    2    0    0 -0.28558283261E+02  0.28527483189E+02  0.26119579473E+01  0.40450156541E+02  0.00000000000E+00 0.  1.
</event>
<event>
 7    1  0.2384639E-009  0.1326013E+03  0.7561462E-02  0.1223646E+00
          2   -1    0    0  501    0  0.00000000000E+00  0.00000000000E+00  0.70899488394E+02  0.70899488394E+02  0.00000000000E+00 0.  1.
         -2   -1    0    0    0  501 -0.00000000000E+00 -0.00000000000E+00 -0.31912454217E+03  0.31912454217E+03  0.00000000000E+00 0. -1.
         25    2    1    2    0    0  0.30133135664E+02 -0.79750240101E+02 -0.20115105068E+03  0.25174981852E+03  0.12509244290E+03 0.  0.
          5    1    3    3  502    0  0.32185754339E+02 -0.10496379851E+03 -0.19729265869E+03  0.22582114019E+03  0.41800000000E+01 0. -1.
         -5    1    3    3    0  502 -0.20526186748E+01  0.25213558412E+02 -0.38583919896E+01  0.25928678331E+02  0.41800000000E+01 0. -1.
        -11    1    1    2    0    0  0.21189323762E+01  0.94292564576E+02 -0.38496125771E+02  0.10187015907E+03  0.00000000000E+00 0.  1.
         11    1    1    2    0    0 -0.32252068041E+02 -0.14542324475E+02 -0.85778773220E+01  0.36404052980E+02  0.00000000000E+00 0. -1.
</event>
<event>
 7    1  0.2384639E-009  0.1012381E+03  0.7561462E-02  0.1277714E+00
          2   -1    0    0  501    0  0.00000000000E+00  0.00000000000E+00  0.42892882746E+03  0.42892882746E+03  0.00000000000E+00 0. -1.
         -2   -1    0    0    0  501 -0.00000000000E+00 -0.00000000000E+00 -0.46051636846E+02  0.46051636846E+02  0.00000000000E+00 0.  1.
         25    2    1    2    0    0  0.78263136688E+02  0.27775931554E+02  0.15858032797E+03  0.21838713972E+03  0.12509437012E+03 0.  0.
          5    1    3    3  502    0  0.25229632284E+02  0.40546263026E+02 -0.27664472810E+01  0.48017282525E+02  0.41800000000E+01 0.  1.
         -5    1    3    3    0  502  0.53033504404E+02 -0.12770331472E+02  0.16134677525E+03  0.17036985719E+03  0.41800000000E+01 0.  1.
        -11    1    1    2    0    0 -0.48114373743E+02 -0.44340451382E+02  0.60137181794E+02  0.88868156409E+02  0.00000000000E+00 0.  1.
         11    1    1    2    0    0 -0.30148762946E+02  0.16564519828E+02  0.16415968085E+03  0.16772516818E+03  0.00000000000E+00 0. -1.
</event>
<event>
 7    1  0.2384639E-009  0.1054203E+03  0.7561462E-02  0.1269294E+00
          2   -1    0    0  501    0  0.00000000000E+00  0.00000000000E+00  0.43572126923E+03  0.43572126923E+03  0.00000000000E+00 0. -1.
         -2   -1    0    0    0  501 -0.00000000000E+00 -0.00000000000E+00 -0.35824578434E+02  0.35824578434E+02  0.00000000000E+00 0.  1.
         25    2    1    2    0    0  0.24024084888E+02  0.30216900890E+02  0.13315643069E+03  0.18672230353E+03  0.12507743941E+03 0.  0.
          5    1    3    3  502    0 -0.38201188842E+02 -0.26326641368E+02  0.43415124333E+02  0.63677062554E+02  0.41800000000E+01 0. -1.
         -5    1    3    3    0  502  0.62225273731E+02  0.56543542258E+02  0.89741306353E+02  0.12304524098E+03  0.41800000000E+01 0. -1.
        -11    1    1    2    0    0  0.13123851712E+02  0.16055918090E+02  0.13547384172E+02  0.24770135393E+02  0.00000000000E+00 0.  1.
         11    1    1    2    0    0 -0.37147936600E+02 -0.46272818980E+02  0.25319287594E+03  0.26005340874E+03  0.00000000000E+00 0. -1.
</event>
<event>
 7    1  0.2384639E-009  0.1602364E+03  0.7561462E-02  0.1188430E+00
          2   -1    0    0  501    0  0.00000000000E+00  0.00000000000E+00  0.13017379190E+04  0.13017379190E+04  0.00000000000E+00 0. -1.
         -2   -1    0    0    0  501 -0.00000000000E+00 -0.00000000000E+00 -0.29506175561E+02  0.29506175561E+02  0.00000000000E+00 0.  1.
         25    2    1    2    0    0  0.14041576851E+03  0.39936673270E+02  0.90976440871E+03  0.92985540310E+03  0.12509302703E+03 0.  0.
          5    1    3    3  502    0  0.68343672281E+02 -0.43093540573E+01  0.14493141423E+03  0.16034966574E+03  0.41800000000E+01 0. -1.
         -5    1    3    3    0  502  0.72072096229E+02  0.44246027327E+02  0.76483299448E+03  0.76950573736E+03  0.41800000000E+01 0. -1.
        -11    1    1    2    0    0 -0.93574312731E+01 -0.34797423201E+02  0.12520472810E+03  0.13028678414E+03  0.00000000000E+00 0. -1.
         11    1    1    2    0    0 -0.13105833724E+03 -0.51392500682E+01  0.23726260666E+03  0.27110190735E+03  0.00000000000E+00 0.  1.
</event>
<event>
 7    1  0.2384639E-009  0.1237351E+03  0.7561462E-02  0.1237059E+00
          2   -1    0    0  501    0  0.00000000000E+00  0.00000000000E+00  0.17560479852E+03  0.17560479852E+03  0.00000000000E+00 0. -1.
         -2   -1    0    0    0  501 -0.00000000000E+00 -0.00000000000E+00 -0.12998460474E+03  0.12998460474E+03  0.00000000000E+00 0.  1.
         25    2    1    2    0    0 -0.63174424386E+02  0.69197104484E+02  0.71716989661E+02  0.17195880306E+03  0.12508899304E+03 0.  0.
          5    1    3    3  502    0 -0.74834269445E+02  0.95681333890E+02  0.38029820619E+02  0.12735315149E+03  0.41800000000E+01 0.  1.
         -5    1    3    3    0  502  0.11659845059E+02 -0.26484229406E+02  0.33687169042E+02  0.44605651571E+02  0.41800000000E+01 0.  1.
        -11    1    1    2    0    0  0.28764712741E+02 -0.14865480038E+02 -0.54447391083E+02  0.63347530272E+02  0.00000000000E+00 0.  1.
         11    1    1    2    0    0  0.34409711644E+02 -0.54331624447E+02  0.28350595206E+02  0.70283069931E+02  0.00000000000E+00 0. -1.
</event>
<event>
 7    1  0.2384639E-009  0.1401975E+03  0.7561462E-02  0.1213063E+00
          1   -1    0    0  501    0  0.00000000000E+00  0.00000000000E+00  0.19732342779E+03  0.19732342779E+03  0.00000000000E+00 0. -1.
         -1   -1    0    0    0  501 -0.00000000000E+00 -0.00000000000E+00 -0.17374609158E+03  0.17374609158E+03  0.00000000000E+00 0.  1.
         25    2    1    2    0    0  0.78546652316E+02  0.53078649300E+02  0.12699989287E+03  0.20190114362E+03  0.12509268327E+03 0.  0.
          5    1    3    3  502    0 -0.29024883075E+02  0.15731525738E+02  0.62904100234E+02  0.71164056698E+02  0.41800000000E+01 0.  1.
         -5    1    3    3    0  502  0.10757153539E+03  0.37347123562E+02  0.64095792633E+02  0.13073708693E+03  0.41800000000E+01 0.  1.
        -11    1    1    2    0    0 -0.88172581612E+02 -0.96629949230E+01 -0.76869265702E+02  0.11737402451E+03  0.00000000000E+00 0.  1.
         11    1    1    2    0    0  0.96259292956E+01 -0.43415654377E+02 -0.26553290954E+02  0.51794351239E+02  0.00000000000E+00 0. -1.
</event>
<event>
 7    1  0.2384639E-009  0.1174177E+03  0.7561462E-02  0.1247419E+00
         -4   -1    0    0    0  501 -0.00000000000E+00  0.00000000000E+00  0.68769535770E+03  0.68769535770E+03  0.00000000000E+00 0.  1.
          4   -1    0    0  501    0  0.00000000000E+00 -0.00000000000E+00 -0.22024332387E+02  0.22024332387E+02  0.00000000000E+00 0. -1.
         25    2    1    2    0    0  0.26097684078E+02 -0.43699064490E+02  0.28705325681E+03  0.31723405855E+03  0.12508868176E+03 0.  0.
          5    1    3    3  502    0  0.73224564103E+02 -0.10993559473E+02  0.12583907341E+03  0.14606724456E+03  0.41800000000E+01 0.  1.
         -5    1    3    3    0  502 -0.47126880025E+02 -0.32705505017E+02  0.16121418340E+03  0.17116681398E+03  0.41800000000E+01 0.  1.
        -11    1    1    2    0    0 -0.90730694165E+01  0.70676409954E+02  0.24849000796E+03  0.25850485405E+03  0.00000000000E+00 0.  1.
         11    1    1    2    0    0 -0.17024614661E+02 -0.26977345464E+02  0.13012776054E+03  0.13398077749E+03  0.00000000000E+00 0. -1.
</event>
<event>
 7    1  0.2384639E-009  0.1027231E+03  0.7561462E-02  0.1274672E+00
         -2   -1    0    0    0  501 -0.00000000000E+00  0.00000000000E+00  0.71162446576E+02  0.71162446576E+02  0.00000000000E+00 0.  1.
          2   -1    0    0  501    0  0.00000000000E+00 -0.00000000000E+00 -0.21470990294E+03  0.21470990294E+03  0.00000000000E+00 0. -1.
         25    2    1    2    0    0 -0.25978030323E+02 -0.21395572281E+02 -0.12089172657E+03  0.17718631546E+03  0.12509017652E+03 0.  0.
          5    1    3    3  502    0 -0.30577507615E+02 -0.62244497558E+02 -0.11648847762E+03  0.13563332654E+03  0.41800000000E+01 0. -1.
         -5    1    3    3    0  502  0.45994772921E+01  0.40848925277E+02 -0.44032489457E+01  0.41552988928E+02  0.41800000000E+01 0. -1.
        -11    1    1    2    0    0 -0.24020977385E+02 -0.18796539991E+02  0.15325486360E+02  0.34134847331E+02  0.00000000000E+00 0.  1.
         11    1    1    2    0    0  0.49999007708E+02  0.40192112272E+02 -0.37981216153E+02  0.74551186718E+02  0.00000000000E+00 0. -1.
</event>
<event>
 7    1  0.2384639E-009  0.2733748E+03  0.7561462E-02  0.1099363E+00
         -1   -1    0    0    0  501 -0.00000000000E+00  0.00000000000E+00  0.42304993697E+03  0.42304993697E+03  0.00000000000E+00 0.  1.
          1   -1    0    0  501    0  0.00000000000E+00 -0.00000000000E+00 -0.24179159942E+03  0.24179159942E+03  0.00000000000E+00 0. -1.
         25    2    1    2    0    0  0.14027790953E+03 -0.22994576324E+03  0.23033217303E+03  0.37583706563E+03  0.12509054334E+03 0.  0.
          5    1    3    3  502    0  0.21963200235E+01  0.11608755766E+01 -0.12405121644E+02  0.13324072079E+02  0.41800000000E+01 0. -1.
         -5    1    3    3    0  502  0.13808158950E+03 -0.23110663881E+03  0.24273729468E+03  0.36251299355E+03  0.41800000000E+01 0. -1.
        -11    1    1    2    0    0 -0.81658844032E+02  0.93523039640E+02  0.19103025605E+02  0.12561708220E+03  0.00000000000E+00 0.  1.
         11    1    1    2    0    0 -0.58619065495E+02  0.13642272360E+03 -0.68176861093E+02  0.16338738856E+03  0.00000000000E+00 0. -1.
</event>
<event>
 7    1  0.2384639E-009  0.1825159E+03  0.7561462E-02  0.1165390E+00
         -1   -1    0    0    0  501 -0.00000000000E+00  0.00000000000E+00  0.16209176488E+03  0.16209176488E+03  0.00000000000E+00 0.  1.
          1   -1    0    0  501    0  0.00000000000E+00 -0.00000000000E+00 -0.31656838352E+03  0.31656838352E+03  0.00000000000E+00 0. -1.
         25    2    1    2    0    0  0.26730819550E+02  0.16270320626E+03 -0.19686826827E+03  0.28564318045E+03  0.12509213184E+03 0.  0.
          5    1    3    3  502    0  0.44123475300E+02  0.16435343510E+03 -0.20454222107E+03  0.26610885987E+03  0.41800000000E+01 0. -1.
         -5    1    3    3    0  502 -0.17392655749E+02 -0.16502288405E+01  0.76739527989E+01  0.19534320587E+02  0.41800000000E+01 0. -1.
        -11    1    1    2    0    0  0.12144448145E+02 -0.11344187596E+03 -0.52765030431E+01  0.11421203232E+03  0.00000000000E+00 0.  1.
         11    1    1    2    0    0 -0.38875267696E+02 -0.49261330293E+02  0.47668152674E+02  0.78804935632E+02  0.00000000000E+00 0. -1.
</event>
<event>
 7    1  0.2384639E-009  0.9554409E+02  0.7561462E-02  0.1289955E+00
          2   -1    0    0  501    0  0.00000000000E+00  0.00000000000E+00  0.21141875058E+03  0.21141875058E+03  0.00000000000E+00 0.  1.
         -2   -1    0    0    0  501 -0.00000000000E+00 -0.00000000000E+00 -0.72942031745E+02  0.72942031745E+02  0.00000000000E+00 0. -1.
         25    2    1    2    0    0  0.34855062037E+02 -0.34744447876E+02  0.11600416629E+03  0.17755646503E+03  0.12508908693E+03 0.  0.
          5    1    3    3  502    0  0.28494417354E+02  0.21617615321E+02 -0.11615829198E+02  0.37837190705E+02  0.41800000000E+01 0. -1.
         -5    1    3    3    0  502  0.63606446833E+01 -0.56362063197E+02  0.12761999549E+03  0.13971927432E+03  0.41800000000E+01 0. -1.
        -11    1    1    2    0    0  0.24677314457E+02 -0.68146936260E+01  0.22677460735E+02  0.34200542736E+02  0.00000000000E+00 0.  1.
         11    1    1    2    0    0 -0.59532376494E+02  0.41559141502E+02 -0.20490819112E+00  0.72603774563E+02  0.00000000000E+00 0. -1.
</event>
<event>
 7    1  0.2384639E-009  0.1456817E+03  0.7561462E-02  0.1205882E+00
         -1   -1    0    0    0  501 -0.00000000000E+00  0.00000000000E+00  0.15815185837E+03  0.15815185837E+03  0.00000000000E+00 0.  1.
          1   -1    0    0  501    0  0.00000000000E+00 -0.00000000000E+00 -0.18770484973E+03  0.18770484973E+03  0.00000000000E+00 0. -1.
         25    2    1    2    0    0  0.10178339602E+03  0.60864433259E+02  0.45599641961E+02  0.17830837567E+03  0.12510080154E+03 0.  0.
          5    1    3    3  502    0  0.10362931806E+02 -0.20077198505E+02 -0.27577111897E+02  0.35895038042E+02  0.41800000000E+01 0. -1.
         -5    1    3    3    0  502  0.91420464218E+02  0.80941631764E+02  0.73176753858E+02  0.14241333763E+03  0.41800000000E+01 0. -1.
        -11    1    1    2    0    0 -0.45330769834E+02  0.18379587298E+02 -0.85931905365E+01  0.49664180720E+02  0.00000000000E+00 0. -1.
         11    1    1    2    0    0 -0.56452626190E+02 -0.79244020557E+02 -0.66559442784E+02  0.11788415170E+03  0.00000000000E+00 0.  1.
</event>
<event>
 7    1  0.2384639E-009  0.1174504E+03  0.7561462E-02  0.1247363E+00
         -2   -1    0    0    0  501 -0.00000000000E+00  0.00000000000E+00  0.54899592276E+02  0.54899592276E+02  0.00000000000E+00 0.  1.
          2   -1    0    0  501    0  0.00000000000E+00 -0.00000000000E+00 -0.40931053990E+03  0.40931053990E+03  0.00000000000E+00 0. -1.
         25    2    1    2    0    0 -0.89929002584E+02  0.42388882935E+02 -0.17315970445E+03  0.23561328290E+03  0.12508114540E+03 0.  0.
          5    1    3    3  502    0 -0.97230832931E+02  0.60138157156E+02 -0.18127853765E+03  0.21435907592E+03  0.41800000000E+01 0. -1.
         -5    1    3    3    0  502  0.73018303470E+01 -0.17749274221E+02  0.81188332016E+01  0.21254206980E+02  0.41800000000E+01 0. -1.
        -11    1    1    2    0    0  0.65448245303E+02 -0.38878324269E+02 -0.18811229045E+03  0.20293159126E+03  0.00000000000E+00 0. -1.
         11    1    1    2    0    0  0.24480757281E+02 -0.35105586653E+01  0.68610472766E+01  0.25665258014E+02  0.00000000000E+00 0.  1.
</event>
<event>
 7    1  0.2384639E-009  0.1503742E+03  0.7561462E-02  0.1200014E+00
         -1   -1    0    0    0  501 -0.00000000000E+00  0.00000000000E+00  0.98919140192E+01  0.98919140192E+01  0.00000000000E+00 0.  1.
          1   -1    0    0  501    0  0.00000000000E+00 -0.00000000000E+00 -0.25624242944E+04  0.25624242944E+04  0.00000000000E+00 0. -1.
         25    2    1    2    0    0  0.64875550672E+02 -0.80944158895E+02 -0.17754563015E+04  0.17828777771E+04  0.12508915048E+03 0.  0.
          5    1    3    3  502    0  0.10134312687E+03 -0.44994835913E+02 -0.11753928849E+04  0.11806188509E+04  0.41800000000E+01 0. -1.
         -5    1    3    3    0  502 -0.36467576200E+02 -0.35949322982E+02 -0.60006341657E+03  0.60225892625E+03  0.41800000000E+01 0. -1.
        -11    1    1    2    0    0  0.20665703072E+02  0.36012423714E-01 -0.89596412279E+02  0.91948842698E+02  0.00000000000E+00 0.  1.
         11    1    1    2    0    0 -0.85541253744E+02  0.80908146471E+02 -0.68747966654E+03  0.69748958857E+03  0.00000000000E+00 0. -1.
</event>
<event>
 7    1  0.2384639E-009  0.1705010E+03  0.7561462E-02  0.1177326E+00
         -1   -1    0    0    0  501 -0.00000000000E+00  0.00000000000E+00  0.16460271942E+03  0.16460271942E+03  0.00000000000E+00 0.  1.
          1   -1    0    0  501    0  0.00000000000E+00 -0.00000000000E+00 -0.32470110389E+03  0.32470110389E+03  0.00000000000E+00 0. -1.
         25    2    1    2    0    0  0.11374380567E+03 -0.74841606231E+02  0.76497476910E+02  0.20009152014E+03  0.12508330467E+03 0.  0.
          5    1    3    3  502    0  0.13265356577E+03 -0.42766014857E+02  0.82690697049E+02  0.16211454073E+03  0.41800000000E+01 0.  1.
         -5    1    3    3    0  502 -0.18909760104E+02 -0.32075591373E+02 -0.61932201382E+01  0.37976979406E+02  0.41800000000E+01 0.  1.
        -11    1    1    2    0    0 -0.16640939634E+02 -0.21579669706E+02 -0.59185460055E+02  0.65157667994E+02  0.00000000000E+00 0.  1.
         11    1    1    2    0    0 -0.97102866033E+02  0.96421275936E+02 -0.17741040133E+03  0.22405463518E+03  0.00000000000E+00 0. -1.
</event>
<event>
 7    1  0.2384639E-009  0.2227124E+03  0.7561462E-02  0.1131877E+00
          1   -1    0    0  501    0  0.00000000000E+00  0.00000000000E+00  0.50922235881E+03  0.50922235881E+03  0.00000000000E+00 0. -1.
         -1   -1    0    0    0  501 -0.00000000000E+00 -0.00000000000E+00 -0.20799699531E+03  0.20799699531E+03  0.00000000000E+00 0.  1.
         25    2    1    2    0    0  0.18022712049E+03 -0.71812703900E+02 -0.10802018512E+03  0.25486255594E+03  0.12509069758E+03 0.  0.
          5    1    3    3  502    0  0.14384287387E+03 -0.10726325210E+03 -0.90149917977E+02  0.20084983875E+03  0.41800000000E+01 0.  1.
         -5    1    3    3    0  502  0.36384246617E+02  0.35450548201E+02 -0.17870267147E+02  0.54012717184E+02  0.41800000000E+01 0.  1.
        -11    1    1    2    0    0 -0.47521124380E+02  0.67047910477E+02  0.16580146136E+03  0.18505081505E+03  0.00000000000E+00 0. -1.
         11    1    1    2    0    0 -0.13270599611E+03  0.47647934224E+01  0.24344408726E+03  0.27730598313E+03  0.00000000000E+00 0.  1.
</event>
<event>
 7    1  0.2384639E-009  0.1078304E+03  0.7561462E-02  0.1264641E+00
         -4   -1    0    0    0  501 -0.00000000000E+00  0.00000000000E+00  0.14094771542E+03  0.14094771542E+03  0.00000000000E+00 0.  1.
          4   -1    0    0  501    0  0.00000000000E+00 -0.00000000000E+00 -0.91177364097E+02  0.91177364097E+02  0.00000000000E+00 0. -1.
         25    2    1    2    0    0  0.13218776242E+02 -0.20230510416E+02  0.52884215753E+02  0.13794566794E+03  0.12509299513E+03 0.  0.
          5    1    3    3  502    0  0.24634893899E+02 -0.70872193137E+02  0.34801524407E+02  0.82815241704E+02  0.41800000000E+01 0. -1.
         -5    1    3    3    0  502 -0.11416117657E+02  0.50641682720E+02  0.18082691346E+02  0.55130426240E+02  0.41800000000E+01 0. -1.
        -11    1    1    2    0    0 -0.17741861654E+02 -0.31688289225E+02 -0.17214177895E+02  0.40190163592E+02  0.00000000000E+00 0. -1.
         11    1    1    2    0    0  0.45230854122E+01  0.51918799641E+02  0.14100313467E+02  0.53989247983E+02  0.00000000000E+00 0.  1.
</event>
<event>
 7    1  0.3535982E-009  0.1569059E+03  0.7561462E-02  0.1192235E+00
         -1   -1    0    0    0  501 -0.00000000000E+00  0.00000000000E+00  0.20751333011E+03  0.20751333011E+03  0.00000000000E+00 0.  1.
          1   -1    0    0  501    0  0.00000000000E+00 -0.00000000000E+00 -0.19350422612E+03  0.19350422612E+03  0.00000000000E+00 0. -1.
         25    2    1    2    0    0 -0.37047031349E+02 -0.13684385794E+03 -0.83073326936E+02  0.20651161207E+03  0.12508854578E+03 0.  0.
          5    1    3    3  502    0 -0.97468668634E+00 -0.96503584457E+02 -0.10960397673E+03  0.14609721402E+03  0.41800000000E+01 0.  1.
         -5    1    3    3    0  502 -0.36072344663E+02 -0.40340273480E+02  0.26530649798E+02  0.60414398057E+02  0.41800000000E+01 0.  1.
        -11    1    1    2    0    0 -0.22746183111E+02  0.68242812900E+02  0.67954896161E+02  0.98956244224E+02  0.00000000000E+00 0.  1.
         11    1    1    2    0    0  0.59793214460E+02  0.68601045036E+02  0.29127534758E+02  0.95549699930E+02  0.00000000000E+00 0. -1.
</event>
<event>
 7    1  0.2384639E-009  0.1069973E+03  0.7561462E-02  0.1266234E+00
          1   -1    0    0  501    0  0.00000000000E+00  0.00000000000E+00  0.99485370717E+02  0.99485370717E+02  0.00000000000E+00 0. -1.
         -1   -1    0    0    0  501 -0.00000000000E+00 -0.00000000000E+00 -0.14707088781E+03  0.14707088781E+03  0.00000000000E+00 0.  1.
         25    2    1    2    0    0 -0.21182067756E+02  0.47954220874E+02 -0.11882646784E+02  0.13615207667E+03  0.12509158002E+03 0.  0.
          5    1    3    3  502    0  0.40956032557E+02 -0.15612574700E+02  0.85342990281E+01  0.44849255863E+02  0.41800000000E+01 0.  1.
         -5    1    3    3    0  502 -0.62138100313E+02  0.63566795574E+02 -0.20416945812E+02  0.91302820802E+02  0.41800000000E+01 0.  1.
        -11    1    1    2    0    0 -0.10469440371E+02 -0.48197669853E+02 -0.54569247943E+02  0.73555607414E+02  0.00000000000E+00 0.  1.
         11    1    1    2    0    0  0.31651508127E+02  0.24344897963E+00  0.18866377632E+02  0.36848574451E+02  0.00000000000E+00 0. -1.
</event>
<event>
 7    1  0.2384639E-009  0.1103454E+03  0.7561462E-02  0.1259932E+00
         -2   -1    0    0    0  501 -0.00000000000E+00  0.00000000000E+00  0.22675209097E+02  0.22675209097E+02  0.00000000000E+00 0.  1.
          2   -1    0    0  501    0  0.00000000000E+00 -0.00000000000E+00 -0.12076439190E+04  0.12076439190E+04  0.00000000000E+00 0. -1.
         25    2    1    2    0    0  0.45559418551E+02  0.52710734005E+02 -0.10152462042E+04  0.10252930663E+04  0.12508770811E+03 0.  0.
          5    1    3    3  502    0  0.31971958852E+02 -0.16426393118E+02 -0.85123247972E+02  0.92495796062E+02  0.41800000000E+01 0.  1.
         -5    1    3    3    0  502  0.13587459699E+02  0.69137127123E+02 -0.93012295618E+03  0.93279727027E+03  0.41800000000E+01 0.  1.
        -11    1    1    2    0    0  0.26741715904E+02 -0.47562065880E+01 -0.29207778555E+02  0.39885275462E+02  0.00000000000E+00 0. -1.
         11    1    1    2    0    0 -0.72301134454E+02 -0.47954527417E+02 -0.14051472722E+03  0.16514078632E+03  0.00000000000E+00 0.  1.
</event>
<event>
 7    1  0.2384639E-009  0.2392567E+03  0.7561462E-02  0.1120289E+00
          2   -1    0    0  501    0  0.00000000000E+00  0.00000000000E+00  0.18891829662E+04  0.18891829662E+04  0.00000000000E+00 0.  1.
         -2   -1    0    0    0  501 -0.00000000000E+00 -0.00000000000E+00 -0.36720482723E+02  0.36720482723E+02  0.00000000000E+00 0. -1.
         25    2    1    2    0    0  0.21448038116E+03 -0.88590003429E+02  0.11709335537E+04  0.12002423134E+04  0.12508477552E+03 0.  0.
          5    1    3    3  502    0  0.11285356772E+03 -0.41694073313E+01  0.32599475196E+03  0.34502661117E+03  0.41800000000E+01 0.  1.
         -5    1    3    3    0  502  0.10162681344E+03 -0.84420596098E+02  0.84493880175E+03  0.85521570224E+03  0.41800000000E+01 0.  1.
        -11    1    1    2    0    0 -0.15604001902E+03  0.52493396397E+02  0.58122668307E+03  0.60409312305E+03  0.00000000000E+00 0.  1.
         11    1    1    2    0    0 -0.58440362139E+02  0.36096607032E+02  0.10030224674E+03  0.12156801251E+03  0.00000000000E+00 0. -1.
</event>
<event>
 7    1  0.2384639E-009  0.1162467E+03  0.7561462E-02  0.1249420E+00
          2   -1    0    0  501    0  0.00000000000E+00  0.00000000000E+00  0.74596550352E+03  0.74596550352E+03  0.00000000000E+00 0.  1.
         -2   -1    0    0    0  501 -0.00000000000E+00 -0.00000000000E+00 -0.25974878850E+02  0.25974878850E+02  0.00000000000E+00 0. -1.
         25    2    1    2    0    0  0.19980289158E+02  0.64469171952E+02  0.24186277733E+03  0.28053624512E+03  0.12508995036E+03 0.  0.
          5    1    3    3  502    0  0.18337881253E+02 -0.24924982006E+02  0.14632851903E+03  0.14962299455E+03  0.41800000000E+01 0.  1.
         -5    1    3    3    0  502  0.16424079052E+01  0.89394153958E+02  0.95534258301E+02  0.13091325057E+03  0.41800000000E+01 0.  1.
        -11    1    1    2    0    0 -0.24162282897E+01 -0.84834122480E+02  0.39574891006E+03  0.40474666930E+03  0.00000000000E+00 0. -1.
         11    1    1    2    0    0 -0.17564060868E+02  0.20364950528E+02  0.82378937275E+02  0.86657467946E+02  0.00000000000E+00 0.  1.
</event>
<event>
 7    1  0.2384639E-009  0.1122996E+03  0.7561462E-02  0.1256370E+00
          1   -1    0    0  501    0  0.00000000000E+00  0.00000000000E+00  0.99963702183E+03  0.99963702183E+03  0.00000000000E+00 0. -1.
         -1   -1    0    0    0  501 -0.00000000000E+00 -0.00000000000E+00 -0.14053335427E+02  0.14053335427E+02  0.00000000000E+00 0.  1.
         25    2    1    2    0    0  0.93954487165E+01 -0.37349801775E+02  0.68310978961E+03  0.69553575492E+03  0.12509084524E+03 0.  0.
          5    1    3    3  502    0  0.30277610479E+02 -0.77438010660E+02  0.37733292151E+03  0.38640779657E+03  0.41800000000E+01 0.  1.
         -5    1    3    3    0  502 -0.20882161762E+02  0.40088208885E+02  0.30577686810E+03  0.30912795835E+03  0.41800000000E+01 0.  1.
        -11    1    1    2    0    0  0.37804796927E+02  0.29833689826E+02  0.11483829127E+03  0.12452744621E+03  0.00000000000E+00 0.  1.
         11    1    1    2    0    0 -0.47200245644E+02  0.75161119489E+01  0.18763560552E+03  0.19362715612E+03  0.00000000000E+00 0. -1.
</event>
<event>
 7    1  0.2630203E-009  0.1379450E+03  0.7561462E-02  0.1216121E+00
         -1   -1    0    0    0  501 -0.00000000000E+00  0.00000000000E+00  0.15392576902E+03  0.15392576902E+03  0.00000000000E+00 0.  1.
          1   -1    0    0  501    0  0.00000000000E+00 -0.00000000000E+00 -0.18995613103E+03  0.18995613103E+03  0.00000000000E+00 0. -1.
         25    2    1    2    0    0 -0.10140867844E+03 -0.50055062863E+02  0.48700662226E+02  0.17552047437E+03  0.12508578272E+03 0.  0.
          5    1    3    3  502    0 -0.23832257491E+01 -0.58194885559E+02 -0.11155153903E+02  0.59449426648E+02  0.41800000000E+01 0.  1.
         -5    1    3    3    0  502 -0.99025452688E+02  0.81398226955E+01  0.59855816129E+02  0.11607104772E+03  0.41800000000E+01 0.  1.
        -11    1    1    2    0    0  0.65680835242E+02  0.49622650514E+02 -0.99984136355E+02  0.12951141681E+03  0.00000000000E+00 0. -1.
         11    1    1    2    0    0  0.35727843196E+02  0.43241234991E+00  0.15253112116E+02  0.38850008868E+02  0.00000000000E+00 0.  1.
</event>
<event>
 7    1  0.2384639E-009  0.1100045E+03  0.7561462E-02  0.1260562E+00
          1   -1    0    0  501    0  0.00000000000E+00  0.00000000000E+00  0.11248768300E+04  0.11248768300E+04  0.00000000000E+00 0. -1.
         -1   -1    0    0    0  501 -0.00000000000E+00 -0.00000000000E+00 -0.22957796867E+02  0.22957796867E+02  0.00000000000E+00 0.  1.
         25    2    1    2    0    0 -0.10181889151E+02 -0.62583635496E+02  0.94387031574E+03  0.95423189641E+03  0.12508779676E+03 0.  0.
          5    1    3    3  502    0 -0.52485709706E+02  0.30221666766E+00  0.58820350760E+03  0.59055539944E+03  0.41800000000E+01 0. -1.
         -5    1    3    3    0  502  0.42303820554E+02 -0.62885852163E+02  0.35566680814E+03  0.36367649697E+03  0.41800000000E+01 0. -1.
        -11    1    1    2    0    0 -0.27713064877E+02  0.34667052222E+02  0.13315603739E+03  0.14035793090E+03  0.00000000000E+00 0. -1.
         11    1    1    2    0    0  0.37894954029E+02  0.27916583273E+02  0.24892680025E+02  0.53244799571E+02  0.00000000000E+00 0.  1.
</event>
<event>
 7    1  0.2384639E-009  0.1210232E+03  0.7561462E-02  0.1241419E+00
         -2   -1    0    0    0  501 -0.00000000000E+00  0.00000000000E+00  0.61411180804E+02  0.61411180804E+02  0.00000000000E+00 0.  1.
          2   -1    0    0  501    0  0.00000000000E+00 -0.00000000000E+00 -0.32507019522E+03  0.32507019522E+03  0.00000000000E+00 0. -1.
         25    2    1    2    0    0  0.18372005894E+02  0.66286606374E+02 -0.63998800164E+02  0.15644350575E+03  0.12508908539E+03 0.  0.
          5    1    3    3  502    0 -0.42013637858E+02  0.16951645422E+01  0.71726124949E+01  0.42859516083E+02  0.41800000000E+01 0. -1.
         -5    1    3    3    0  502  0.60385643752E+02  0.64591441832E+02 -0.71171412658E+02  0.11358398967E+03  0.41800000000E+01 0. -1.
        -11    1    1    2    0    0 -0.42391608818E+02 -0.17711773414E+01 -0.10274578068E+03  0.11116150869E+03  0.00000000000E+00 0. -1.
         11    1    1    2    0    0  0.24019602924E+02 -0.64515429032E+02 -0.96914433574E+02  0.11887636158E+03  0.00000000000E+00 0.  1.
</event>
<event>
 7    1  0.2384639E-009  0.8084641E+02  0.7561462E-02  0.1326666E+00
         -1   -1    0    0    0  501 -0.00000000000E+00  0.00000000000E+00  0.42187563095E+02  0.42187563095E+02  0.00000000000E+00 0.  1.
          1   -1    0    0  501    0  0.00000000000E+00 -0.00000000000E+00 -0.49341904985E+03  0.49341904985E+03  0.00000000000E+00 0. -1.
         25    2    1    2    0    0  0.60891475624E+02  0.92694666049E+01 -0.37963317814E+03  0.40442823674E+03  0.12508858425E+03 0.  0.
          5    1    3    3  502    0  0.37486307385E+02 -0.34459412964E+01 -0.18254556487E+02  0.42045201692E+02  0.41800000000E+01 0. -1.
         -5    1    3    3    0  502  0.23405168239E+02  0.12715407901E+02 -0.36137862166E+03  0.36238303505E+03  0.41800000000E+01 0. -1.
        -11    1    1    2    0    0 -0.34446817027E+02  0.32538851698E+02 -0.41966191305E+01  0.47570701963E+02  0.00000000000E+00 0. -1.
         11    1    1    2    0    0 -0.26444658597E+02 -0.41808318303E+02 -0.67401689478E+02  0.83607674242E+02  0.00000000000E+00 0.  1.
</event>
<event>
 7    1  0.2384639E-009  0.1053956E+03  0.7561462E-02  0.1269342E+00
          1   -1    0    0  501    0  0.00000000000E+00  0.00000000000E+00  0.16036218814E+03  0.16036218814E+03  0.00000000000E+00 0. -1.
         -1   -1    0    0    0  501 -0.00000000000E+00 -0.00000000000E+00 -0.90181517994E+02  0.90181517994E+02  0.00000000000E+00 0.  1.
         25    2    1    2    0    0  0.14553858080E+02 -0.42163352792E+02  0.13032200279E+02  0.13344407478E+03  0.12509164539E+03 0.  0.
          5    1    3    3  502    0 -0.25161722903E+01  0.44277996511E+02  0.26383143602E+01  0.44624042855E+02  0.41800000000E+01 0.  1.
         -5    1    3    3    0  502  0.17070030370E+02 -0.86441349303E+02  0.10393885919E+02  0.88820031922E+02  0.41800000000E+01 0.  1.
        -11    1    1    2    0    0  0.25254065265E+02  0.21592991529E+02 -0.11466272375E+02  0.35149687022E+02  0.00000000000E+00 0.  1.
         11    1    1    2    0    0 -0.39807923345E+02  0.20570361263E+02  0.68614742243E+02  0.81949944335E+02  0.00000000000E+00 0. -1.
</event>
<event>
 7    1  0.2384639E-009  0.1242475E+03  0.7561462E-02  0.1236250E+00
         -2   -1    0    0    0  501 -0.00000000000E+00  0.00000000000E+00  0.10013438974E+03  0.10013438974E+03  0.00000000000E+00 0.  1.
          2   -1    0    0  501    0  0.00000000000E+00 -0.00000000000E+00 -0.20216539810E+03  0.20216539810E+03  0.00000000000E+00 0. -1.
         25    2    1    2    0    0 -0.85714685207E+02  0.31502776193E+01 -0.95062909437E+02  0.17899900501E+03  0.12508699187E+03 0.  0.
          5    1    3    3  502    0 -0.60440354740E+02  0.62410903659E+02 -0.58192000521E+02  0.10465151075E+03  0.41800000000E+01 0. -1.
         -5    1    3    3    0  502 -0.25274330467E+02 -0.59260626040E+02 -0.36870908915E+02  0.74347494264E+02  0.41800000000E+01 0. -1.
        -11    1    1    2    0    0  0.78274565108E+02  0.12836777878E+02 -0.37735244355E+02  0.87838710576E+02  0.00000000000E+00 0. -1.
         11    1    1    2    0    0  0.74401200989E+01 -0.15987055497E+02  0.30767145432E+02  0.35462072255E+02  0.00000000000E+00 0.  1.
</event>
<event>
 7    1  0.2384639E-009  0.1189245E+03  0.7561462E-02  0.1244882E+00
          2   -1    0    0  501    0  0.00000000000E+00  0.00000000000E+00  0.38226365892E+03  0.38226365892E+03  0.00000000000E+00 0. -1.
         -2   -1    0    0    0  501 -0.00000000000E+00 -0.00000000000E+00 -0.60692264219E+02  0.60692264219E+02  0.00000000000E+00 0.  1.
         25    2    1    2    0    0 -0.62071403778E+02 -0.55830247201E+02  0.92880133326E+02  0.17675945485E+03  0.12508920833E+03 0.  0.
          5    1    3    3  502    0  0.93816961823E+01  0.77211804897E+01  0.79003377396E+02  0.80041482316E+02  0.41800000000E+01 0.  1.
         -5    1    3    3    0  502 -0.71453099960E+02 -0.63551427691E+02  0.13876755931E+02  0.96717972532E+02  0.41800000000E+01 0.  1.
        -11    1    1    2    0    0  0.50476099392E+02  0.84459970131E+02  0.13164130768E+03  0.16434949666E+03  0.00000000000E+00 0.  1.
         11    1    1    2    0    0  0.11595304386E+02 -0.28629722929E+02  0.97049953696E+02  0.10184697164E+03  0.00000000000E+00 0. -1.
</event>
<event>
 7    1  0.2384639E-009  0.1223174E+03  0.7561462E-02  0.1239322E+00
          1   -1    0    0  501    0  0.00000000000E+00  0.00000000000E+00  0.85140186845E+02  0.85140186845E+02  0.00000000000E+00 0. -1.
         -1   -1    0    0    0  501 -0.00000000000E+00 -0.00000000000E+00 -0.24982161665E+03  0.24982161665E+03  0.00000000000E+00 0.  1.
         25    2    1    2    0    0 -0.48722864391E+02 -0.80396529101E+02 -0.59931705589E+02  0.16757354732E+03  0.12510621496E+03 0.  0.
          5    1    3    3  502    0 -0.58888689817E+02 -0.10678419445E+03 -0.28921133941E+02  0.12539795198E+03  0.41800000000E+01 0. -1.
         -5    1    3    3    0  502  0.10165825426E+02  0.26387665345E+02 -0.31010571647E+02  0.42175595347E+02  0.41800000000E+01 0. -1.
        -11    1    1    2    0    0  0.31809051156E+02  0.50510605339E+02 -0.27414613371E+01  0.59754937850E+02  0.00000000000E+00 0. -1.
         11    1    1    2    0    0  0.16913813235E+02  0.29885923762E+02 -0.10200826288E+03  0.10763331832E+03  0.00000000000E+00 0.  1.
</event>
<event>
 7    1  0.2384639E-009  0.2303373E+03  0.7561462E-02  0.1126403E+00
          2   -1    0    0  501    0  0.00000000000E+00  0.00000000000E+00  0.15878237296E+04  0.15878237296E+04  0.00000000000E+00 0. -1.
         -2   -1    0    0    0  501 -0.00000000000E+00 -0.00000000000E+00 -0.54011378032E+02  0.54011378032E+02  0.00000000000E+00 0.  1.
         25    2    1    2    0    0 -0.19076480096E+03 -0.71433904146E+02  0.12890504887E+04  0.13110259119E+04  0.12507504601E+03 0.  0.
          5    1    3    3  502    0 -0.68044244917E+02  0.34901783975E+02  0.40671648056E+03  0.41386461766E+03  0.41800000000E+01 0.  1.
         -5    1    3    3    0  502 -0.12272055605E+03 -0.10633568812E+03  0.88233400819E+03  0.89716129422E+03  0.41800000000E+01 0.  1.
        -11    1    1    2    0    0  0.19921588340E+02 -0.19703968753E+02  0.21786423279E+02  0.35493158579E+02  0.00000000000E+00 0.  1.
         11    1    1    2    0    0  0.17084321262E+03  0.91137872899E+02  0.22297543956E+03  0.29531603719E+03  0.00000000000E+00 0. -1.
</event>
<event>
 7    1  0.2405461E-009  0.1222868E+03  0.7561462E-02  0.1239372E+00
         -2   -1    0    0    0  501 -0.00000000000E+00  0.00000000000E+00  0.10283141225E+03  0.10283141225E+03  0.00000000000E+00 0.  1.
          2   -1    0    0  501    0  0.00000000000E+00 -0.00000000000E+00 -0.19802385415E+03  0.19802385415E+03  0.00000000000E+00 0. -1.
         25    2    1    2    0    0 -0.67067178855E+02  0.23094256676E+02 -0.11412703529E+03  0.18358694783E+03  0.12509131088E+03 0.  0.
          5    1    3    3  502    0 -0.37965692234E+00 -0.44856848897E+02 -0.56329507420E+02  0.72130207532E+02  0.41800000000E+01 0.  1.
         -5    1    3    3    0  502 -0.66687521933E+02  0.67951105573E+02 -0.57797527874E+02  0.11145674030E+03  0.41800000000E+01 0.  1.
        -11    1    1    2    0    0  0.41828941014E+02 -0.51418609284E+02 -0.13158519875E+02  0.67577217554E+02  0.00000000000E+00 0. -1.
         11    1    1    2    0    0  0.25238237842E+02  0.28324352608E+02  0.32093113274E+02  0.49691101011E+02  0.00000000000E+00 0.  1.
</event>
<event>
 7    1  0.2384639E-009  0.2137724E+03  0.7561462E-02  0.1138613E+00
         -2   -1    0    0    0  501 -0.00000000000E+00  0.00000000000E+00  0.38224954960E+02  0.38224954960E+02  0.00000000000E+00 0. -1.
          2   -1    0    0  501    0  0.00000000000E+00 -0.00000000000E+00 -0.14153076729E+04  0.14153076729E+04  0.00000000000E+00 0.  1.
         25    2    1    2    0    0 -0.19119916647E+03  0.42257841439E+02 -0.90116379272E+03  0.93063727312E+03  0.12508679543E+03 0.  0.
          5    1    3    3  502    0 -0.24881409155E+02 -0.21895011054E+02 -0.34442100942E+03  0.34603725256E+03  0.41800000000E+01 0. -1.
         -5    1    3    3    0  502 -0.16631775731E+03  0.64152852494E+02 -0.55674278330E+03  0.58460002056E+03  0.41800000000E+01 0. -1.
        -11    1    1    2    0    0  0.32275024466E+02 -0.46787493828E+02 -0.14574203117E+03  0.15643364866E+03  0.00000000000E+00 0. -1.
         11    1    1    2    0    0  0.15892414200E+03  0.45296523889E+01 -0.33017689409E+03  0.36646170612E+03  0.00000000000E+00 0.  1.
</event>
<event>
 7    1  0.2384639E-009  0.6133993E+02  0.7561462E-02  0.1392293E+00
         -2   -1    0    0    0  501 -0.00000000000E+00  0.00000000000E+00  0.23959869833E+02  0.23959869833E+02  0.00000000000E+00 0.  1.
          2   -1    0    0  501    0  0.00000000000E+00 -0.00000000000E+00 -0.50561236954E+03  0.50561236954E+03  0.00000000000E+00 0. -1.
         25    2    1    2    0    0  0.18364014026E+02  0.43700573480E+01 -0.24659351204E+03  0.27714919329E+03  0.12508789209E+03 0.  0.
          5    1    3    3  502    0 -0.96424796589E+01  0.75899501282E+01 -0.24826291554E+03  0.24860115122E+03  0.41800000000E+01 0. -1.
         -5    1    3    3    0  502  0.28006493685E+02 -0.32198927802E+01  0.16694034933E+01  0.28548042070E+02  0.41800000000E+01 0. -1.
        -11    1    1    2    0    0  0.31199302479E+02 -0.52929078852E+01 -0.15547487638E+03  0.15866268791E+03  0.00000000000E+00 0. -1.
         11    1    1    2    0    0 -0.49563316505E+02  0.92285053713E+00 -0.79584111285E+02  0.93760358175E+02  0.00000000000E+00 0.  1.
</event>
<event>
 7    1  0.2384639E-009  0.1192853E+03  0.7561462E-02  0.1244281E+00
         -3   -1    0    0    0  501 -0.00000000000E+00  0.00000000000E+00  0.64875656654E+03  0.64875656654E+03  0.00000000000E+00 0.  1.
          3   -1    0    0  501    0  0.00000000000E+00 -0.00000000000E+00 -0.25638000815E+02  0.25638000815E+02  0.00000000000E+00 0. -1.
         25    2    1    2    0    0 -0.35475244348E+02  0.57644227202E+02  0.32106094196E+03  0.35115750827E+03  0.12510042874E+03 0.  0.
          5    1    3    3  502    0 -0.76139396409E+02  0.29476304649E+02  0.12851066455E+03  0.15231061527E+03  0.41800000000E+01 0. -1.
         -5    1    3    3    0  502  0.40664152061E+02  0.28167922553E+02  0.19255027741E+03  0.19884689300E+03  0.41800000000E+01 0. -1.
        -11    1    1    2    0    0  0.60478120356E+02 -0.23565291041E+02  0.23641815952E+03  0.24516621328E+03  0.00000000000E+00 0.  1.
         11    1    1    2    0    0 -0.25002876008E+02 -0.34078936162E+02  0.65639464244E+02  0.78070845806E+02  0.00000000000E+00 0. -1.
</event>
<event>
 7    1  0.2384639E-009  0.1154880E+03  0.7561462E-02  0.1250732E+00
         -2   -1    0    0    0  501 -0.00000000000E+00  0.00000000000E+00  0.28846035573E+02  0.28846035573E+02  0.00000000000E+00 0.  1.
          2   -1    0    0  501    0  0.00000000000E+00 -0.00000000000E+00 -0.81113208756E+03  0.81113208756E+03  0.00000000000E+00 0. -1.
         25    2    1    2    0    0  0.73820688022E+02 -0.10716247130E+02 -0.64361391466E+03  0.65988668431E+03  0.12508890059E+03 0.  0.
          5    1    3    3  502    0  0.61751222178E+02  0.34370572463E+02 -0.17270927868E+03  0.18665614652E+03  0.41800000000E+01 0.  1.
         -5    1    3    3    0  502  0.12069465844E+02 -0.45086819592E+02 -0.47090463598E+03  0.47323053778E+03  0.41800000000E+01 0.  1.
        -11    1    1    2    0    0 -0.83210950691E+02 -0.16234144814E+02 -0.11580177340E+03  0.14351885066E+03  0.00000000000E+00 0.  1.
         11    1    1    2    0    0  0.93902626682E+01  0.26950391943E+02 -0.22870363927E+02  0.36572588164E+02  0.00000000000E+00 0. -1.
</event>
<event>
 7    1  0.2384639E-009  0.1254035E+03  0.7561462E-02  0.1234440E+00
         -4   -1    0    0    0  501 -0.00000000000E+00  0.00000000000E+00  0.89462746089E+02  0.89462746089E+02  0.00000000000E+00 0.  1.
          4   -1    0    0  501    0  0.00000000000E+00 -0.00000000000E+00 -0.28147655630E+03  0.28147655630E+03  0.00000000000E+00 0. -1.
         25    2    1    2    0    0 -0.93387847026E+02 -0.37151892262E+02 -0.38456832966E+02  0.16500451307E+03  0.12508400482E+03 0.  0.
          5    1    3    3  502    0  0.49610999183E+01  0.23955292948E+02  0.23012960387E+02  0.33845787306E+02  0.41800000000E+01 0. -1.
         -5    1    3    3    0  502 -0.98348946945E+02 -0.61107185210E+02 -0.61469793353E+02  0.13115872576E+03  0.41800000000E+01 0. -1.
        -11    1    1    2    0    0  0.55010361568E+02  0.44859726808E+02 -0.31323741645E+02  0.77586801453E+02  0.00000000000E+00 0.  1.
         11    1    1    2    0    0  0.38377485458E+02 -0.77078345459E+01 -0.12223323560E+03  0.12834798786E+03  0.00000000000E+00 0. -1.
</event>
<event>
 7    1  0.2384639E-009  0.8657277E+02  0.7561462E-02  0.1311370E+00
         -2   -1    0    0    0  501 -0.00000000000E+00  0.00000000000E+00  0.15685917810E+02  0.15685917810E+02  0.00000000000E+00 0.  1.
          2   -1    0    0  501    0  0.00000000000E+00 -0.00000000000E+00 -0.14033106503E+04  0.14033106503E+04  0.00000000000E+00 0. -1.
         25    2    1    2    0    0  0.72450371774E+02 -0.19140891779E+02 -0.10689482282E+04  0.10788481177E+04  0.12509003279E+03 0.  0.
          5    1    3    3  502    0  0.28659607104E+02 -0.30635492586E+02 -0.96134599236E+02  0.10497256811E+03  0.41800000000E+01 0. -1.
         -5    1    3    3    0  502  0.43790764671E+02  0.11494600807E+02 -0.97281362895E+03  0.97387554954E+03  0.41800000000E+01 0. -1.
        -11    1    1    2    0    0 -0.71041114654E+02  0.49006291719E+01 -0.31794293356E+03  0.32581983540E+03  0.00000000000E+00 0. -1.
         11    1    1    2    0    0 -0.14092571206E+01  0.14240262607E+02 -0.73357078516E+00  0.14328615106E+02  0.00000000000E+00 0.  1.
</event>
<event>
 7    1  0.2384639E-009  0.1278025E+03  0.7561462E-02  0.1230753E+00
         -2   -1    0    0    0  501 -0.00000000000E+00  0.00000000000E+00  0.28164414598E+02  0.28164414598E+02  0.00000000000E+00 0. -1.
          2   -1    0    0  501    0  0.00000000000E+00 -0.00000000000E+00 -0.70230822665E+03  0.70230822665E+03  0.00000000000E+00 0.  1.
         25    2    1    2    0    0  0.70430129283E+02  0.48060524892E+02 -0.44346806218E+03  0.46859587355E+03  0.12509177979E+03 0.  0.
          5    1    3    3  502    0  0.10411240033E+03  0.32073219433E+02 -0.37495905953E+03  0.39048668611E+03  0.41800000000E+01 0. -1.
         -5    1    3    3    0  502 -0.33682271043E+02  0.15987305459E+02 -0.68509002655E+02  0.78109187444E+02  0.41800000000E+01 0. -1.
        -11    1    1    2    0    0 -0.58952758507E+02  0.71690144983E+00 -0.18466331964E+03  0.19384654577E+03  0.00000000000E+00 0.  1.
         11    1    1    2    0    0 -0.11477370776E+02 -0.48777426342E+02 -0.46012430226E+02  0.68030221929E+02  0.00000000000E+00 0. -1.
</event>
<event>
 7    1  0.2384639E-009  0.1259415E+03  0.7561462E-02  0.1233605E+00
         -1   -1    0    0    0  501 -0.00000000000E+00  0.00000000000E+00  0.47572608654E+03  0.47572608654E+03  0.00000000000E+00 0.  1.
          1   -1    0    0  501    0  0.00000000000E+00 -0.00000000000E+00 -0.47406473295E+02  0.47406473295E+02  0.00000000000E+00 0. -1.
         25    2    1    2    0    0  0.14300641107E+02  0.91599714337E+02  0.31003110200E+03  0.34693416584E+03  0.12509602399E+03 0.  0.
          5    1    3    3  502    0 -0.21819482739E+02  0.98339807934E+02  0.28492660084E+03  0.30223740324E+03  0.41800000000E+01 0. -1.
         -5    1    3    3    0  502  0.36120123846E+02 -0.67400935977E+01  0.25104501160E+02  0.44696762599E+02  0.41800000000E+01 0. -1.
        -11    1    1    2    0    0  0.14531462528E+02  0.32999272190E+01 -0.69500843630E+01  0.16442524000E+02  0.00000000000E+00 0. -1.
         11    1    1    2    0    0 -0.28832103635E+02 -0.94899641556E+02  0.12523859561E+03  0.15975586999E+03  0.00000000000E+00 0.  1.
</event>
<event>
 7    1  0.2384639E-009  0.5963520E+02  0.7561462E-02  0.1399369E+00
          2   -1    0    0  501    0  0.00000000000E+00  0.00000000000E+00  0.29258606597E+03  0.29258606597E+03  0.00000000000E+00 0. -1.
         -2   -1    0    0    0  501 -0.00000000000E+00 -0.00000000000E+00 -0.42742199635E+02  0.42742199635E+02  0.00000000000E+00 0.  1.
         25    2    1    2    0    0 -0.72782953139E+00  0.16751871458E+02  0.16771835004E+03  0.20990039068E+03  0.12509026394E+03 0.  0.
          5    1    3    3  502    0 -0.25479070689E+02 -0.10885958199E+02 -0.88834454550E+01  0.29395154911E+02  0.41800000000E+01 0. -1.
         -5    1    3    3    0  502  0.24751241157E+02  0.27637829658E+02  0.17660179550E+03  0.18050523577E+03  0.41800000000E+01 0. -1.
        -11    1    1    2    0    0  0.25338583865E+02 -0.14515952924E+02  0.93695965697E+02  0.98141177441E+02  0.00000000000E+00 0. -1.
         11    1    1    2    0    0 -0.24610754333E+02 -0.22359185344E+01 -0.11570449400E+02  0.27286697489E+02  0.00000000000E+00 0.  1.
</event>
<event>
 7    1  0.2384639E-009  0.2874054E+03  0.7561462E-02  0.1091712E+00
         -1   -1    0    0    0  501 -0.00000000000E+00  0.00000000000E+00  0.61339026845E+02  0.61339026845E+02  0.00000000000E+00 0.  1.
          1   -1    0    0  501    0  0.00000000000E+00 -0.00000000000E+00 -0.16173355903E+04  0.16173355903E+04  0.00000000000E+00 0. -1.
         25    2    1    2    0    0  0.17506008472E+03  0.22512323396E+03 -0.99092939767E+03  0.10387085503E+04  0.12509147677E+03 0.  0.
          5    1    3    3  502    0  0.90670645550E+02  0.79287565750E+02 -0.23367527025E+03  0.26292449177E+03  0.41800000000E+01 0.  1.
         -5    1    3    3    0  502  0.84389439171E+02  0.14583566821E+03 -0.75725412742E+03  0.77578405853E+03  0.41800000000E+01 0.  1.
        -11    1    1    2    0    0 -0.83806121733E+02 -0.93211540328E+02 -0.34930456580E+03  0.37111391375E+03  0.00000000000E+00 0.  1.
         11    1    1    2    0    0 -0.91253962988E+02 -0.13191169363E+03 -0.21576260001E+03  0.26885215313E+03  0.00000000000E+00 0. -1.
</event>
<event>
 7    1  0.2384639E-009  0.1089573E+03  0.7561462E-02  0.1262513E+00
         -1   -1    0    0    0  501 -0.00000000000E+00  0.00000000000E+00  0.10407826230E+03  0.10407826230E+03  0.00000000000E+00 0.  1.
          1   -1    0    0  501    0  0.00000000000E+00 -0.00000000000E+00 -0.11903499480E+03  0.11903499480E+03  0.00000000000E+00 0. -1.
         25    2    1    2    0    0 -0.59674348891E+01  0.16548254235E+02  0.12429664660E+02  0.12693183867E+03  0.12509092736E+03 0.  0.
          5    1    3    3  502    0  0.29272638665E+02 -0.45536564744E+02  0.11046240012E+02  0.55407200990E+02  0.41800000000E+01 0. -1.
         -5    1    3    3    0  502 -0.35240073554E+02  0.62084818979E+02  0.13834246486E+01  0.71524637682E+02  0.41800000000E+01 0. -1.
        -11    1    1    2    0    0 -0.31462335210E+02 -0.37709426507E+02 -0.16739741412E+02  0.51885434632E+02  0.00000000000E+00 0.  1.
         11    1    1    2    0    0  0.37429770099E+02  0.21161172273E+02 -0.10646655745E+02  0.44295983793E+02  0.00000000000E+00 0. -1.
</event>
<event>
 7    1  0.2384639E-009  0.1201087E+03  0.7561462E-02  0.1242918E+00
          1   -1    0    0  501    0  0.00000000000E+00  0.00000000000E+00  0.14801385479E+04  0.14801385479E+04  0.00000000000E+00 0. -1.
         -1   -1    0    0    0  501 -0.00000000000E+00 -0.00000000000E+00 -0.10571460720E+02  0.10571460720E+02  0.00000000000E+00 0.  1.
         25    2    1    2    0    0  0.55523292439E+02  0.18128567224E+02  0.10027660534E+04  0.10122246264E+04  0.12508978975E+03 0.  0.
          5    1    3    3  502    0  0.29532147546E+02 -0.53492384566E+02  0.40400378510E+03  0.40861976667E+03  0.41800000000E+01 0. -1.
         -5    1    3    3    0  502  0.25991144894E+02  0.71620951790E+02  0.59876226835E+03  0.60360485977E+03  0.41800000000E+01 0. -1.
        -11    1    1    2    0    0 -0.32445968631E+02  0.33179304636E+02  0.16110670921E+03  0.16765732578E+03  0.00000000000E+00 0.  1.
         11    1    1    2    0    0 -0.23077323808E+02 -0.51307871860E+02  0.30569432453E+03  0.31082805639E+03  0.00000000000E+00 0. -1.
</event>
<event>
 7    1  0.2384639E-009  0.1679758E+03  0.7561462E-02  0.1179975E+00
         -1   -1    0    0    0  501 -0.00000000000E+00  0.00000000000E+00  0.23377272187E+02  0.23377272187E+02  0.00000000000E+00 0.  1.
          1   -1    0    0  501    0  0.00000000000E+00 -0.00000000000E+00 -0.12493694660E+04  0.12493694660E+04  0.00000000000E+00 0. -1.
         25    2    1    2    0    0  0.67191976556E+02  0.11488399385E+03 -0.63760258343E+03  0.66324884617E+03  0.12509549869E+03 0.  0.
          5    1    3    3  502    0 -0.98612473542E+01 -0.19365502776E+02 -0.37999200429E+02  0.43973611750E+02  0.41800000000E+01 0.  1.
         -5    1    3    3    0  502  0.77053223910E+02  0.13424949663E+03 -0.59960338300E+03  0.61927523442E+03  0.41800000000E+01 0.  1.
        -11    1    1    2    0    0  0.49735022576E+01  0.12007932112E+02 -0.44522257331E+02  0.46380573047E+02  0.00000000000E+00 0.  1.
         11    1    1    2    0    0 -0.72165478814E+02 -0.12689192597E+03 -0.54386735305E+03  0.56311731897E+03  0.00000000000E+00 0. -1.
</event>
<event>
 7    1  0.2384639E-009  0.2795995E+03  0.7561462E-02  0.1095908E+00
         -2   -1    0    0    0  501 -0.00000000000E+00  0.00000000000E+00  0.11718071723E+03  0.11718071723E+03  0.00000000000E+00 0.  1.
          2   -1    0    0  501    0  0.00000000000E+00 -0.00000000000E+00 -0.75822618905E+03  0.75822618905E+03  0.00000000000E+00 0. -1.
         25    2    1    2    0    0  0.21089821354E+03 -0.16195468771E+03 -0.44431813425E+03  0.53270360827E+03  0.12508857859E+03 0.  0.
          5    1    3    3  502    0  0.20524370267E+03 -0.17970268867E+03 -0.39729518625E+03  0.48195328738E+03  0.41800000000E+01 0. -1.
         -5    1    3    3    0  502  0.56545108745E+01  0.17748000967E+02 -0.47022948002E+02  0.50750320889E+02  0.41800000000E+01 0. -1.
        -11    1    1    2    0    0 -0.17625289943E+03  0.14714822043E+03 -0.20051823357E+03  0.30483642389E+03  0.00000000000E+00 0. -1.
         11    1    1    2    0    0 -0.34645314114E+02  0.14806467280E+02  0.37908960118E+01  0.37866874125E+02  0.00000000000E+00 0.  1.
</event>
<event>
 7    1  0.2384639E-009  0.9388200E+02  0.7561462E-02  0.1293714E+00
         -3   -1    0    0    0  501 -0.00000000000E+00  0.00000000000E+00  0.11147221184E+03  0.11147221184E+03  0.00000000000E+00 0.  1.
          3   -1    0    0  501    0  0.00000000000E+00 -0.00000000000E+00 -0.13772893387E+03  0.13772893387E+03  0.00000000000E+00 0. -1.
         25    2    1    2    0    0  0.18421307733E+02  0.49707287611E+02 -0.44940452169E+02  0.14309213681E+03  0.12508219840E+03 0.  0.
          5    1    3    3  502    0  0.63547404670E+02  0.60005329373E+02 -0.17865213073E+02  0.89305937269E+02  0.41800000000E+01 0. -1.
         -5    1    3    3    0  502 -0.45126096937E+02 -0.10298041762E+02 -0.27075239096E+02  0.53786199540E+02  0.41800000000E+01 0. -1.
        -11    1    1    2    0    0 -0.10345361994E+02 -0.15460371360E+02 -0.36323980799E+02  0.40810307258E+02  0.00000000000E+00 0. -1.
         11    1    1    2    0    0 -0.80759457387E+01 -0.34246916251E+02  0.55007710939E+02  0.65298701633E+02  0.00000000000E+00 0.  1.
</event>
<event>
 7    1  0.2384639E-009  0.1437361E+03  0.7561462E-02  0.1208388E+00
          2   -1    0    0  501    0  0.00000000000E+00  0.00000000000E+00  0.52450723024E+02  0.52450723024E+02  0.00000000000E+00 0. -1.
         -2   -1    0    0    0  501 -0.00000000000E+00 -0.00000000000E+00 -0.92338333830E+03  0.92338333830E+03  0.00000000000E+00 0.  1.
         25    2    1    2    0    0  0.56188084283E+02 -0.13026229636E+03 -0.16793706023E+03  0.25293343939E+03  0.12508837634E+03 0.  0.
          5    1    3    3  502    0  0.51110358589E+02 -0.12149221102E+03 -0.18825442289E+03  0.22984739771E+03  0.41800000000E+01 0.  1.
         -5    1    3    3    0  502  0.50777256942E+01 -0.87700853398E+01  0.20317362663E+02  0.23086041685E+02  0.41800000000E+01 0.  1.
        -11    1    1    2    0    0 -0.54747379907E+02  0.97301282780E+02 -0.65628275750E+03  0.66571155392E+03  0.00000000000E+00 0.  1.
         11    1    1    2    0    0 -0.14407043757E+01  0.32961013578E+02 -0.46712797552E+02  0.57189068014E+02  0.00000000000E+00 0. -1.
</event>
<event>
 7    1  0.2384639E-009  0.1126715E+03  0.7561462E-02  0.1255701E+00
         -1   -1    0    0    0  501 -0.00000000000E+00  0.00000000000E+00  0.14840212608E+02  0.14840212608E+02  0.00000000000E+00 0. -1.
          1   -1    0    0  501    0  0.00000000000E+00 -0.00000000000E+00 -0.16344345919E+04  0.16344345919E+04  0.00000000000E+00 0.  1.
         25    2    1    2    0    0 -0.11291506922E+02  0.98177776362E+02 -0.11654084716E+04  0.11762612852E+04  0.12508929369E+03 0.  0.
          5    1    3    3  502    0 -0.54916138517E+01  0.52557151760E+02 -0.13822923936E+03  0.14804461164E+03  0.41800000000E+01 0.  1.
         -5    1    3    3    0  502 -0.57998930701E+01  0.45620624602E+02 -0.10271792322E+04  0.10282166735E+04  0.41800000000E+01 0.  1.
        -11    1    1    2    0    0  0.43866511609E+02 -0.39431658914E+02 -0.14351362130E+03  0.15516212831E+03  0.00000000000E+00 0.  1.
         11    1    1    2    0    0 -0.32575004688E+02 -0.58746117448E+02 -0.31067228639E+03  0.31785139103E+03  0.00000000000E+00 0. -1.
</event>
<event>
 7    1  0.2384639E-009  0.1156465E+03  0.7561462E-02  0.1250457E+00
         -4   -1    0    0    0  501 -0.00000000000E+00  0.00000000000E+00  0.16407639063E+03  0.16407639063E+03  0.00000000000E+00 0.  1.
          4   -1    0    0  501    0  0.00000000000E+00 -0.00000000000E+00 -0.14323478034E+03  0.14323478034E+03  0.00000000000E+00 0. -1.
         25    2    1    2    0    0 -0.78760656655E+01  0.79150085061E+02  0.85605961025E+02  0.17118074668E+03  0.12509076342E+03 0.  0.
          5    1    3    3  502    0  0.44755095835E+02  0.17062470539E+02 -0.61319798351E+01  0.48468753655E+02  0.41800000000E+01 0.  1.
         -5    1    3    3    0  502 -0.52631161501E+02  0.62087614521E+02  0.91737940860E+02  0.12271199302E+03  0.41800000000E+01 0.  1.
        -11    1    1    2    0    0 -0.11186471921E+02  0.71870665939E+01  0.12842422068E+02  0.18485639963E+02  0.00000000000E+00 0.  1.
         11    1    1    2    0    0  0.19062537586E+02 -0.86337151655E+02 -0.77606772805E+02  0.11764478433E+03  0.00000000000E+00 0. -1.
</event>
<event>
 7    1  0.2384639E-009  0.9360130E+02  0.7561462E-02  0.1294358E+00
         -1   -1    0    0    0  501 -0.00000000000E+00  0.00000000000E+00  0.43693450011E+03  0.43693450011E+03  0.00000000000E+00 0.  1.
          1   -1    0    0  501    0  0.00000000000E+00 -0.00000000000E+00 -0.34238436113E+02  0.34238436113E+02  0.00000000000E+00 0. -1.
         25    2    1    2    0    0  0.38198065907E+02  0.41247343160E+02  0.21562453115E+03  0.25554994978E+03  0.12510556678E+03 0.  0.
          5    1    3    3  502    0  0.39613993319E+02  0.59081185740E+02  0.22421774893E+03  0.23526777575E+03  0.41800000000E+01 0. -1.
         -5    1    3    3    0  502 -0.14159274124E+01 -0.17833842580E+02 -0.85932177707E+01  0.20282174027E+02  0.41800000000E+01 0. -1.
        -11    1    1    2    0    0 -0.18987064336E+02 -0.64602140285E+02  0.81039963929E+02  0.10536328058E+03  0.00000000000E+00 0. -1.
         11    1    1    2    0    0 -0.19211001571E+02  0.23354797126E+02  0.10603156891E+03  0.11025970586E+03  0.00000000000E+00 0.  1.
</event>
<event>
 7    1  0.2384639E-009  0.1855694E+03  0.7561462E-02  0.1162519E+00
          1   -1    0    0  501    0  0.00000000000E+00  0.00000000000E+00  0.12411461815E+03  0.12411461815E+03  0.00000000000E+00 0. -1.
         -1   -1    0    0    0  501 -0.00000000000E+00 -0.00000000000E+00 -0.32268949582E+03  0.32268949582E+03  0.00000000000E+00 0.  1.
         25    2    1    2    0    0 -0.23767542808E+02 -0.14915185364E+03 -0.18550071669E+03  0.26994241578E+03  0.12508885005E+03 0.  0.
          5    1    3    3  502    0 -0.15522020249E+02 -0.17069391361E+03 -0.17216647656E+03  0.24297348273E+03  0.41800000000E+01 0. -1.
         -5    1    3    3    0  502 -0.82455225584E+01  0.21542059972E+02 -0.13334240131E+02  0.26968933052E+02  0.41800000000E+01 0. -1.
        -11    1    1    2    0    0 -0.10185783310E+02  0.14095039470E+03 -0.13185004634E+02  0.14193170292E+03  0.00000000000E+00 0.  1.
         11    1    1    2    0    0  0.33953326118E+02  0.82014589379E+01  0.11084366017E+00  0.34929995269E+02  0.00000000000E+00 0. -1.
</event>
<event>
 7    1  0.2384639E-009  0.1086062E+03  0.7561462E-02  0.1263173E+00
          3   -1    0    0  501    0  0.00000000000E+00  0.00000000000E+00  0.13771868584E+03  0.13771868584E+03  0.00000000000E+00 0. -1.
         -3   -1    0    0    0  501 -0.00000000000E+00 -0.00000000000E+00 -0.99543547017E+02  0.99543547017E+02  0.00000000000E+00 0.  1.
         25    2    1    2    0    0  0.40590565520E+02 -0.90528534795E+01  0.29734436012E+02  0.13514293985E+03  0.12509967762E+03 0.  0.
          5    1    3    3  502    0 -0.44147145461E+02 -0.37587707124E+00  0.22017657094E+02  0.49511224584E+02  0.41800000000E+01 0. -1.
         -5    1    3    3    0  502  0.84737710981E+02 -0.86769764083E+01  0.77167789183E+01  0.85631715262E+02  0.41800000000E+01 0. -1.
        -11    1    1    2    0    0 -0.63748922294E+02  0.92963655833E+01  0.29463583492E+02  0.70841021018E+02  0.00000000000E+00 0.  1.
         11    1    1    2    0    0  0.23158356774E+02 -0.24351210377E+00 -0.21022880682E+02  0.31278271992E+02  0.00000000000E+00 0. -1.
</event>
<event>
 7    1  0.2384639E-009  0.1402686E+03  0.7561462E-02  0.1212968E+00
          1   -1    0    0  501    0  0.00000000000E+00  0.00000000000E+00  0.37329491612E+03  0.37329491612E+03  0.00000000000E+00 0. -1.
         -1   -1    0    0    0  501 -0.00000000000E+00 -0.00000000000E+00 -0.54365522907E+02  0.54365522907E+02  0.00000000000E+00 0.  1.
         25    2    1    2    0    0 -0.52314628795E+02  0.74229010666E+02  0.17791232818E+03  0.23568343139E+03  0.12508843634E+03 0.  0.
          5    1    3    3  502    0  0.39233037934E+02  0.15895946331E+02  0.73996819757E+02  0.85351708299E+02  0.41800000000E+01 0.  1.
         -5    1    3    3    0  502 -0.91547666730E+02  0.58333064335E+02  0.10391550842E+03  0.15033172309E+03  0.41800000000E+01 0.  1.
        -11    1    1    2    0    0  0.57231736747E+02 -0.23081261173E+01  0.73734947438E+02  0.93368311600E+02  0.00000000000E+00 0.  1.
         11    1    1    2    0    0 -0.49171079515E+01 -0.71920884549E+02  0.67282117597E+02  0.98608696032E+02  0.00000000000E+00 0. -1.
</event>
<event>
 7    1  0.2384639E-009  0.1318520E+03  0.7561462E-02  0.1224733E+00
         -2   -1    0    0    0  501 -0.00000000000E+00  0.00000000000E+00  0.36164122160E+02  0.36164122160E+02  0.00000000000E+00 0.  1.
          2   -1    0    0  501    0  0.00000000000E+00 -0.00000000000E+00 -0.69531739691E+03  0.69531739691E+03  0.00000000000E+00 0. -1.
         25    2    1    2    0    0  0.76702587460E+02 -0.75912380770E+02 -0.44334749888E+03  0.47312773899E+03  0.12508747403E+03 0.  0.
          5    1    3    3  502    0  0.78261747833E+02 -0.37087926616E+02 -0.12347784913E+03  0.15087964442E+03  0.41800000000E+01 0. -1.
         -5    1    3    3    0  502 -0.15591603721E+01 -0.38824454153E+02 -0.31986964975E+03  0.32224809457E+03  0.41800000000E+01 0. -1.
        -11    1    1    2    0    0  0.19163930825E+02  0.10387118952E+02 -0.15235751654E+02  0.26594672648E+02  0.00000000000E+00 0.  1.
         11    1    1    2    0    0 -0.95866518285E+02  0.65525261817E+02 -0.20057002421E+03  0.23175910743E+03  0.00000000000E+00 0. -1.
</event>
<event>
 7    1  0.2804005E-009  0.2883657E+03  0.7561462E-02  0.1091206E+00
          1   -1    0    0  501    0  0.00000000000E+00  0.00000000000E+00  0.12740068300E+04  0.12740068300E+04  0.00000000000E+00 0. -1.
         -1   -1    0    0    0  501 -0.00000000000E+00 -0.00000000000E+00 -0.86713568431E+02  0.86713568431E+02  0.00000000000E+00 0.  1.
         25    2    1    2    0    0 -0.15750205610E+03  0.21742760705E+03  0.93593504090E+03  0.98168394760E+03  0.12508920899E+03 0.  0.
          5    1    3    3  502    0 -0.22497687806E+02  0.13095841004E+03  0.49293691422E+03  0.51054923848E+03  0.41800000000E+01 0.  1.
         -5    1    3    3    0  502 -0.13500436829E+03  0.86469197012E+02  0.44299812668E+03  0.47113470912E+03  0.41800000000E+01 0.  1.
        -11    1    1    2    0    0  0.53301292312E+02 -0.15027484674E+03  0.13286812884E+03  0.20755119124E+03  0.00000000000E+00 0. -1.
         11    1    1    2    0    0  0.10420076379E+03 -0.67152760314E+02  0.11849009179E+03  0.17148525956E+03  0.00000000000E+00 0.  1.
</event>
<event>
 7    1  0.2384639E-009  0.2651230E+03  0.7561462E-02  0.1104104E+00
         -2   -1    0    0    0  501 -0.00000000000E+00  0.00000000000E+00  0.18297499001E+04  0.18297499001E+04  0.00000000000E+00 0.  1.
          2   -1    0    0  501    0  0.00000000000E+00 -0.00000000000E+00 -0.98509394637E+02  0.98509394637E+02  0.00000000000E+00 0. -1.
         25    2    1    2    0    0  0.18317094512E+03 -0.18315835421E+03  0.15965487653E+04  0.16222553137E+04  0.12508303321E+03 0.  0.
          5    1    3    3  502    0  0.97785328807E+01 -0.30174261936E+01  0.38549030365E+03  0.38564876659E+03  0.41800000000E+01 0.  1.
         -5    1    3    3    0  502  0.17339241224E+03 -0.18014092802E+03  0.12110584616E+04  0.12366065471E+04  0.41800000000E+01 0.  1.
        -11    1    1    2    0    0 -0.10555459628E+03  0.54313855667E+02  0.29096308426E+02  0.12222259561E+03  0.00000000000E+00 0. -1.
         11    1    1    2    0    0 -0.77616348841E+02  0.12884449854E+03  0.10559543180E+03  0.18378138543E+03  0.00000000000E+00 0.  1.
</event>
<event>
 7    1  0.2384639E-009  0.1069680E+03  0.7561462E-02  0.1266290E+00
         -1   -1    0    0    0  501 -0.00000000000E+00  0.00000000000E+00  0.73834530719E+02  0.73834530719E+02  0.00000000000E+00 0.  1.
          1   -1    0    0  501    0  0.00000000000E+00 -0.00000000000E+00 -0.26869963890E+03  0.26869963890E+03  0.00000000000E+00 0. -1.
         25    2    1    2    0    0 -0.26188736247E+02  0.81503023417E+02 -0.73822378286E+02  0.16860035351E+03  0.12509093866E+03 0.  0.
          5    1    3    3  502    0  0.30530251555E+02  0.55694920662E+02  0.96194296343E+01  0.64374111831E+02  0.41800000000E+01 0.  1.
         -5    1    3    3    0  502 -0.56718987802E+02  0.25808102755E+02 -0.83441807921E+02  0.10422624168E+03  0.41800000000E+01 0.  1.
        -11    1    1    2    0    0  0.12511583785E+02 -0.65916865835E+02 -0.18896466494E+02  0.69704012627E+02  0.00000000000E+00 0.  1.
         11    1    1    2    0    0  0.13677152463E+02 -0.15586157582E+02 -0.10214626340E+03  0.10422980348E+03  0.00000000000E+00 0. -1.
</event>
<event>
 7    1  0.2384639E-009  0.8680020E+02  0.7561462E-02  0.1310791E+00
          2   -1    0    0  501    0  0.00000000000E+00  0.00000000000E+00  0.39349152960E+03  0.39349152960E+03  0.00000000000E+00 0. -1.
         -2   -1    0    0    0  501 -0.00000000000E+00 -0.00000000000E+00 -0.68073257166E+02  0.68073257166E+02  0.00000000000E+00 0.  1.
         25    2    1    2    0    0  0.41407246619E+02 -0.19820894315E+02  0.33443969678E+03  0.36000384004E+03  0.12508167785E+03 0.  0.
          5    1    3    3  502    0  0.53920870370E+02 -0.62194076732E+02  0.15966866228E+03  0.17968616407E+03  0.41800000000E+01 0. -1.
         -5    1    3    3    0  502 -0.12513623751E+02  0.42373182416E+02  0.17477103450E+03  0.18031767597E+03  0.41800000000E+01 0. -1.
        -11    1    1    2    0    0 -0.34237506610E+02  0.12222249178E+02 -0.48562938941E+02  0.60662585441E+02  0.00000000000E+00 0.  1.
         11    1    1    2    0    0 -0.71697400086E+01  0.75986451375E+01  0.39541514592E+02  0.40898361287E+02  0.00000000000E+00 0. -1.
</event>
<event>
 7    1  0.2384639E-009  0.1263227E+03  0.7561462E-02  0.1233017E+00
          3   -1    0    0  501    0  0.00000000000E+00  0.00000000000E+00  0.26465236287E+03  0.26465236287E+03  0.00000000000E+00 0. -1.
         -3   -1    0    0    0  501 -0.00000000000E+00 -0.00000000000E+00 -0.84690833741E+02  0.84690833741E+02  0.00000000000E+00 0.  1.
         25    2    1    2    0    0  0.53308589141E+02 -0.60393791689E+02  0.23266434785E+02  0.15059361733E+03  0.12509154584E+03 0.  0.
          5    1    3    3  502    0  0.35119658376E+01  0.32297025380E+02  0.30878834434E+02  0.45015625825E+02  0.41800000000E+01 0.  1.
         -5    1    3    3    0  502  0.49796623303E+02 -0.92690817069E+02 -0.76123996490E+01  0.10557799150E+03  0.41800000000E+01 0.  1.
        -11    1    1    2    0    0  0.14381366892E+02 -0.95411046731E+01  0.56447844249E+02  0.59027243815E+02  0.00000000000E+00 0. -1.
         11    1    1    2    0    0 -0.67689956033E+02  0.69934896362E+02  0.10024725010E+03  0.13972233547E+03  0.00000000000E+00 0.  1.
</event>
<event>
 7    1  0.2384639E-009  0.8455575E+02  0.7561462E-02  0.1316598E+00
          1   -1    0    0  501    0  0.00000000000E+00  0.00000000000E+00  0.40570306248E+02  0.40570306248E+02  0.00000000000E+00 0. -1.
         -1   -1    0    0    0  501 -0.00000000000E+00 -0.00000000000E+00 -0.34273565944E+03  0.34273565944E+03  0.00000000000E+00 0.  1.
         25    2    1    2    0    0 -0.14797617732E+02  0.17993690710E+02 -0.22652562735E+03  0.25981531408E+03  0.12508954867E+03 0.  0.
          5    1    3    3  502    0  0.20931767755E+02 -0.12238879181E+02  0.36659700322E+01  0.24876511034E+02  0.41800000000E+01 0.  1.
         -5    1    3    3    0  502 -0.35729385486E+02  0.30232569892E+02 -0.23019159738E+03  0.23493880304E+03  0.41800000000E+01 0.  1.
        -11    1    1    2    0    0  0.43931172731E+02  0.21120714256E+02 -0.40574234043E+02  0.63421612849E+02  0.00000000000E+00 0. -1.
         11    1    1    2    0    0 -0.29133555000E+02 -0.39114404967E+02 -0.35065491800E+02  0.60069038764E+02  0.00000000000E+00 0.  1.
</event>
<event>
 7    1  0.2384639E-009  0.1148760E+03  0.7561462E-02  0.1251798E+00
          1   -1    0    0  501    0  0.00000000000E+00  0.00000000000E+00  0.46383021286E+03  0.46383021286E+03  0.00000000000E+00 0. -1.
         -1   -1    0    0    0  501 -0.00000000000E+00 -0.00000000000E+00 -0.43592572054E+02  0.43592572054E+02  0.00000000000E+00 0.  1.
         25    2    1    2    0    0 -0.62993852788E+02 -0.64378555711E+02  0.21081964982E+03  0.26116121314E+03  0.12508969012E+03 0.  0.
          5    1    3    3  502    0  0.22124720681E+02 -0.17436061072E+02 -0.53997580586E+00  0.28483038195E+02  0.41800000000E+01 0. -1.
         -5    1    3    3    0  502 -0.85118573469E+02 -0.46942494638E+02  0.21135962563E+03  0.23267817495E+03  0.41800000000E+01 0. -1.
        -11    1    1    2    0    0  0.68581138467E+02  0.40912686608E+02  0.74529060030E+02  0.10923278477E+03  0.00000000000E+00 0.  1.
         11    1    1    2    0    0 -0.55872856792E+01  0.23465869103E+02  0.13488893095E+03  0.13702878700E+03  0.00000000000E+00 0. -1.
</event>
<event>
 7    1  0.2384639E-009  0.1351344E+03  0.7561462E-02  0.1220030E+00
          2   -1    0    0  501    0  0.00000000000E+00  0.00000000000E+00  0.28474008147E+03  0.28474008147E+03  0.00000000000E+00 0. -1.
         -2   -1    0    0    0  501 -0.00000000000E+00 -0.00000000000E+00 -0.73106578524E+02  0.73106578524E+02  0.00000000000E+00 0.  1.
         25    2    1    2    0    0 -0.23657809854E+02  0.89399872008E+02  0.91740151464E+02  0.18059508729E+03  0.12508517530E+03 0.  0.
          5    1    3    3  502    0 -0.45441658562E+01  0.11312150840E+03  0.97310865502E+02  0.14934524449E+03  0.41800000000E+01 0. -1.
         -5    1    3    3    0  502 -0.19113643997E+02 -0.23721636395E+02 -0.55707140381E+01  0.31249842800E+02  0.41800000000E+01 0. -1.
        -11    1    1    2    0    0 -0.29558493921E+02 -0.11134841155E+02  0.12148620223E+02  0.33841959514E+02  0.00000000000E+00 0.  1.
         11    1    1    2    0    0  0.53216303774E+02 -0.78265030853E+02  0.10774473126E+03  0.14340961319E+03  0.00000000000E+00 0. -1.
</event>
<event>
 7    1  0.2384639E-009  0.8622293E+02  0.7561462E-02  0.1312265E+00
          2   -1    0    0  501    0  0.00000000000E+00  0.00000000000E+00  0.91108256327E+02  0.91108256327E+02  0.00000000000E+00 0. -1.
         -2   -1    0    0    0  501 -0.00000000000E+00 -0.00000000000E+00 -0.19758042397E+03  0.19758042397E+03  0.00000000000E+00 0.  1.
         25    2    1    2    0    0  0.55088275460E+02  0.41371230250E+02 -0.10098102145E+03  0.17490068907E+03  0.12508711988E+03 0.  0.
          5    1    3    3  502    0 -0.84482621165E+01  0.37950159457E+02 -0.10395443338E+03  0.11106567587E+03  0.41800000000E+01 0.  1.
         -5    1    3    3    0  502  0.63536537576E+02  0.34210707929E+01  0.29734119335E+01  0.63835013207E+02  0.41800000000E+01 0.  1.
        -11    1    1    2    0    0 -0.18863499846E+02 -0.86121317994E+01 -0.45920284680E+02  0.50385245714E+02  0.00000000000E+00 0.  1.
         11    1    1    2    0    0 -0.36224775614E+02 -0.32759098450E+02  0.40429138486E+02  0.63402745511E+02  0.00000000000E+00 0. -1.
</event>
<event>
 7    1  0.2384639E-009  0.2487932E+03  0.7561462E-02  0.1114070E+00
          4   -1    0    0  501    0  0.00000000000E+00  0.00000000000E+00  0.91287085745E+02  0.91287085745E+02  0.00000000000E+00 0.  1.
         -4   -1    0    0    0  501 -0.00000000000E+00 -0.00000000000E+00 -0.75808606843E+03  0.75808606843E+03  0.00000000000E+00 0. -1.
         25    2    1    2    0    0  0.12092777022E+03  0.20084845498E+03 -0.26507388515E+03  0.37533315064E+03  0.12508869615E+03 0.  0.
          5    1    3    3  502    0  0.12811587240E+03  0.12827849120E+03 -0.23377040915E+03  0.29586335471E+03  0.41800000000E+01 0. -1.
         -5    1    3    3    0  502 -0.71881021766E+01  0.72569963781E+02 -0.31303475998E+02  0.79469795933E+02  0.41800000000E+01 0. -1.
        -11    1    1    2    0    0 -0.12848212074E+03 -0.18106456870E+03 -0.39249842215E+03  0.45094017871E+03  0.00000000000E+00 0. -1.
         11    1    1    2    0    0  0.75543505231E+01 -0.19783886282E+02 -0.92266753898E+01  0.23099824826E+02  0.00000000000E+00 0.  1.
</event>
<event>
 7    1  0.2384639E-009  0.1068603E+03  0.7561462E-02  0.1266497E+00
         -2   -1    0    0    0  501 -0.00000000000E+00  0.00000000000E+00  0.39892833991E+02  0.39892833991E+02  0.00000000000E+00 0. -1.
          2   -1    0    0  501    0  0.00000000000E+00 -0.00000000000E+00 -0.34067962738E+03  0.34067962738E+03  0.00000000000E+00 0.  1.
         25    2    1    2    0    0 -0.10359649770E+02 -0.32374020265E+02 -0.12948727858E+03  0.18322032144E+03  0.12508929347E+03 0.  0.
          5    1    3    3  502    0 -0.57843212410E+02  0.86492971663E+01 -0.94611462262E+02  0.11130790068E+03  0.41800000000E+01 0.  1.
         -5    1    3    3    0  502  0.47483562641E+02 -0.41023317431E+02 -0.34875816322E+02  0.71912420750E+02  0.41800000000E+01 0.  1.
        -11    1    1    2    0    0 -0.37972685736E+02  0.15227524027E+02 -0.43851045633E+02  0.59972631701E+02  0.00000000000E+00 0. -1.
         11    1    1    2    0    0  0.48332335506E+02  0.17146496238E+02 -0.12744846917E+03  0.13737950824E+03  0.00000000000E+00 0.  1.
</event>
<event>
 7    1  0.2384639E-009  0.1280034E+03  0.7561462E-02  0.1230449E+00
         -2   -1    0    0    0  501 -0.00000000000E+00  0.00000000000E+00  0.53895340563E+02  0.53895340563E+02  0.00000000000E+00 0.  1.
          2   -1    0    0  501    0  0.00000000000E+00 -0.00000000000E+00 -0.37581944958E+03  0.37581944958E+03  0.00000000000E+00 0. -1.
         25    2    1    2    0    0  0.78924959130E+02  0.25229318304E+02 -0.23582623125E+03  0.27951237276E+03  0.12508991767E+03 0.  0.
          5    1    3    3  502    0 -0.27359061091E+02  0.79314409616E+01 -0.11067510331E+03  0.11435854526E+03  0.41800000000E+01 0.  1.
         -5    1    3    3    0  502  0.10628402022E+03  0.17297877343E+02 -0.12515112794E+03  0.16515382750E+03  0.41800000000E+01 0.  1.
        -11    1    1    2    0    0 -0.65270265942E+02  0.23095364304E+02 -0.31631729094E+02  0.76119443994E+02  0.00000000000E+00 0.  1.
         11    1    1    2    0    0 -0.13654693188E+02 -0.48324682608E+02 -0.54466148674E+02  0.74082973392E+02  0.00000000000E+00 0. -1.
</event>
<event>
 7    1  0.2384639E-009  0.4762980E+03  0.7561462E-02  0.1020158E+00
          1   -1    0    0  501    0  0.00000000000E+00  0.00000000000E+00  0.50674773939E+03  0.50674773939E+03  0.00000000000E+00 0. -1.
         -1   -1    0    0    0  501 -0.00000000000E+00 -0.00000000000E+00 -0.47059675861E+03  0.47059675861E+03  0.00000000000E+00 0.  1.
         25    2    1    2    0    0 -0.47229652428E+03 -0.55858036861E+02  0.34293352932E+02  0.49295789603E+03  0.12508927243E+03 0.  0.
          5    1    3    3  502    0 -0.21971900530E+03 -0.42759345838E+02  0.76335828654E+02  0.23653632720E+03  0.41800000000E+01 0. -1.
         -5    1    3    3    0  502 -0.25257751898E+03 -0.13098691023E+02 -0.42042475722E+02  0.25642156883E+03  0.41800000000E+01 0. -1.
        -11    1    1    2    0    0  0.10114478611E+03  0.17324776001E+02 -0.37309931787E+02  0.10918995663E+03  0.00000000000E+00 0.  1.
         11    1    1    2    0    0  0.37115173817E+03  0.38533260861E+02  0.39167559628E+02  0.37519664533E+03  0.00000000000E+00 0. -1.
</event>
<event>
 7    1  0.2384639E-009  0.1983763E+03  0.7561462E-02  0.1151116E+00
          1   -1    0    0  501    0  0.00000000000E+00  0.00000000000E+00  0.60616659063E+03  0.60616659063E+03  0.00000000000E+00 0. -1.
         -1   -1    0    0    0  501 -0.00000000000E+00 -0.00000000000E+00 -0.13481297710E+03  0.13481297710E+03  0.00000000000E+00 0.  1.
         25    2    1    2    0    0 -0.14156597388E+03  0.11095758477E+03 -0.10074354136E+02  0.21932099078E+03  0.12509074230E+03 0.  0.
          5    1    3    3  502    0  0.57482134336E+01  0.25150227669E+02  0.34286526429E+02  0.43111648125E+02  0.41800000000E+01 0.  1.
         -5    1    3    3    0  502 -0.14731418731E+03  0.85807357098E+02 -0.44360880566E+02  0.17620934266E+03  0.41800000000E+01 0.  1.
        -11    1    1    2    0    0  0.11729570594E+03 -0.38160551320E+02  0.31898628469E+03  0.34200403525E+03  0.00000000000E+00 0. -1.
         11    1    1    2    0    0  0.24270267936E+02 -0.72797033447E+02  0.16244168298E+03  0.17965454170E+03  0.00000000000E+00 0.  1.
</event>
<event>
 7    1  0.2384639E-009  0.1072444E+03  0.7561462E-02  0.1265760E+00
         -1   -1    0    0    0  501 -0.00000000000E+00  0.00000000000E+00  0.32094372045E+03  0.32094372045E+03  0.00000000000E+00 0.  1.
          1   -1    0    0  501    0  0.00000000000E+00 -0.00000000000E+00 -0.62674639760E+02  0.62674639760E+02  0.00000000000E+00 0. -1.
         25    2    1    2    0    0 -0.65542035139E+02 -0.58073464196E+02  0.17852754139E+03  0.23491840045E+03  0.12508511591E+03 0.  0.
          5    1    3    3  502    0 -0.28573093569E+02 -0.82635916759E+01 -0.13607678559E+02  0.32974989602E+02  0.41800000000E+01 0. -1.
         -5    1    3    3    0  502 -0.36968941570E+02 -0.49809872520E+02  0.19213521995E+03  0.20194341085E+03  0.41800000000E+01 0. -1.
        -11    1    1    2    0    0  0.27824106440E+02  0.75697698898E+02  0.67872541781E+02  0.10540874938E+03  0.00000000000E+00 0.  1.
         11    1    1    2    0    0  0.37717928699E+02 -0.17624234701E+02  0.11868997520E+02  0.43291210381E+02  0.00000000000E+00 0. -1.
</event>
<event>
 7    1  0.2384639E-009  0.1353492E+03  0.7561462E-02  0.1219728E+00
         -2   -1    0    0    0  501 -0.00000000000E+00  0.00000000000E+00  0.24892955862E+02  0.24892955862E+02  0.00000000000E+00 0.  1.
          2   -1    0    0  501    0  0.00000000000E+00 -0.00000000000E+00 -0.83675995485E+03  0.83675995485E+03  0.00000000000E+00 0. -1.
         25    2    1    2    0    0  0.47712135330E+02  0.81233253031E+02 -0.43781029685E+03  0.46497382010E+03  0.12509000000E+03 0.  0.
          5    1    3    3  502    0  0.83843976243E+02  0.36886518079E+02 -0.19502228823E+03  0.21550311570E+03  0.41800000000E+01 0. -1.
         -5    1    3    3    0  502 -0.36131840914E+02  0.44346734952E+02 -0.24278800862E+03  0.24947070440E+03  0.41800000000E+01 0. -1.
        -11    1    1    2    0    0 -0.68969273468E+02 -0.66316994237E+02 -0.34350790705E+03  0.35658433310E+03  0.00000000000E+00 0. -1.
         11    1    1    2    0    0  0.21257138138E+02 -0.14916258794E+02 -0.30548795094E+02  0.40094757512E+02  0.00000000000E+00 0.  1.
</event>
<event>
 7    1  0.2384639E-009  0.1029233E+03  0.7561462E-02  0.1274266E+00
         -1   -1    0    0    0  501 -0.00000000000E+00  0.00000000000E+00  0.43614681533E+03  0.43614681533E+03  0.00000000000E+00 0.  1.
          1   -1    0    0  501    0  0.00000000000E+00 -0.00000000000E+00 -0.37126095260E+02  0.37126095260E+02  0.00000000000E+00 0. -1.
         25    2    1    2    0    0 -0.22806720237E+02 -0.53748448936E+02  0.28100814113E+03  0.31308573668E+03  0.12509220953E+03 0.  0.
          5    1    3    3  502    0  0.24255169596E+02  0.30981472283E+02  0.61963866381E+02  0.73519779746E+02  0.41800000000E+01 0.  1.
         -5    1    3    3    0  502 -0.47061889833E+02 -0.84729921220E+02  0.21904427474E+03  0.23956595694E+03  0.41800000000E+01 0.  1.
        -11    1    1    2    0    0  0.48041553255E+01  0.50796102134E+02  0.11734575212E+02  0.52354791145E+02  0.00000000000E+00 0. -1.
         11    1    1    2    0    0  0.18002564912E+02  0.29523468026E+01  0.10627800373E+03  0.10783238276E+03  0.00000000000E+00 0.  1.
</event>
<event>
 7    1  0.2384639E-009  0.1120093E+03  0.7561462E-02  0.1256894E+00
          1   -1    0    0  501    0  0.00000000000E+00  0.00000000000E+00  0.93380142449E+03  0.93380142449E+03  0.00000000000E+00 0. -1.
         -1   -1    0    0    0  501 -0.00000000000E+00 -0.00000000000E+00 -0.17911304695E+02  0.17911304695E+02  0.00000000000E+00 0.  1.
         25    2    1    2    0    0  0.35106005400E+02 -0.50551547989E+02  0.63993367955E+03  0.65494035790E+03  0.12507544752E+03 0.  0.
          5    1    3    3  502    0 -0.45161205352E+02 -0.60014581175E+01  0.26420474945E+03  0.26813648390E+03  0.41800000000E+01 0.  1.
         -5    1    3    3    0  502  0.80267210752E+02 -0.44550089872E+02  0.37572893010E+03  0.38680387400E+03  0.41800000000E+01 0.  1.
        -11    1    1    2    0    0  0.17335679899E+02  0.15845532131E+02  0.13932822358E+02  0.27308061537E+02  0.00000000000E+00 0.  1.
         11    1    1    2    0    0 -0.52441685299E+02  0.34706015858E+02  0.26202361789E+03  0.26946430974E+03  0.00000000000E+00 0. -1.
</event>
<event>
 7    1  0.3452866E-009  0.1951239E+03  0.7561462E-02  0.1153919E+00
         -2   -1    0    0    0  501 -0.00000000000E+00  0.00000000000E+00  0.52107716377E+02  0.52107716377E+02  0.00000000000E+00 0.  1.
          2   -1    0    0  501    0  0.00000000000E+00 -0.00000000000E+00 -0.78917953303E+03  0.78917953303E+03  0.00000000000E+00 0. -1.
         25    2    1    2    0    0 -0.14240578430E+03 -0.89250816445E+02 -0.32010591221E+03  0.38257111824E+03  0.12509096626E+03 0.  0.
          5    1    3    3  502    0 -0.10321789613E+03 -0.11333998518E+03 -0.28811312578E+03  0.32638402529E+03  0.41800000000E+01 0.  1.
         -5    1    3    3    0  502 -0.39187888178E+02  0.24089168734E+02 -0.31992786431E+02  0.56187092947E+02  0.41800000000E+01 0.  1.
        -11    1    1    2    0    0  0.11862074943E+03  0.23690704188E+02 -0.24818785036E+03  0.27609661484E+03  0.00000000000E+00 0. -1.
         11    1    1    2    0    0  0.23785034876E+02  0.65560112257E+02 -0.16877805408E+03  0.18261951633E+03  0.00000000000E+00 0.  1.
</event>
<event>
 7    1  0.2384639E-009  0.1339717E+03  0.7561462E-02  0.1221679E+00
         -1   -1    0    0    0  501 -0.00000000000E+00  0.00000000000E+00  0.52631198077E+02  0.52631198077E+02  0.00000000000E+00 0.  1.
          1   -1    0    0  501    0  0.00000000000E+00 -0.00000000000E+00 -0.41594839486E+03  0.41594839486E+03  0.00000000000E+00 0. -1.
         25    2    1    2    0    0  0.32500862570E+01  0.91103122113E+02 -0.13001091950E+03  0.20213048500E+03  0.12507418542E+03 0.  0.
          5    1    3    3  502    0  0.28346267101E+02 -0.18839669445E+02 -0.66324475863E+01  0.34927149388E+02  0.41800000000E+01 0. -1.
         -5    1    3    3    0  502 -0.25096180844E+02  0.10994279156E+03 -0.12337847191E+03  0.16720333561E+03  0.41800000000E+01 0. -1.
        -11    1    1    2    0    0  0.91692274969E+01 -0.10311723838E+03 -0.15592909536E+03  0.18716602887E+03  0.00000000000E+00 0.  1.
         11    1    1    2    0    0 -0.12419313754E+02  0.12014116264E+02 -0.77377181915E+02  0.79283079058E+02  0.00000000000E+00 0. -1.
</event>
<event>
 7    1  0.2384639E-009  0.1026358E+03  0.7561462E-02  0.1274849E+00
          1   -1    0    0  501    0  0.00000000000E+00  0.00000000000E+00  0.52418900599E+03  0.52418900599E+03  0.00000000000E+00 0. -1.
         -1   -1    0    0    0  501 -0.00000000000E+00 -0.00000000000E+00 -0.28553189159E+02  0.28553189159E+02  0.00000000000E+00 0.  1.
         25    2    1    2    0    0  0.18015910247E+02 -0.21852565180E+02  0.16936994177E+03  0.21245332496E+03  0.12509248772E+03 0.  0.
          5    1    3    3  502    0 -0.24118926203E+02  0.36585005795E+02  0.11174995464E+03  0.12010707728E+03  0.41800000000E+01 0. -1.
         -5    1    3    3    0  502  0.42134836449E+02 -0.58437570975E+02  0.57619987128E+02  0.92346247681E+02  0.41800000000E+01 0. -1.
        -11    1    1    2    0    0  0.25492993537E+02 -0.17094217441E+02  0.18338579046E+03  0.18593669119E+03  0.00000000000E+00 0. -1.
         11    1    1    2    0    0 -0.43508903784E+02  0.38946782621E+02  0.14288008460E+03  0.15435217900E+03  0.00000000000E+00 0.  1.
</event>
<event>
 7    1  0.2384639E-009  0.1322397E+03  0.7561462E-02  0.1224170E+00
         -2   -1    0    0    0  501 -0.00000000000E+00  0.00000000000E+00  0.34747405711E+02  0.34747405711E+02  0.00000000000E+00 0.  1.
          2   -1    0    0  501    0  0.00000000000E+00 -0.00000000000E+00 -0.56551205295E+03  0.56551205295E+03  0.00000000000E+00 0. -1.
         25    2    1    2    0    0  0.10926504861E+02  0.76584197639E+02 -0.38153407503E+03  0.40890082070E+03  0.12508838047E+03 0.  0.
          5    1    3    3  502    0 -0.29158733100E+02 -0.23031875648E+02 -0.70112014845E+02  0.79459839148E+02  0.41800000000E+01 0. -1.
         -5    1    3    3    0  502  0.40085237961E+02  0.99616073287E+02 -0.31142206018E+03  0.32944098155E+03  0.41800000000E+01 0. -1.
        -11    1    1    2    0    0 -0.15629967513E+02  0.18617954238E+02 -0.34390505238E+02  0.42114498157E+02  0.00000000000E+00 0.  1.
         11    1    1    2    0    0  0.47034626517E+01 -0.95202151877E+02 -0.11484006698E+03  0.14924413980E+03  0.00000000000E+00 0. -1.
</event>
<event>
 7    1  0.2384639E-009  0.2301379E+03  0.7561462E-02  0.1126543E+00
          2   -1    0    0  501    0  0.00000000000E+00  0.00000000000E+00  0.27142367426E+03  0.27142367426E+03  0.00000000000E+00 0. -1.
         -2   -1    0    0    0  501 -0.00000000000E+00 -0.00000000000E+00 -0.29813298592E+03  0.29813298592E+03  0.00000000000E+00 0.  1.
         25    2    1    2    0    0  0.20204907915E+02  0.22593735860E+03 -0.14809354713E+03  0.29838784782E+03  0.12509068994E+03 0.  0.
          5    1    3    3  502    0  0.12275938179E+02  0.18176032535E+03 -0.16915502185E+03  0.24863307976E+03  0.41800000000E+01 0. -1.
         -5    1    3    3    0  502  0.79289697355E+01  0.44177033243E+02  0.21061474724E+02  0.49754768061E+02  0.41800000000E+01 0. -1.
        -11    1    1    2    0    0  0.11372013510E+02 -0.11310794252E+02 -0.86719725684E+01  0.18233482007E+02  0.00000000000E+00 0.  1.
         11    1    1    2    0    0 -0.31576921424E+02 -0.21462656435E+03  0.13005620804E+03  0.25293533035E+03  0.00000000000E+00 0. -1.
</event>
<event>
 7    1  0.2384639E-009  0.1724972E+03  0.7561462E-02  0.1175268E+00
         -2   -1    0    0    0  501 -0.00000000000E+00  0.00000000000E+00  0.24486074005E+02  0.24486074005E+02  0.00000000000E+00 0.  1.
          2   -1    0    0  501    0  0.00000000000E+00 -0.00000000000E+00 -0.12843373104E+04  0.12843373104E+04  0.00000000000E+00 0. -1.
         25    2    1    2    0    0 -0.12976804625E+03 -0.24260710472E+02 -0.77656066890E+03  0.79757331191E+03  0.12509351495E+03 0.  0.
          5    1    3    3  502    0 -0.15037365148E+03 -0.24679172352E+01 -0.60982514875E+03  0.62811026908E+03  0.41800000000E+01 0.  1.
         -5    1    3    3    0  502  0.20605605236E+02 -0.21792793237E+02 -0.16673552016E+03  0.16946304283E+03  0.41800000000E+01 0.  1.
        -11    1    1    2    0    0 -0.14770525718E+02  0.12312122888E+02 -0.90975338209E+02  0.92985315842E+02  0.00000000000E+00 0. -1.
         11    1    1    2    0    0  0.14453857197E+03  0.11948587584E+02 -0.39231522927E+03  0.41826475664E+03  0.00000000000E+00 0.  1.
</event>
<event>
 7    1  0.2384639E-009  0.1712299E+03  0.7561462E-02  0.1176571E+00
         -1   -1    0    0    0  501 -0.00000000000E+00  0.00000000000E+00  0.80116466692E+02  0.80116466692E+02  0.00000000000E+00 0.  1.
          1   -1    0    0  501    0  0.00000000000E+00 -0.00000000000E+00 -0.59141817446E+03  0.59141817446E+03  0.00000000000E+00 0. -1.
         25    2    1    2    0    0  0.15491904734E+03 -0.38994823999E+02 -0.40261232142E+03  0.45084917580E+03  0.12509112850E+03 0.  0.
          5    1    3    3  502    0  0.13092101493E+03 -0.33226537046E+02 -0.40377546740E+03  0.42578916777E+03  0.41800000000E+01 0.  1.
         -5    1    3    3    0  502  0.23998032410E+02 -0.57682869532E+01  0.11631459784E+01  0.25060008031E+02  0.41800000000E+01 0.  1.
        -11    1    1    2    0    0 -0.12139312113E+03 -0.11222109323E+02 -0.10378840526E+03  0.16010702252E+03  0.00000000000E+00 0.  1.
         11    1    1    2    0    0 -0.33525926210E+02  0.50216933322E+02 -0.49009810863E+01  0.60578442834E+02  0.00000000000E+00 0. -1.
</event>
<event>
 7    1  0.2384639E-009  0.1654233E+03  0.7561462E-02  0.1182706E+00
          1   -1    0    0  501    0  0.00000000000E+00  0.00000000000E+00  0.69530579665E+03  0.69530579665E+03  0.00000000000E+00 0. -1.
         -1   -1    0    0    0  501 -0.00000000000E+00 -0.00000000000E+00 -0.48289421224E+02  0.48289421224E+02  0.00000000000E+00 0.  1.
         25    2    1    2    0    0 -0.95824655181E+02  0.10951562579E+03  0.29358580870E+03  0.35073616975E+03  0.12508875596E+03 0.  0.
          5    1    3    3  502    0 -0.12396393962E+02  0.61686301429E+02  0.29427591045E+02  0.69586822617E+02  0.41800000000E+01 0.  1.
         -5    1    3    3    0  502 -0.83428261220E+02  0.47829324360E+02  0.26415821765E+03  0.28114934713E+03  0.41800000000E+01 0.  1.
        -11    1    1    2    0    0  0.10965253648E+03 -0.11280573849E+03  0.32323530927E+03  0.35948557489E+03  0.00000000000E+00 0. -1.
         11    1    1    2    0    0 -0.13827881301E+02  0.32901127059E+01  0.30195257454E+02  0.33373473232E+02  0.00000000000E+00 0.  1.
</event>
<event>
 7    1  0.2384639E-009  0.9638010E+02  0.7561462E-02  0.1288098E+00
         -1   -1    0    0    0  501 -0.00000000000E+00  0.00000000000E+00  0.68545795032E+02  0.68545795032E+02  0.00000000000E+00 0.  1.
          1   -1    0    0  501    0  0.00000000000E+00 -0.00000000000E+00 -0.20590434317E+03  0.20590434317E+03  0.00000000000E+00 0. -1.
         25    2    1    2    0    0 -0.28675472673E+02  0.44294045113E+02 -0.81200832171E+02  0.15819392638E+03  0.12508995976E+03 0.  0.
          5    1    3    3  502    0 -0.54598830678E+02  0.33642515893E+02 -0.10370784523E+03  0.12200672420E+03  0.41800000000E+01 0.  1.
         -5    1    3    3    0  502  0.25923358004E+02  0.10651529220E+02  0.22507013061E+02  0.36187202184E+02  0.41800000000E+01 0.  1.
        -11    1    1    2    0    0 -0.27702399772E+02  0.11755880530E+01 -0.25273833570E+02  0.37517617511E+02  0.00000000000E+00 0.  1.
         11    1    1    2    0    0  0.56377872445E+02 -0.45469633166E+02 -0.30883882397E+02  0.78738594308E+02  0.00000000000E+00 0. -1.
</event>
<event>
 7    1  0.2384639E-009  0.1185940E+03  0.7561462E-02  0.1245435E+00
          1   -1    0    0  501    0  0.00000000000E+00  0.00000000000E+00  0.54249445293E+02  0.54249445293E+02  0.00000000000E+00 0. -1.
         -1   -1    0    0    0  501 -0.00000000000E+00 -0.00000000000E+00 -0.38423699710E+03  0.38423699710E+03  0.00000000000E+00 0.  1.
         25    2    1    2    0    0  0.70712995156E+02 -0.55402049771E+02 -0.13118138572E+03  0.20230069005E+03  0.12508916192E+03 0.  0.
          5    1    3    3  502    0 -0.16242985528E+01  0.31093735831E+02 -0.63178742507E+02  0.70558377664E+02  0.41800000000E+01 0. -1.
         -5    1    3    3    0  502  0.72337293709E+02 -0.86495785602E+02 -0.68002643213E+02  0.13174231238E+03  0.41800000000E+01 0. -1.
        -11    1    1    2    0    0 -0.11663835881E+02  0.22493128567E+02 -0.15167639242E+03  0.15377813212E+03  0.00000000000E+00 0.  1.
         11    1    1    2    0    0 -0.59049159275E+02  0.32908921205E+02 -0.47129773670E+02  0.82407620231E+02  0.00000000000E+00 0. -1.
</event>
<event>
 7    1  0.2384639E-009  0.1182469E+03  0.7561462E-02  0.1246018E+00
         -2   -1    0    0    0  501 -0.00000000000E+00  0.00000000000E+00  0.51574546219E+02  0.51574546219E+02  0.00000000000E+00 0.  1.
          2   -1    0    0  501    0  0.00000000000E+00 -0.00000000000E+00 -0.30298888606E+03  0.30298888606E+03  0.00000000000E+00 0. -1.
         25    2    1    2    0    0 -0.46488239368E+02  0.38611527851E+02 -0.11788419491E+03  0.18219896859E+03  0.12509106388E+03 0.  0.
          5    1    3    3  502    0 -0.84266562814E+02  0.51269814333E+02 -0.80156624119E+02  0.12716919541E+03  0.41800000000E+01 0.  1.
         -5    1    3    3    0  502  0.37778323445E+02 -0.12658286482E+02 -0.37727570794E+02  0.55029773187E+02  0.41800000000E+01 0.  1.
        -11    1    1    2    0    0  0.63205045687E+02 -0.91937617726E+01 -0.46546046884E+02  0.79031244052E+02  0.00000000000E+00 0.  1.
         11    1    1    2    0    0 -0.16716806319E+02 -0.29417766078E+02 -0.86984098046E+02  0.93333219635E+02  0.00000000000E+00 0. -1.
</event>
<event>
 7    1  0.2384639E-009  0.7466642E+02  0.7561462E-02  0.1344907E+00
         -1   -1    0    0    0  501 -0.00000000000E+00  0.00000000000E+00  0.53281570909E+03  0.53281570909E+03  0.00000000000E+00 0.  1.
          1   -1    0    0  501    0  0.00000000000E+00 -0.00000000000E+00 -0.23196413390E+02  0.23196413390E+02  0.00000000000E+00 0. -1.
         25    2    1    2    0    0 -0.10311277835E+02 -0.23967004760E+02  0.30730491504E+03  0.33281237185E+03  0.12508806609E+03 0.  0.
          5    1    3    3  502    0 -0.69305968019E+01 -0.42092842317E+02  0.24491005718E+02  0.49367218956E+02  0.41800000000E+01 0. -1.
         -5    1    3    3    0  502 -0.33806810330E+01  0.18125837558E+02  0.28281390933E+03  0.28344515290E+03  0.41800000000E+01 0. -1.
        -11    1    1    2    0    0  0.81548318549E+01 -0.31253593026E+02  0.11837085849E+03  0.12269860838E+03  0.00000000000E+00 0.  1.
         11    1    1    2    0    0  0.21564459800E+01  0.55220597786E+02  0.83943522172E+02  0.10050114225E+03  0.00000000000E+00 0. -1.
</event>
<event>
 7    1  0.2384639E-009  0.1103514E+03  0.7561462E-02  0.1259920E+00
         -1   -1    0    0    0  501 -0.00000000000E+00  0.00000000000E+00  0.65965515647E+02  0.65965515647E+02  0.00000000000E+00 0.  1.
          1   -1    0    0  501    0  0.00000000000E+00 -0.00000000000E+00 -0.28135045222E+03  0.28135045222E+03  0.00000000000E+00 0. -1.
         25    2    1    2    0    0 -0.27163037551E+02  0.51106813454E+02 -0.43181333719E+02  0.14443677577E+03  0.12509043777E+03 0.  0.
          5    1    3    3  502    0 -0.74029949512E+02  0.46850186854E+02 -0.41828376438E+02  0.97172315545E+02  0.41800000000E+01 0.  1.
         -5    1    3    3    0  502  0.46866911961E+02  0.42566265992E+01 -0.13529572802E+01  0.47264460223E+02  0.41800000000E+01 0.  1.
        -11    1    1    2    0    0  0.24420512913E+02  0.86664926849E+01 -0.65179907824E+01  0.26719912991E+02  0.00000000000E+00 0.  1.
         11    1    1    2    0    0  0.27425246375E+01 -0.59773306139E+02 -0.16568561207E+03  0.17615927910E+03  0.00000000000E+00 0. -1.
</event>
<event>
 7    1  0.2384639E-009  0.8172712E+02  0.7561462E-02  0.1324220E+00
         -2   -1    0    0    0  501 -0.00000000000E+00  0.00000000000E+00  0.79310562203E+02  0.79310562203E+02  0.00000000000E+00 0. -1.
          2   -1    0    0  501    0  0.00000000000E+00 -0.00000000000E+00 -0.16626403698E+03  0.16626403698E+03  0.00000000000E+00 0.  1.
         25    2    1    2    0    0  0.29147343936E+02 -0.20402193930E+02 -0.36003174751E+02  0.13494003216E+03  0.12508703574E+03 0.  0.
          5    1    3    3  502    0  0.70109912302E+02 -0.13426372055E+02  0.10684151836E+02  0.72300005325E+02  0.41800000000E+01 0. -1.
         -5    1    3    3    0  502 -0.40962568366E+02 -0.69758218756E+01 -0.46687326587E+02  0.62640026834E+02  0.41800000000E+01 0. -1.
        -11    1    1    2    0    0 -0.46120024745E+01  0.24829685469E+02 -0.73066135027E+02  0.77307463644E+02  0.00000000000E+00 0.  1.
         11    1    1    2    0    0 -0.24535341462E+02 -0.44274915382E+01  0.22115835001E+02  0.33327103381E+02  0.00000000000E+00 0. -1.
</event>
<event>
 7    1  0.2384639E-009  0.1645250E+03  0.7561462E-02  0.1183681E+00
          1   -1    0    0  501    0  0.00000000000E+00  0.00000000000E+00  0.15744738805E+03  0.15744738805E+03  0.00000000000E+00 0. -1.
         -1   -1    0    0    0  501 -0.00000000000E+00 -0.00000000000E+00 -0.20453410618E+03  0.20453410618E+03  0.00000000000E+00 0.  1.
         25    2    1    2    0    0  0.10624554977E+03 -0.81434713758E+02  0.14136579310E+02  0.18375954639E+03  0.12509196043E+03 0.  0.
          5    1    3    3  502    0  0.24516720699E+02  0.32309842792E+02  0.15522382187E+02  0.43628113458E+02  0.41800000000E+01 0. -1.
         -5    1    3    3    0  502  0.81728829068E+02 -0.11374455655E+03 -0.13858028777E+01  0.14013143293E+03  0.41800000000E+01 0. -1.
        -11    1    1    2    0    0  0.76387946668E+01  0.13592242813E+02  0.17982848703E+02  0.23800905364E+02  0.00000000000E+00 0. -1.
         11    1    1    2    0    0 -0.11388434443E+03  0.67842470945E+02 -0.79206146146E+02  0.15442104247E+03  0.00000000000E+00 0.  1.
</event>
<event>
 7    1  0.2384639E-009  0.2141296E+03  0.7561462E-02  0.1138337E+00
         -1   -1    0    0    0  501 -0.00000000000E+00  0.00000000000E+00  0.16929763718E+03  0.16929763718E+03  0.00000000000E+00 0.  1.
          1   -1    0    0  501    0  0.00000000000E+00 -0.00000000000E+00 -0.44479625456E+03  0.44479625456E+03  0.00000000000E+00 0. -1.
         25    2    1    2    0    0  0.15150884149E+03  0.11859916541E+03 -0.32273945523E+03  0.39601913022E+03  0.12509877878E+03 0.  0.
          5    1    3    3  502    0  0.10406276434E+03  0.12991983183E+03 -0.18041622119E+03  0.24551111358E+03  0.41800000000E+01 0.  1.
         -5    1    3    3    0  502  0.47446077145E+02 -0.11320666412E+02 -0.14232323404E+03  0.15050801663E+03  0.41800000000E+01 0.  1.
        -11    1    1    2    0    0 -0.12324786044E+03 -0.40491558466E+02  0.25464157199E+02  0.13220448068E+03  0.00000000000E+00 0.  1.
         11    1    1    2    0    0 -0.28260981052E+02 -0.78107606948E+02  0.21776680638E+02  0.85870280847E+02  0.00000000000E+00 0. -1.
</event>
<event>
 7    1  0.2384639E-009  0.1048886E+03  0.7561462E-02  0.1270339E+00
         -1   -1    0    0    0  501 -0.00000000000E+00  0.00000000000E+00  0.85885396301E+02  0.85885396301E+02  0.00000000000E+00 0.  1.
          1   -1    0    0  501    0  0.00000000000E+00 -0.00000000000E+00 -0.15632006587E+03  0.15632006587E+03  0.00000000000E+00 0. -1.
         25    2    1    2    0    0 -0.20806121279E+02 -0.23445377745E+02 -0.60136696373E+02  0.14228745650E+03  0.12508684027E+03 0.  0.
          5    1    3    3  502    0 -0.63471415693E+02 -0.38768957274E+02 -0.61712166609E+02  0.96734257457E+02  0.41800000000E+01 0. -1.
         -5    1    3    3    0  502  0.42665294414E+02  0.15323579530E+02  0.15754702355E+01  0.45553199048E+02  0.41800000000E+01 0. -1.
        -11    1    1    2    0    0  0.37159902975E+02  0.47724645870E+02 -0.26974387655E+02  0.66227772134E+02  0.00000000000E+00 0. -1.
         11    1    1    2    0    0 -0.16353781696E+02 -0.24279268125E+02  0.16676414457E+02  0.33690233534E+02  0.00000000000E+00 0.  1.
</event>
<event>
 7    1  0.2384639E-009  0.1348764E+03  0.7561462E-02  0.1220394E+00
         -2   -1    0    0    0  501 -0.00000000000E+00  0.00000000000E+00  0.60742491167E+02  0.60742491167E+02  0.00000000000E+00 0.  1.
          2   -1    0    0  501    0  0.00000000000E+00 -0.00000000000E+00 -0.43076304572E+03  0.43076304572E+03  0.00000000000E+00 0. -1.
         25    2    1    2    0    0 -0.37339925455E+02 -0.84179402675E+02 -0.81118068853E+02  0.17523782483E+03  0.12509081617E+03 0.  0.
          5    1    3    3  502    0  0.37063781023E+02 -0.15268137404E+02  0.69010866433E+01  0.40889329664E+02  0.41800000000E+01 0. -1.
         -5    1    3    3    0  502 -0.74403706479E+02 -0.68911265272E+02 -0.88019155497E+02  0.13434849517E+03  0.41800000000E+01 0. -1.
        -11    1    1    2    0    0  0.83786518734E+01  0.96221427283E+02 -0.23181464438E+03  0.25113102999E+03  0.00000000000E+00 0. -1.
         11    1    1    2    0    0  0.28961273582E+02 -0.12042024607E+02 -0.57087841323E+02  0.65136682070E+02  0.00000000000E+00 0.  1.
</event>
<event>
 7    1  0.2384639E-009  0.1403038E+03  0.7561462E-02  0.1212921E+00
          1   -1    0    0  501    0  0.00000000000E+00  0.00000000000E+00  0.20473965443E+03  0.20473965443E+03  0.00000000000E+00 0. -1.
         -1   -1    0    0    0  501 -0.00000000000E+00 -0.00000000000E+00 -0.15226441220E+03  0.15226441220E+03  0.00000000000E+00 0.  1.
         25    2    1    2    0    0 -0.10606934646E+03  0.77772025348E+02  0.72239018963E+02  0.19535808651E+03  0.12508841640E+03 0.  0.
          5    1    3    3  502    0 -0.36951230741E+02  0.70484542084E+01 -0.33483840837E+02  0.50534286947E+02  0.41800000000E+01 0.  1.
         -5    1    3    3    0  502 -0.69118115718E+02  0.70723571139E+02  0.10572285980E+03  0.14482379956E+03  0.41800000000E+01 0.  1.
        -11    1    1    2    0    0  0.69468615423E+02 -0.14926584072E+02 -0.45644217190E+02  0.84451678513E+02  0.00000000000E+00 0.  1.
         11    1    1    2    0    0  0.36600731036E+02 -0.62845441276E+02  0.25880440459E+02  0.77194301602E+02  0.00000000000E+00 0. -1.
</event>
<event>
 7    1  0.2384639E-009  0.1056189E+03  0.7561462E-02  0.1268905E+00
          1   -1    0    0  501    0  0.00000000000E+00  0.00000000000E+00  0.81240528088E+02  0.81240528088E+02  0.00000000000E+00 0. -1.
         -1   -1    0    0    0  501 -0.00000000000E+00 -0.00000000000E+00 -0.33580578500E+03  0.33580578500E+03  0.00000000000E+00 0.  1.
         25    2    1    2    0    0 -0.23626633337E+02  0.20163892452E+02  0.15997800279E+02  0.12986645554E+03  0.12507824071E+03 0.  0.
          5    1    3    3  502    0 -0.56092046872E+02  0.53037438351E+02  0.27527169859E+02  0.82064030303E+02  0.41800000000E+01 0.  1.
         -5    1    3    3    0  502  0.32465413535E+02 -0.32873545899E+02 -0.11529369580E+02  0.47802425241E+02  0.41800000000E+01 0.  1.
        -11    1    1    2    0    0 -0.28766670517E+02  0.53528535360E+01 -0.41227216352E+02  0.50555491707E+02  0.00000000000E+00 0. -1.
         11    1    1    2    0    0  0.52393303854E+02 -0.25516745988E+02 -0.22933584084E+03  0.23662436584E+03  0.00000000000E+00 0.  1.
</event>
<event>
 7    1  0.2384639E-009  0.9637111E+02  0.7561462E-02  0.1288118E+00
          1   -1    0    0  501    0  0.00000000000E+00  0.00000000000E+00  0.45568259707E+03  0.45568259707E+03  0.00000000000E+00 0. -1.
         -1   -1    0    0    0  501 -0.00000000000E+00 -0.00000000000E+00 -0.37197826465E+02  0.37197826465E+02  0.00000000000E+00 0.  1.
         25    2    1    2    0    0  0.60042969714E+02  0.31606523077E+02  0.26124455317E+03  0.29749098670E+03  0.12509212643E+03 0.  0.
          5    1    3    3  502    0  0.22395528809E+01  0.21186884901E+02 -0.70372964380E+01  0.22823138042E+02  0.41800000000E+01 0.  1.
         -5    1    3    3    0  502  0.57803416833E+02  0.10419638176E+02  0.26828184961E+03  0.27466784866E+03  0.41800000000E+01 0.  1.
        -11    1    1    2    0    0 -0.35541619058E+01  0.29046672631E+02  0.65575166603E+02  0.71808382051E+02  0.00000000000E+00 0. -1.
         11    1    1    2    0    0 -0.56488807808E+02 -0.60653195708E+02  0.91665050830E+02  0.12358105478E+03  0.00000000000E+00 0.  1.
</event>
<event>
 7    1  0.2384639E-009  0.1729245E+03  0.7561462E-02  0.1174832E+00
         -2   -1    0    0    0  501 -0.00000000000E+00  0.00000000000E+00  0.31347338866E+02  0.31347338866E+02  0.00000000000E+00 0.  1.
          2   -1    0    0  501    0  0.00000000000E+00 -0.00000000000E+00 -0.10722799904E+04  0.10722799904E+04  0.00000000000E+00 0. -1.
         25    2    1    2    0    0 -0.29607685835E+02 -0.13972965106E+03 -0.66509011729E+03  0.69165992626E+03  0.12509036345E+03 0.  0.
          5    1    3    3  502    0 -0.39434876269E+02  0.16476452454E+01 -0.75898583191E+02  0.85649819215E+02  0.41800000000E+01 0.  1.
         -5    1    3    3    0  502  0.98271904342E+01 -0.14137729630E+03 -0.58919153410E+03  0.60601010704E+03  0.41800000000E+01 0.  1.
        -11    1    1    2    0    0  0.53654041159E+02  0.12537660020E+03 -0.34104623574E+03  0.36730176003E+03  0.00000000000E+00 0. -1.
         11    1    1    2    0    0 -0.24046355324E+02  0.14353050857E+02 -0.34796298519E+02  0.44665642992E+02  0.00000000000E+00 0.  1.
</event>
<event>
 7    1  0.2384639E-009  0.9131452E+02  0.7561462E-02  0.1299699E+00
         -2   -1    0    0    0  501 -0.00000000000E+00  0.00000000000E+00  0.19375210993E+03  0.19375210993E+03  0.00000000000E+00 0.  1.
          2   -1    0    0  501    0  0.00000000000E+00 -0.00000000000E+00 -0.10589883376E+03  0.10589883376E+03  0.00000000000E+00 0. -1.
         25    2    1    2    0    0  0.43557323810E+01  0.73481534748E+02  0.10799911680E+03  0.18091423675E+03  0.12509054111E+03 0.  0.
          5    1    3    3  502    0  0.29297432404E+02  0.76060785494E+02  0.12574686968E+03  0.14991107454E+03  0.41800000000E+01 0.  1.
         -5    1    3    3    0  502 -0.24941700023E+02 -0.25792507455E+01 -0.17747752882E+02  0.31003162206E+02  0.41800000000E+01 0.  1.
        -11    1    1    2    0    0  0.63788973623E+01 -0.37703720095E+02  0.35194069671E+02  0.51970023866E+02  0.00000000000E+00 0.  1.
         11    1    1    2    0    0 -0.10734629743E+02 -0.35777814653E+02 -0.55339910298E+02  0.66766683075E+02  0.00000000000E+00 0. -1.
</event>
<event>
 7    1  0.2384639E-009  0.9031372E+02  0.7561462E-02  0.1302094E+00
         -2   -1    0    0    0  501 -0.00000000000E+00  0.00000000000E+00  0.69289420509E+02  0.69289420509E+02  0.00000000000E+00 0.  1.
          2   -1    0    0  501    0  0.00000000000E+00 -0.00000000000E+00 -0.24177025237E+03  0.24177025237E+03  0.00000000000E+00 0. -1.
         25    2    1    2    0    0 -0.64359561860E+01  0.70275513568E+02 -0.97381134878E+02  0.17352210516E+03  0.12508703454E+03 0.  0.
          5    1    3    3  502    0  0.98837627372E+01  0.14501608012E+02  0.29116212135E+02  0.34252176717E+02  0.41800000000E+01 0.  1.
         -5    1    3    3    0  502 -0.16319718923E+02  0.55773905556E+02 -0.12649734701E+03  0.13926992844E+03  0.41800000000E+01 0.  1.
        -11    1    1    2    0    0  0.72975743947E+01 -0.87136414101E+02 -0.35286914436E+02  0.94293030414E+02  0.00000000000E+00 0.  1.
         11    1    1    2    0    0 -0.86161820874E+00  0.16860900533E+02 -0.39812782542E+02  0.43244537302E+02  0.00000000000E+00 0. -1.
</event>
<event>
 7    1  0.2384639E-009  0.1260375E+03  0.7561462E-02  0.1233457E+00
          2   -1    0    0  501    0  0.00000000000E+00  0.00000000000E+00  0.48380426677E+02  0.48380426677E+02  0.00000000000E+00 0. -1.
         -2   -1    0    0    0  501 -0.00000000000E+00 -0.00000000000E+00 -0.49287614925E+03  0.49287614925E+03  0.00000000000E+00 0.  1.
         25    2    1    2    0    0 -0.10224051685E+03  0.13327727153E+02 -0.17556297183E+03  0.23895755532E+03  0.12509038559E+03 0.  0.
          5    1    3    3  502    0 -0.35385303671E+02  0.34668679478E+02  0.13682473051E+00  0.49714466442E+02  0.41800000000E+01 0. -1.
         -5    1    3    3    0  502 -0.66855213183E+02 -0.21340952325E+02 -0.17569979656E+03  0.18924308887E+03  0.41800000000E+01 0. -1.
        -11    1    1    2    0    0  0.10534449718E+03  0.12464402717E+02 -0.24499136756E+03  0.26697114938E+03  0.00000000000E+00 0.  1.
         11    1    1    2    0    0 -0.31039803295E+01 -0.25792129870E+02 -0.23941383189E+02  0.35327871237E+02  0.00000000000E+00 0. -1.
</event>
<event>
 7    1  0.2384639E-009  0.8818123E+02  0.7561462E-02  0.1307317E+00
          3   -1    0    0  501    0  0.00000000000E+00  0.00000000000E+00  0.15793656491E+03  0.15793656491E+03  0.00000000000E+00 0. -1.
         -3   -1    0    0    0  501 -0.00000000000E+00 -0.00000000000E+00 -0.84527229016E+02  0.84527229016E+02  0.00000000000E+00 0.  1.
         25    2    1    2    0    0 -0.15006627448E+02  0.21996368185E+02  0.69991185062E+02  0.14579314885E+03  0.12509131538E+03 0.  0.
          5    1    3    3  502    0  0.17371151063E+01 -0.51300420297E+02  0.37883338042E+02  0.63932545646E+02  0.41800000000E+01 0. -1.
         -5    1    3    3    0  502 -0.16743742554E+02  0.73296788482E+02  0.32107847019E+02  0.81860603203E+02  0.41800000000E+01 0. -1.
        -11    1    1    2    0    0  0.28585297108E+01  0.12586603808E+02  0.41710877490E+02  0.43662238703E+02  0.00000000000E+00 0. -1.
         11    1    1    2    0    0  0.12148097737E+02 -0.34582971993E+02 -0.38292726663E+02  0.53008406369E+02  0.00000000000E+00 0.  1.
</event>
<event>
 7    1  0.2384639E-009  0.1594608E+03  0.7561462E-02  0.1189307E+00
         -2   -1    0    0    0  501 -0.00000000000E+00  0.00000000000E+00  0.59094179732E+02  0.59094179732E+02  0.00000000000E+00 0.  1.
          2   -1    0    0  501    0  0.00000000000E+00 -0.00000000000E+00 -0.58866357261E+03  0.58866357261E+03  0.00000000000E+00 0. -1.
         25    2    1    2    0    0 -0.31481855767E+02  0.14080690443E+03 -0.19604693962E+03  0.27367846819E+03  0.12509120607E+03 0.  0.
          5    1    3    3  502    0 -0.49627017643E+02  0.12410910434E+03 -0.81881419555E+02  0.15680545249E+03  0.41800000000E+01 0. -1.
         -5    1    3    3    0  502  0.18145161875E+02  0.16697800088E+02 -0.11416552007E+03  0.11687301570E+03  0.41800000000E+01 0. -1.
        -11    1    1    2    0    0  0.18812456839E+02 -0.61913390702E-02 -0.94710613958E+02  0.96560908068E+02  0.00000000000E+00 0. -1.
         11    1    1    2    0    0  0.12669398928E+02 -0.14080071309E+03 -0.23881183930E+03  0.27751837609E+03  0.00000000000E+00 0.  1.
</event>
<event>
 7    1  0.2384639E-009  0.1060802E+03  0.7561462E-02  0.1268006E+00
         -2   -1    0    0    0  501 -0.00000000000E+00  0.00000000000E+00  0.32033592963E+02  0.32033592963E+02  0.00000000000E+00 0.  1.
          2   -1    0    0  501    0  0.00000000000E+00 -0.00000000000E+00 -0.57418260034E+03  0.57418260034E+03  0.00000000000E+00 0. -1.
         25    2    1    2    0    0 -0.11345457381E+02  0.77539564774E+02 -0.34587624310E+03  0.37605754396E+03  0.12509115606E+03 0.  0.
          5    1    3    3  502    0 -0.29239636451E+02  0.58264107857E+02 -0.34312155303E+03  0.34928431851E+03  0.41800000000E+01 0.  1.
         -5    1    3    3    0  502  0.17894179070E+02  0.19275456918E+02 -0.27546900735E+01  0.26773225457E+02  0.41800000000E+01 0.  1.
        -11    1    1    2    0    0 -0.15683966999E+02  0.16258940451E+02 -0.37427236522E+02  0.43716564356E+02  0.00000000000E+00 0. -1.
         11    1    1    2    0    0  0.27029424380E+02 -0.93798505226E+02 -0.15884552776E+03  0.18644208499E+03  0.00000000000E+00 0.  1.
</event>
<event>
 7    1  0.2384639E-009  0.9992262E+02  0.7561462E-02  0.1280459E+00
          2   -1    0    0  501    0  0.00000000000E+00  0.00000000000E+00  0.40869523563E+03  0.40869523563E+03  0.00000000000E+00 0. -1.
         -2   -1    0    0    0  501 -0.00000000000E+00 -0.00000000000E+00 -0.69896977798E+02  0.69896977798E+02  0.00000000000E+00 0.  1.
         25    2    1    2    0    0 -0.11710730021E+02  0.53949972809E+02  0.34558443813E+03  0.37165021980E+03  0.12509013242E+03 0.  0.
          5    1    3    3  502    0 -0.63628579763E+02  0.54997515130E+02  0.22751623942E+03  0.24259932900E+03  0.41800000000E+01 0. -1.
         -5    1    3    3    0  502  0.51917849741E+02 -0.10475423209E+01  0.11806819872E+03  0.12905089080E+03  0.41800000000E+01 0. -1.
        -11    1    1    2    0    0  0.20776670668E+02 -0.21702772742E+02 -0.46266510321E+02  0.55165844197E+02  0.00000000000E+00 0.  1.
         11    1    1    2    0    0 -0.90659406470E+01 -0.32247200067E+02  0.39480330019E+02  0.51776149436E+02  0.00000000000E+00 0. -1.
</event>
<event>
 7    1  0.2384639E-009  0.1633146E+03  0.7561462E-02  0.1185005E+00
         -1   -1    0    0    0  501 -0.00000000000E+00  0.00000000000E+00  0.46366037706E+02  0.46366037706E+02  0.00000000000E+00 0.  1.
          1   -1    0    0  501    0  0.00000000000E+00 -0.00000000000E+00 -0.68450042549E+03  0.68450042549E+03  0.00000000000E+00 0. -1.
         25    2    1    2    0    0 -0.13830383429E+03  0.92824125736E+01 -0.43008939525E+03  0.46886880935E+03  0.12508780401E+03 0.  0.
          5    1    3    3  502    0  0.23510121496E+02 -0.43389329934E+01 -0.55314639081E+02  0.60404750218E+02  0.41800000000E+01 0. -1.
         -5    1    3    3    0  502 -0.16181395578E+03  0.13621345567E+02 -0.37477475617E+03  0.40846405914E+03  0.41800000000E+01 0. -1.
        -11    1    1    2    0    0  0.78747604729E+02  0.41871230745E+01 -0.17639966279E+03  0.19322411413E+03  0.00000000000E+00 0. -1.
         11    1    1    2    0    0  0.59556229557E+02 -0.13469535648E+02 -0.31645329739E+02  0.68773539708E+02  0.00000000000E+00 0.  1.
</event>
<event>
 7    1  0.2384639E-009  0.7836473E+02  0.7561462E-02  0.1333757E+00
         -2   -1    0    0    0  501 -0.00000000000E+00  0.00000000000E+00  0.40195466277E+03  0.40195466277E+03  0.00000000000E+00 0.  1.
          2   -1    0    0  501    0  0.00000000000E+00 -0.00000000000E+00 -0.68188535649E+02  0.68188535649E+02  0.00000000000E+00 0. -1.
         25    2    1    2    0    0 -0.42123215791E+02  0.14368924397E+01  0.34828293884E+03  0.37245817540E+03  0.12509059504E+03 0.  0.
          5    1    3    3  502    0  0.35209303430E+01 -0.25381803827E+02  0.67572346459E+01  0.26828446397E+02  0.41800000000E+01 0.  1.
         -5    1    3    3    0  502 -0.45644146134E+02  0.26818696267E+02  0.34152570419E+03  0.34562972900E+03  0.41800000000E+01 0.  1.
        -11    1    1    2    0    0  0.59502237045E+02  0.34684677886E+01 -0.35991378596E+02  0.69627048016E+02  0.00000000000E+00 0. -1.
         11    1    1    2    0    0 -0.17379021254E+02 -0.49053602283E+01  0.21474566879E+02  0.28057975005E+02  0.00000000000E+00 0.  1.
</event>
<event>
 7    1  0.2384639E-009  0.1842084E+03  0.7561462E-02  0.1163791E+00
         -2   -1    0    0    0  501 -0.00000000000E+00  0.00000000000E+00  0.13351968700E+03  0.13351968700E+03  0.00000000000E+00 0.  1.
          2   -1    0    0  501    0  0.00000000000E+00 -0.00000000000E+00 -0.32468559794E+03  0.32468559794E+03  0.00000000000E+00 0. -1.
         25    2    1    2    0    0  0.74975649074E+02  0.16026509227E+03 -0.93435499332E+02  0.23597558544E+03  0.12509211260E+03 0.  0.
          5    1    3    3  502    0  0.34955014863E+02  0.94420384334E+02  0.16038699697E+02  0.10203810234E+03  0.41800000000E+01 0. -1.
         -5    1    3    3    0  502  0.40020634211E+02  0.65844707940E+02 -0.10947419903E+03  0.13393748310E+03  0.41800000000E+01 0. -1.
        -11    1    1    2    0    0 -0.20283706553E+02 -0.12213777559E+03 -0.94007580798E+02  0.15545575005E+03  0.00000000000E+00 0. -1.
         11    1    1    2    0    0 -0.54691942521E+02 -0.38127316684E+02 -0.37228308079E+01  0.66773949438E+02  0.00000000000E+00 0.  1.
</event>
<event>
 7    1  0.2384639E-009  0.1259598E+03  0.7561462E-02  0.1233577E+00
         -1   -1    0    0    0  501 -0.00000000000E+00  0.00000000000E+00  0.79124314683E+02  0.79124314683E+02  0.00000000000E+00 0.  1.
          1   -1    0    0  501    0  0.00000000000E+00 -0.00000000000E+00 -0.28814683692E+03  0.28814683692E+03  0.00000000000E+00 0. -1.
         25    2    1    2    0    0  0.58784644096E+02 -0.79315731744E+02 -0.72283572890E+02  0.17498236436E+03  0.12508914119E+03 0.  0.
          5    1    3    3  502    0  0.97199575957E+01  0.22809679639E+02 -0.54762596662E+02  0.60259218831E+02  0.41800000000E+01 0.  1.
         -5    1    3    3    0  502  0.49064686500E+02 -0.10212541138E+03 -0.17520976228E+02  0.11472314553E+03  0.41800000000E+01 0.  1.
        -11    1    1    2    0    0 -0.11798955420E+02 -0.79915793328E+01 -0.73097018733E+02  0.74473181998E+02  0.00000000000E+00 0. -1.
         11    1    1    2    0    0 -0.46985688676E+02  0.87307311077E+02 -0.63641930617E+02  0.11781560525E+03  0.00000000000E+00 0.  1.
</event>
<event>
 7    1  0.2384639E-009  0.1057397E+03  0.7561462E-02  0.1268669E+00
          2   -1    0    0  501    0  0.00000000000E+00  0.00000000000E+00  0.67705691595E+03  0.67705691595E+03  0.00000000000E+00 0. -1.
         -2   -1    0    0    0  501 -0.00000000000E+00 -0.00000000000E+00 -0.44436039808E+02  0.44436039808E+02  0.00000000000E+00 0.  1.
         25    2    1    2    0    0 -0.38418247521E+02  0.26856375215E+02  0.59929885928E+03  0.61400565630E+03  0.12508635659E+03 0.  0.
          5    1    3    3  502    0 -0.67171900105E+02  0.42065395573E+02  0.23109000947E+03  0.24433916294E+03  0.41800000000E+01 0. -1.
         -5    1    3    3    0  502  0.28753652584E+02 -0.15209020358E+02  0.36820884981E+03  0.36966649336E+03  0.41800000000E+01 0. -1.
        -11    1    1    2    0    0 -0.28223603817E+02 -0.13765853851E+02  0.22697457643E+02  0.38745904663E+02  0.00000000000E+00 0.  1.
         11    1    1    2    0    0  0.66641851338E+02 -0.13090521364E+02  0.10624559218E+02  0.68741394792E+02  0.00000000000E+00 0. -1.
</event>
<event>
 7    1  0.2384639E-009  0.1020179E+03  0.7561462E-02  0.1276109E+00
          2   -1    0    0  501    0  0.00000000000E+00  0.00000000000E+00  0.98876600929E+03  0.98876600929E+03  0.00000000000E+00 0. -1.
         -2   -1    0    0    0  501 -0.00000000000E+00 -0.00000000000E+00 -0.12665159758E+02  0.12665159758E+02  0.00000000000E+00 0.  1.
         25    2    1    2    0    0  0.25224918247E+02  0.12453535792E+02  0.51548447837E+03  0.53118864543E+03  0.12508294266E+03 0.  0.
          5    1    3    3  502    0  0.64849399501E+02  0.21987404983E+02  0.43987895504E+03  0.44519642640E+03  0.41800000000E+01 0. -1.
         -5    1    3    3    0  502 -0.39624481254E+02 -0.95338691902E+01  0.75605523328E+02  0.85992219032E+02  0.41800000000E+01 0. -1.
        -11    1    1    2    0    0 -0.33473086625E+02 -0.47695601624E+02  0.29863375171E+03  0.30426540323E+03  0.00000000000E+00 0. -1.
         11    1    1    2    0    0  0.82481683782E+01  0.35242065831E+02  0.16198261945E+03  0.16597712038E+03  0.00000000000E+00 0.  1.
</event>
<event>
 7    1  0.2384639E-009  0.1271370E+03  0.7561462E-02  0.1231767E+00
          1   -1    0    0  501    0  0.00000000000E+00  0.00000000000E+00  0.38627088244E+02  0.38627088244E+02  0.00000000000E+00 0. -1.
         -1   -1    0    0    0  501 -0.00000000000E+00 -0.00000000000E+00 -0.62288903372E+03  0.62288903372E+03  0.00000000000E+00 0.  1.
         25    2    1    2    0    0 -0.29023837450E+02  0.63166846723E+02 -0.49941724691E+03  0.51951674377E+03  0.12509047478E+03 0.  0.
          5    1    3    3  502    0 -0.36723772315E+02 -0.30566777045E+02 -0.14063068464E+03  0.14858474072E+03  0.41800000000E+01 0. -1.
         -5    1    3    3    0  502  0.76999348646E+01  0.93733623768E+02 -0.35878656227E+03  0.37093200305E+03  0.41800000000E+01 0. -1.
        -11    1    1    2    0    0 -0.24736396206E+02 -0.51535711122E+02 -0.31009194334E+02  0.65033752401E+02  0.00000000000E+00 0.  1.
         11    1    1    2    0    0  0.53760233656E+02 -0.11631135601E+02 -0.53835504233E+02  0.76965625795E+02  0.00000000000E+00 0. -1.
</event>
<event>
 7    1  0.2384639E-009  0.2473188E+03  0.7561462E-02  0.1115011E+00
         -3   -1    0    0    0  501 -0.00000000000E+00  0.00000000000E+00  0.97869987426E+03  0.97869987426E+03  0.00000000000E+00 0.  1.
          3   -1    0    0  501    0  0.00000000000E+00 -0.00000000000E+00 -0.82070844356E+02  0.82070844356E+02  0.00000000000E+00 0. -1.
         25    2    1    2    0    0  0.23199931250E+03 -0.61093321916E+02  0.25536732212E+03  0.37204274090E+03  0.12508899577E+03 0.  0.
          5    1    3    3  502    0  0.81185731005E+02 -0.64137927660E+02  0.44411032231E+02  0.11267035487E+03  0.41800000000E+01 0. -1.
         -5    1    3    3    0  502  0.15081358149E+03  0.30446057440E+01  0.21095628989E+03  0.25937238602E+03  0.41800000000E+01 0. -1.
        -11    1    1    2    0    0 -0.93612105569E+02  0.18798690771E+02  0.16145397133E+03  0.18757399058E+03  0.00000000000E+00 0. -1.
         11    1    1    2    0    0 -0.13838720693E+03  0.42294631144E+02  0.47980773645E+03  0.50115398714E+03  0.00000000000E+00 0.  1.
</event>
<event>
 7    1  0.2384639E-009  0.1015256E+03  0.7561462E-02  0.1277120E+00
         -3   -1    0    0    0  501 -0.00000000000E+00  0.00000000000E+00  0.11614245063E+03  0.11614245063E+03  0.00000000000E+00 0.  1.
          3   -1    0    0  501    0  0.00000000000E+00 -0.00000000000E+00 -0.12851240865E+03  0.12851240865E+03  0.00000000000E+00 0. -1.
         25    2    1    2    0    0 -0.55560153127E+02 -0.73752180889E+01 -0.10220204313E+02  0.13744610483E+03  0.12508259151E+03 0.  0.
          5    1    3    3  502    0 -0.77715608151E+02  0.17566228417E+02 -0.42875467371E+02  0.90576300617E+02  0.41800000000E+01 0. -1.
         -5    1    3    3    0  502  0.22155455024E+02 -0.24941446506E+02  0.32655263058E+02  0.46869804208E+02  0.41800000000E+01 0. -1.
        -11    1    1    2    0    0  0.11006569071E+02  0.35357999222E+02 -0.30019423642E+02  0.47670729673E+02  0.00000000000E+00 0. -1.
         11    1    1    2    0    0  0.44553584056E+02 -0.27982781134E+02  0.27869669937E+02  0.59538024779E+02  0.00000000000E+00 0.  1.
</event>
<event>
 7    1  0.2384639E-009  0.6572102E+02  0.7561462E-02  0.1375280E+00
          3   -1    0    0  501    0  0.00000000000E+00  0.00000000000E+00  0.13222499603E+03  0.13222499603E+03  0.00000000000E+00 0. -1.
         -3   -1    0    0    0  501 -0.00000000000E+00 -0.00000000000E+00 -0.11049895823E+03  0.11049895823E+03  0.00000000000E+00 0.  1.
         25    2    1    2    0    0 -0.32547914473E+02 -0.43262644718E+02  0.70811613662E+01  0.13648886175E+03  0.12509213952E+03 0.  0.
          5    1    3    3  502    0 -0.10251484540E+02 -0.10916842547E+02  0.64746898942E+02  0.66587564222E+02  0.41800000000E+01 0. -1.
         -5    1    3    3    0  502 -0.22296429932E+02 -0.32345802172E+02 -0.57665737575E+02  0.69901297527E+02  0.41800000000E+01 0. -1.
        -11    1    1    2    0    0  0.58445386619E+01  0.48771654342E+02 -0.27307551416E+02  0.56200847536E+02  0.00000000000E+00 0.  1.
         11    1    1    2    0    0  0.26703375811E+02 -0.55090096237E+01  0.41952427851E+02  0.50034244966E+02  0.00000000000E+00 0. -1.
</event>
<event>
 7    1  0.2384639E-009  0.1192460E+03  0.7561462E-02  0.1244346E+00
          1   -1    0    0  501    0  0.00000000000E+00  0.00000000000E+00  0.46125211289E+03  0.46125211289E+03  0.00000000000E+00 0. -1.
         -1   -1    0    0    0  501 -0.00000000000E+00 -0.00000000000E+00 -0.56767852258E+02  0.56767852258E+02  0.00000000000E+00 0.  1.
         25    2    1    2    0    0  0.17379484160E+02 -0.83480686689E+02  0.35244568066E+03  0.38358555263E+03  0.12509535103E+03 0.  0.
          5    1    3    3  502    0  0.59929930131E+02 -0.51009514685E+02  0.29331419549E+03  0.30371739626E+03  0.41800000000E+01 0. -1.
         -5    1    3    3    0  502 -0.42550445971E+02 -0.32471172004E+02  0.59131485172E+02  0.79868156373E+02  0.41800000000E+01 0. -1.
        -11    1    1    2    0    0 -0.77490348841E+01  0.92485469026E+02  0.13603944096E+02  0.93801262345E+02  0.00000000000E+00 0.  1.
         11    1    1    2    0    0 -0.96304492758E+01 -0.90047823365E+01  0.38434635869E+02  0.40633150168E+02  0.00000000000E+00 0. -1.
</event>
<event>
 7    1  0.2384639E-009  0.1227967E+03  0.7561462E-02  0.1238553E+00
         -2   -1    0    0    0  501 -0.00000000000E+00  0.00000000000E+00  0.31941743701E+03  0.31941743701E+03  0.00000000000E+00 0.  1.
          2   -1    0    0  501    0  0.00000000000E+00 -0.00000000000E+00 -0.53676694267E+02  0.53676694267E+02  0.00000000000E+00 0. -1.
         25    2    1    2    0    0 -0.71925017231E+02  0.17602914789E+02  0.13946132058E+03  0.20143417528E+03  0.12507276411E+03 0.  0.
          5    1    3    3  502    0 -0.54740560176E+01 -0.40597088967E+02  0.64077143401E+01  0.41672774385E+02  0.41800000000E+01 0. -1.
         -5    1    3    3    0  502 -0.66450961213E+02  0.58200003755E+02  0.13305360624E+03  0.15976140090E+03  0.41800000000E+01 0. -1.
        -11    1    1    2    0    0  0.39047163375E+02 -0.54190887537E+02  0.78717260277E+02  0.10323633239E+03  0.00000000000E+00 0.  1.
         11    1    1    2    0    0  0.32877853856E+02  0.36587972749E+02  0.47562161886E+02  0.68423623606E+02  0.00000000000E+00 0. -1.
</event>
<event>
 7    1  0.2384639E-009  0.8731920E+02  0.7561462E-02  0.1309477E+00
          2   -1    0    0  501    0  0.00000000000E+00  0.00000000000E+00  0.29057401231E+03  0.29057401231E+03  0.00000000000E+00 0. -1.
         -2   -1    0    0    0  501 -0.00000000000E+00 -0.00000000000E+00 -0.47673235757E+02  0.47673235757E+02  0.00000000000E+00 0.  1.
         25    2    1    2    0    0  0.15574541308E+01 -0.75487337249E+01  0.68992907297E+02  0.14305245471E+03  0.12507827348E+03 0.  0.
          5    1    3    3  502    0 -0.45340635995E+02 -0.43839350473E+02  0.20852543671E+02  0.66557966464E+02  0.41800000000E+01 0. -1.
         -5    1    3    3    0  502  0.46898090126E+02  0.36290616748E+02  0.48140363627E+02  0.76494488243E+02  0.41800000000E+01 0. -1.
        -11    1    1    2    0    0 -0.91342628326E+01 -0.20759354667E+02  0.43127044737E+01  0.23086467542E+02  0.00000000000E+00 0.  1.
         11    1    1    2    0    0  0.75768087018E+01  0.28308088392E+02  0.16959516478E+03  0.17210832581E+03  0.00000000000E+00 0. -1.
</event>
<event>
 7    1  0.2384639E-009  0.1343885E+03  0.7561462E-02  0.1221086E+00
          3   -1    0    0  501    0  0.00000000000E+00  0.00000000000E+00  0.68140904068E+02  0.68140904068E+02  0.00000000000E+00 0. -1.
         -3   -1    0    0    0  501 -0.00000000000E+00 -0.00000000000E+00 -0.31787281490E+03  0.31787281490E+03  0.00000000000E+00 0.  1.
         25    2    1    2    0    0 -0.45704772474E+02 -0.74465524060E+02 -0.73318216624E+02  0.16928696857E+03  0.12509387010E+03 0.  0.
          5    1    3    3  502    0 -0.85314652625E+02 -0.31781926193E+02 -0.60863586356E+02  0.10959256056E+03  0.41800000000E+01 0.  1.
         -5    1    3    3    0  502  0.39609880152E+02 -0.42683597867E+02 -0.12454630268E+02  0.59694408010E+02  0.41800000000E+01 0.  1.
        -11    1    1    2    0    0 -0.19105874540E+02  0.43332650845E+02 -0.10596212919E+03  0.11606345632E+03  0.00000000000E+00 0. -1.
         11    1    1    2    0    0  0.64810647014E+02  0.31132873215E+02 -0.70451565013E+02  0.10066329407E+03  0.00000000000E+00 0.  1.
</event>
<event>
 7    1  0.2384639E-009  0.1247576E+03  0.7561462E-02  0.1235449E+00
          2   -1    0    0  501    0  0.00000000000E+00  0.00000000000E+00  0.83722434740E+02  0.83722434740E+02  0.00000000000E+00 0. -1.
         -2   -1    0    0    0  501 -0.00000000000E+00 -0.00000000000E+00 -0.34616825774E+03  0.34616825774E+03  0.00000000000E+00 0.  1.
         25    2    1    2    0    0 -0.81831153772E+02 -0.49301827406E+01 -0.24583610519E+03  0.28775578948E+03  0.12508940538E+03 0.  0.
          5    1    3    3  502    0  0.20355616862E+00  0.29931148442E+02 -0.46321078644E+01  0.30575217177E+02  0.41800000000E+01 0.  1.
         -5    1    3    3    0  502 -0.82034709940E+02 -0.34861331182E+02 -0.24120399732E+03  0.25718057230E+03  0.41800000000E+01 0.  1.
        -11    1    1    2    0    0  0.56916736009E+01  0.44079465263E+02  0.20350452835E+02  0.48882873655E+02  0.00000000000E+00 0. -1.
         11    1    1    2    0    0  0.76139480171E+02 -0.39149282522E+02 -0.36960170652E+02  0.93252029347E+02  0.00000000000E+00 0.  1.
</event>
<event>
 7    1  0.2384639E-009  0.1534754E+03  0.7561462E-02  0.1196266E+00
         -2   -1    0    0    0  501 -0.00000000000E+00  0.00000000000E+00  0.30429568095E+02  0.30429568095E+02  0.00000000000E+00 0.  1.
          2   -1    0    0  501    0  0.00000000000E+00 -0.00000000000E+00 -0.91531602891E+03  0.91531602891E+03  0.00000000000E+00 0. -1.
         25    2    1    2    0    0 -0.10097744606E+03  0.61176536653E+02 -0.60197945898E+03  0.62607379094E+03  0.12510039738E+03 0.  0.
          5    1    3    3  502    0 -0.12721497032E+03  0.40535372710E+02 -0.53068944151E+03  0.54724356629E+03  0.41800000000E+01 0. -1.
         -5    1    3    3    0  502  0.26237524264E+02  0.20641163943E+02 -0.71290017463E+02  0.78830224649E+02  0.41800000000E+01 0. -1.
        -11    1    1    2    0    0  0.21023012859E+02  0.17647367882E+02 -0.20514272297E+02  0.34267069188E+02  0.00000000000E+00 0.  1.
         11    1    1    2    0    0  0.79954433198E+02 -0.78823904535E+02 -0.26239272954E+03  0.28540473687E+03  0.00000000000E+00 0. -1.
</event>
<event>
 7    1  0.2384639E-009  0.1077862E+03  0.7561462E-02  0.1264725E+00
          1   -1    0    0  501    0  0.00000000000E+00  0.00000000000E+00  0.12212516293E+04  0.12212516293E+04  0.00000000000E+00 0. -1.
         -1   -1    0    0    0  501 -0.00000000000E+00 -0.00000000000E+00 -0.97546026249E+01  0.97546026249E+01  0.00000000000E+00 0.  1.
         25    2    1    2    0    0 -0.55743326517E+01 -0.94427733379E+01  0.76446087123E+03  0.77470518412E+03  0.12508980581E+03 0.  0.
          5    1    3    3  502    0  0.29733154947E+02  0.48086094200E+02  0.40358235076E+03  0.40754449966E+03  0.41800000000E+01 0. -1.
         -5    1    3    3    0  502 -0.35307487599E+02 -0.57528867538E+02  0.36087852046E+03  0.36716068446E+03  0.41800000000E+01 0. -1.
        -11    1    1    2    0    0 -0.41839594513E+02 -0.38351953255E+01  0.18976417791E+03  0.19435972734E+03  0.00000000000E+00 0.  1.
         11    1    1    2    0    0  0.47413927165E+02  0.13277968663E+02  0.25727197754E+03  0.26194132047E+03  0.00000000000E+00 0. -1.
</event>
<event>
 7    1  0.2384639E-009  0.1090848E+03  0.7561462E-02  0.1262274E+00
         -2   -1    0    0    0  501 -0.00000000000E+00  0.00000000000E+00  0.22947121422E+02  0.22947121422E+02  0.00000000000E+00 0.  1.
          2   -1    0    0  501    0  0.00000000000E+00 -0.00000000000E+00 -0.64010050626E+03  0.64010050626E+03  0.00000000000E+00 0. -1.
         25    2    1    2    0    0  0.49987688623E+02 -0.30193455874E+02 -0.33268779600E+03  0.36018940686E+03  0.12507927652E+03 0.  0.
          5    1    3    3  502    0  0.62922154502E+02  0.29317184366E+02 -0.23430494142E+03  0.24440739105E+03  0.41800000000E+01 0.  1.
         -5    1    3    3    0  502 -0.12934465878E+02 -0.59510640240E+02 -0.98382854578E+02  0.11578201581E+03  0.41800000000E+01 0.  1.
        -11    1    1    2    0    0 -0.56300534121E+02 -0.44428268111E+00 -0.25022075599E+03  0.25647684936E+03  0.00000000000E+00 0. -1.
         11    1    1    2    0    0  0.63128454981E+01  0.30637738555E+02 -0.34244832850E+02  0.46381371465E+02  0.00000000000E+00 0.  1.
</event>
<event>
 7    1  0.2384639E-009  0.1585414E+03  0.7561462E-02  0.1190353E+00
         -3   -1    0    0    0  501 -0.00000000000E+00  0.00000000000E+00  0.66229917500E+03  0.66229917500E+03  0.00000000000E+00 0.  1.
          3   -1    0    0  501    0  0.00000000000E+00 -0.00000000000E+00 -0.57847378174E+02  0.57847378174E+02  0.00000000000E+00 0. -1.
         25    2    1    2    0    0  0.88050415202E+02  0.10971251996E+03  0.46530859671E+03  0.50194404807E+03  0.12508407000E+03 0.  0.
          5    1    3    3  502    0  0.56241274855E+02  0.31793452070E+02  0.61013657329E+02  0.88960909238E+02  0.41800000000E+01 0.  1.
         -5    1    3    3    0  502  0.31809140347E+02  0.77919067890E+02  0.40429493938E+03  0.41298313883E+03  0.41800000000E+01 0.  1.
        -11    1    1    2    0    0 -0.79504627406E+02 -0.25590657087E+02  0.68273399309E+02  0.10787550492E+03  0.00000000000E+00 0. -1.
         11    1    1    2    0    0 -0.85457877968E+01 -0.84121862872E+02  0.70869800801E+02  0.11032700018E+03  0.00000000000E+00 0.  1.
</event>
<event>
 7    1  0.2384639E-009  0.1520433E+03  0.7561462E-02  0.1197984E+00
          2   -1    0    0  501    0  0.00000000000E+00  0.00000000000E+00  0.26504507337E+02  0.26504507337E+02  0.00000000000E+00 0. -1.
         -2   -1    0    0    0  501 -0.00000000000E+00 -0.00000000000E+00 -0.12826229318E+04  0.12826229318E+04  0.00000000000E+00 0.  1.
         25    2    1    2    0    0 -0.10542976500E+03 -0.10881943309E+03 -0.68489196267E+03  0.71251739547E+03  0.12508770505E+03 0.  0.
          5    1    3    3  502    0 -0.37083460111E+02 -0.41244820744E+02 -0.50904630366E+03  0.51207609778E+03  0.41800000000E+01 0.  1.
         -5    1    3    3    0  502 -0.68346304887E+02 -0.67574612349E+02 -0.17584565901E+03  0.20044129768E+03  0.41800000000E+01 0.  1.
        -11    1    1    2    0    0  0.13681574364E+02  0.76079021340E+01 -0.90674055331E+01  0.18090978278E+02  0.00000000000E+00 0. -1.
         11    1    1    2    0    0  0.91748190635E+02  0.10121153096E+03 -0.56215905629E+03  0.57851906542E+03  0.00000000000E+00 0.  1.
</event>
<event>
 7    1  0.2384639E-009  0.1085968E+03  0.7561462E-02  0.1263191E+00
         -1   -1    0    0    0  501 -0.00000000000E+00  0.00000000000E+00  0.99289230938E+02  0.99289230938E+02  0.00000000000E+00 0.  1.
          1   -1    0    0  501    0  0.00000000000E+00 -0.00000000000E+00 -0.18572742184E+03  0.18572742184E+03  0.00000000000E+00 0. -1.
         25    2    1    2    0    0 -0.37095705958E+01  0.69668717243E+02 -0.92943944703E+02  0.17074446846E+03  0.12509038962E+03 0.  0.
          5    1    3    3  502    0 -0.31617045035E+02  0.90453162004E+02 -0.33227883035E+02  0.10150357956E+03  0.41800000000E+01 0. -1.
         -5    1    3    3    0  502  0.27907474439E+02 -0.20784444761E+02 -0.59716061668E+02  0.69240888894E+02  0.41800000000E+01 0. -1.
        -11    1    1    2    0    0  0.26837626393E+02 -0.45194730425E+02  0.40551391182E+02  0.66387025656E+02  0.00000000000E+00 0.  1.
         11    1    1    2    0    0 -0.23128055797E+02 -0.24473986817E+02 -0.34045637382E+02  0.47885158665E+02  0.00000000000E+00 0. -1.
</event>
<event>
 7    1  0.2384639E-009  0.1412204E+03  0.7561462E-02  0.1211696E+00
          2   -1    0    0  501    0  0.00000000000E+00  0.00000000000E+00  0.12337815243E+03  0.12337815243E+03  0.00000000000E+00 0. -1.
         -2   -1    0    0    0  501 -0.00000000000E+00 -0.00000000000E+00 -0.21183203903E+03  0.21183203903E+03  0.00000000000E+00 0.  1.
         25    2    1    2    0    0 -0.11721484791E+03 -0.93621507723E+00 -0.70169430658E+02  0.18523973381E+03  0.12509921228E+03 0.  0.
          5    1    3    3  502    0  0.17826614901E+02 -0.15718281266E+02 -0.38899395380E+02  0.45776499710E+02  0.41800000000E+01 0. -1.
         -5    1    3    3    0  502 -0.13504146281E+03  0.14782066189E+02 -0.31270035278E+02  0.13946323409E+03  0.41800000000E+01 0. -1.
        -11    1    1    2    0    0  0.44225096813E+02  0.17482511983E+02 -0.49714482404E+02  0.68796999746E+02  0.00000000000E+00 0.  1.
         11    1    1    2    0    0  0.72989751093E+02 -0.16546296905E+02  0.31430026454E+02  0.81173457908E+02  0.00000000000E+00 0. -1.
</event>
<event>
 7    1  0.2384639E-009  0.1361129E+03  0.7561462E-02  0.1218657E+00
         -1   -1    0    0    0  501 -0.00000000000E+00  0.00000000000E+00  0.13245528251E+03  0.13245528251E+03  0.00000000000E+00 0.  1.
          1   -1    0    0  501    0  0.00000000000E+00 -0.00000000000E+00 -0.16443039816E+03  0.16443039816E+03  0.00000000000E+00 0. -1.
         25    2    1    2    0    0 -0.13748828833E+02  0.95816665130E+02 -0.38323732867E+02  0.16274680892E+03  0.12509177312E+03 0.  0.
          5    1    3    3  502    0  0.51319598939E+02  0.38314162994E+02 -0.40307116923E+02  0.75787943605E+02  0.41800000000E+01 0.  1.
         -5    1    3    3    0  502 -0.65068427772E+02  0.57502502136E+02  0.19833840556E+01  0.86958865315E+02  0.41800000000E+01 0.  1.
        -11    1    1    2    0    0 -0.30157016081E+02 -0.39904097939E+02 -0.25611965181E+02  0.56193909027E+02  0.00000000000E+00 0. -1.
         11    1    1    2    0    0  0.43905844914E+02 -0.55912567191E+02  0.31960582392E+02  0.77944962725E+02  0.00000000000E+00 0.  1.
</event>
<event>
 7    1  0.2384639E-009  0.1306776E+03  0.7561462E-02  0.1226454E+00
          2   -1    0    0  501    0  0.00000000000E+00  0.00000000000E+00  0.53723863962E+03  0.53723863962E+03  0.00000000000E+00 0. -1.
         -2   -1    0    0    0  501 -0.00000000000E+00 -0.00000000000E+00 -0.32851336622E+02  0.32851336622E+02  0.00000000000E+00 0.  1.
         25    2    1    2    0    0  0.33691843983E+02 -0.66152999173E+02  0.25121506518E+03  0.29028969383E+03  0.12509091779E+03 0.  0.
          5    1    3    3  502    0  0.18419879198E+02  0.36366085006E+02  0.84961077957E+02  0.94327309173E+02  0.41800000000E+01 0.  1.
         -5    1    3    3    0  502  0.15271964786E+02 -0.10251908418E+03  0.16625398723E+03  0.19596238465E+03  0.41800000000E+01 0.  1.
        -11    1    1    2    0    0 -0.46471956161E+01 -0.22695578161E+02  0.76399402106E+02  0.79834543509E+02  0.00000000000E+00 0. -1.
         11    1    1    2    0    0 -0.29044648367E+02  0.88848577334E+02  0.17677283570E+03  0.19996573891E+03  0.00000000000E+00 0.  1.
</event>
<event>
 7    1  0.2478075E-009  0.1384459E+03  0.7561462E-02  0.1215436E+00
          1   -1    0    0  501    0  0.00000000000E+00  0.00000000000E+00  0.10682962848E+03  0.10682962848E+03  0.00000000000E+00 0. -1.
         -1   -1    0    0    0  501 -0.00000000000E+00 -0.00000000000E+00 -0.22429432953E+03  0.22429432953E+03  0.00000000000E+00 0.  1.
         25    2    1    2    0    0 -0.93320706461E+02  0.57188338113E+02 -0.70173792703E+02  0.18042112429E+03  0.12509260824E+03 0.  0.
          5    1    3    3  502    0 -0.67901232275E+02  0.95267302722E+02 -0.33939534245E+02  0.12188437429E+03  0.41800000000E+01 0. -1.
         -5    1    3    3    0  502 -0.25419474186E+02 -0.38078964609E+02 -0.36234258458E+02  0.58536749992E+02  0.41800000000E+01 0. -1.
        -11    1    1    2    0    0  0.49185408244E+02 -0.48094114129E+02 -0.71775443435E+02  0.99418119467E+02  0.00000000000E+00 0.  1.
         11    1    1    2    0    0  0.44135298216E+02 -0.90942239839E+01  0.24484535087E+02  0.51284714262E+02  0.00000000000E+00 0. -1.
</event>
<event>
 7    1  0.2781422E-009  0.9522833E+02  0.7561462E-02  0.1290663E+00
          2   -1    0    0  501    0  0.00000000000E+00  0.00000000000E+00  0.69880131088E+03  0.69880131088E+03  0.00000000000E+00 0. -1.
         -2   -1    0    0    0  501 -0.00000000000E+00 -0.00000000000E+00 -0.25782019769E+02  0.25782019769E+02  0.00000000000E+00 0.  1.
         25    2    1    2    0    0 -0.49383870381E+02 -0.53420100845E+02  0.44866218047E+03  0.47141679351E+03  0.12507424673E+03 0.  0.
          5    1    3    3  502    0 -0.35827243943E+02 -0.79798495760E+02  0.42301726051E+03  0.43198665075E+03  0.41800000000E+01 0. -1.
         -5    1    3    3    0  502 -0.13556626438E+02  0.26378394915E+02  0.25644919952E+02  0.39430142759E+02  0.41800000000E+01 0. -1.
        -11    1    1    2    0    0  0.27152707216E+02  0.25559212266E+02  0.14032154223E+02  0.39842743291E+02  0.00000000000E+00 0.  1.
         11    1    1    2    0    0  0.22231163165E+02  0.27860888580E+02  0.21032495642E+03  0.21332379385E+03  0.00000000000E+00 0. -1.
</event>
<event>
 7    1  0.2384639E-009  0.1197242E+03  0.7561462E-02  0.1243553E+00
         -2   -1    0    0    0  501 -0.00000000000E+00  0.00000000000E+00  0.40714727891E+02  0.40714727891E+02  0.00000000000E+00 0.  1.
          2   -1    0    0  501    0  0.00000000000E+00 -0.00000000000E+00 -0.48777598254E+03  0.48777598254E+03  0.00000000000E+00 0. -1.
         25    2    1    2    0    0  0.49303383062E+02  0.57395207751E+02 -0.32999929388E+03  0.36093408233E+03  0.12509534113E+03 0.  0.
          5    1    3    3  502    0 -0.21769141224E+02  0.47175906611E+02 -0.24065995445E+03  0.24624002061E+03  0.41800000000E+01 0. -1.
         -5    1    3    3    0  502  0.71072524286E+02  0.10219301141E+02 -0.89339339433E+02  0.11469406172E+03  0.41800000000E+01 0. -1.
        -11    1    1    2    0    0 -0.58378414681E+02 -0.75327710612E+02 -0.11155009697E+03  0.14671648654E+03  0.00000000000E+00 0. -1.
         11    1    1    2    0    0  0.90750316184E+01  0.17932502861E+02 -0.55118637896E+01  0.20840141558E+02  0.00000000000E+00 0.  1.
</event>
<event>
 7    1  0.2384639E-009  0.1472516E+03  0.7561462E-02  0.1203891E+00
          2   -1    0    0  501    0  0.00000000000E+00  0.00000000000E+00  0.43512441305E+03  0.43512441305E+03  0.00000000000E+00 0. -1.
         -2   -1    0    0    0  501 -0.00000000000E+00 -0.00000000000E+00 -0.66624901146E+02  0.66624901146E+02  0.00000000000E+00 0.  1.
         25    2    1    2    0    0  0.10761325093E+03  0.36600430630E+02  0.99052837078E+02  0.19590590566E+03  0.12508979191E+03 0.  0.
          5    1    3    3  502    0  0.13323038045E+03  0.13050638746E+02  0.76783212289E+02  0.15438195340E+03  0.41800000000E+01 0.  1.
         -5    1    3    3    0  502 -0.25617129522E+02  0.23549791885E+02  0.22269624789E+02  0.41523952257E+02  0.41800000000E+01 0.  1.
        -11    1    1    2    0    0 -0.66580137503E+02  0.54081936437E+01  0.65284094267E+02  0.93403298832E+02  0.00000000000E+00 0.  1.
         11    1    1    2    0    0 -0.41033113428E+02 -0.42008624274E+02  0.20416258056E+03  0.21244010970E+03  0.00000000000E+00 0. -1.
</event>
<event>
 7    1  0.2384639E-009  0.1472999E+03  0.7561462E-02  0.1203831E+00
          2   -1    0    0  501    0  0.00000000000E+00  0.00000000000E+00  0.51022454983E+03  0.51022454983E+03  0.00000000000E+00 0. -1.
         -2   -1    0    0    0  501 -0.00000000000E+00 -0.00000000000E+00 -0.49147021200E+02  0.49147021200E+02  0.00000000000E+00 0.  1.
         25    2    1    2    0    0 -0.99095245840E+02  0.59042846243E+02  0.25237350044E+03  0.30437746120E+03  0.12508928699E+03 0.  0.
          5    1    3    3  502    0 -0.24188298026E+02  0.70827460251E+02  0.55222484890E+02  0.93105306639E+02  0.41800000000E+01 0.  1.
         -5    1    3    3    0  502 -0.74906947814E+02 -0.11784614008E+02  0.19715101555E+03  0.21127215456E+03  0.41800000000E+01 0.  1.
        -11    1    1    2    0    0 -0.87312553751E+01  0.11800244421E+02  0.89327640170E+01  0.17183563711E+02  0.00000000000E+00 0.  1.
         11    1    1    2    0    0  0.10782650121E+03 -0.70843090665E+02  0.19977126417E+03  0.23781054613E+03  0.00000000000E+00 0. -1.
</event>
<event>
 7    1  0.2384639E-009  0.1170459E+03  0.7561462E-02  0.1248051E+00
          2   -1    0    0  501    0  0.00000000000E+00  0.00000000000E+00  0.18792993537E+03  0.18792993537E+03  0.00000000000E+00 0. -1.
         -2   -1    0    0    0  501 -0.00000000000E+00 -0.00000000000E+00 -0.13348023874E+03  0.13348023874E+03  0.00000000000E+00 0.  1.
         25    2    1    2    0    0 -0.58896524626E+02 -0.97325946351E+02  0.94350918986E+01  0.16934229279E+03  0.12508657291E+03 0.  0.
          5    1    3    3  502    0 -0.11961454826E+02 -0.39586602744E+02 -0.56290947515E+02  0.69973699992E+02  0.41800000000E+01 0. -1.
         -5    1    3    3    0  502 -0.46935069800E+02 -0.57739343606E+02  0.65726039414E+02  0.99368592796E+02  0.41800000000E+01 0. -1.
        -11    1    1    2    0    0  0.51960623079E+02  0.57190610319E+02  0.70018664350E+02  0.10427504791E+03  0.00000000000E+00 0. -1.
         11    1    1    2    0    0  0.69359015476E+01  0.40135336032E+02 -0.25004059615E+02  0.47792833415E+02  0.00000000000E+00 0.  1.
</event>
<event>
 7    1  0.2384639E-009  0.1977425E+03  0.7561462E-02  0.1151658E+00
          2   -1    0    0  501    0  0.00000000000E+00  0.00000000000E+00  0.35873901392E+03  0.35873901392E+03  0.00000000000E+00 0. -1.
         -2   -1    0    0    0  501 -0.00000000000E+00 -0.00000000000E+00 -0.13319854014E+03  0.13319854014E+03  0.00000000000E+00 0.  1.
         25    2    1    2    0    0 -0.17737496059E+03  0.12187109350E+02  0.19198721827E+03  0.29002659027E+03  0.12508368722E+03 0.  0.
          5    1    3    3  502    0 -0.28887359131E+02  0.37578246946E+02  0.21310862466E+01  0.47630012489E+02  0.41800000000E+01 0. -1.
         -5    1    3    3    0  502 -0.14848760146E+03 -0.25391137596E+02  0.18985613202E+03  0.24239657778E+03  0.41800000000E+01 0. -1.
        -11    1    1    2    0    0  0.18688351865E+03 -0.87402041082E+01  0.37924163990E+02  0.19089285719E+03  0.00000000000E+00 0.  1.
         11    1    1    2    0    0 -0.95085580645E+01 -0.34469052418E+01 -0.43709084761E+01  0.11018106603E+02  0.00000000000E+00 0. -1.
</event>
<event>
 7    1  0.2384639E-009  0.7508225E+02  0.7561462E-02  0.1343617E+00
          1   -1    0    0  501    0  0.00000000000E+00  0.00000000000E+00  0.22901876334E+03  0.22901876334E+03  0.00000000000E+00 0. -1.
         -1   -1    0    0    0  501 -0.00000000000E+00 -0.00000000000E+00 -0.18942429604E+03  0.18942429604E+03  0.00000000000E+00 0.  1.
         25    2    1    2    0    0  0.40494511629E+02 -0.43445695403E+02  0.18766369792E+03  0.23321848637E+03  0.12508343196E+03 0.  0.
          5    1    3    3  502    0  0.19678894410E+02 -0.22952128771E+02  0.19920777398E+03  0.20153230191E+03  0.41800000000E+01 0. -1.
         -5    1    3    3    0  502  0.20815617219E+02 -0.20493566632E+02 -0.11544076064E+02  0.31686184461E+02  0.41800000000E+01 0. -1.
        -11    1    1    2    0    0  0.98776953302E+01  0.38239341519E+02 -0.12206958778E+03  0.12829965068E+03  0.00000000000E+00 0.  1.
         11    1    1    2    0    0 -0.50372206959E+02  0.52063538839E+01 -0.25999642840E+02  0.56924922332E+02  0.00000000000E+00 0. -1.
</event>
<event>
 7    1  0.2384639E-009  0.1100605E+03  0.7561462E-02  0.1260458E+00
         -2   -1    0    0    0  501 -0.00000000000E+00  0.00000000000E+00  0.10299557650E+03  0.10299557650E+03  0.00000000000E+00 0. -1.
          2   -1    0    0  501    0  0.00000000000E+00 -0.00000000000E+00 -0.17087089960E+03  0.17087089960E+03  0.00000000000E+00 0.  1.
         25    2    1    2    0    0  0.27473988777E+00 -0.43611615522E+02  0.27104888643E+02  0.13522627613E+03  0.12509765096E+03 0.  0.
          5    1    3    3  502    0  0.52778022802E+02 -0.57324767567E+02  0.17228103045E+02  0.79912005369E+02  0.41800000000E+01 0. -1.
         -5    1    3    3    0  502 -0.52503282914E+02  0.13713152045E+02  0.98767855986E+01  0.55314270758E+02  0.41800000000E+01 0. -1.
        -11    1    1    2    0    0  0.16904801211E+02  0.60952272333E+02 -0.31569696278E+02  0.70693688047E+02  0.00000000000E+00 0. -1.
         11    1    1    2    0    0 -0.17179541099E+02 -0.17340656811E+02 -0.63410515467E+02  0.67946511926E+02  0.00000000000E+00 0.  1.
</event>
<event>
 7    1  0.2384639E-009  0.1598396E+03  0.7561462E-02  0.1188878E+00
          4   -1    0    0  501    0  0.00000000000E+00  0.00000000000E+00  0.11892798231E+03  0.11892798231E+03  0.00000000000E+00 0.  1.
         -4   -1    0    0    0  501 -0.00000000000E+00 -0.00000000000E+00 -0.28324270749E+03  0.28324270749E+03  0.00000000000E+00 0. -1.
         25    2    1    2    0    0 -0.10395721540E+03 -0.10547312401E+03 -0.85483745743E+02  0.21186986776E+03  0.12509871124E+03 0.  0.
          5    1    3    3  502    0 -0.10629694323E+03 -0.88820177880E+02 -0.11336326885E+03  0.17904403722E+03  0.41800000000E+01 0.  1.
         -5    1    3    3    0  502  0.23397278349E+01 -0.16652946131E+02  0.27879523112E+02  0.32825830533E+02  0.41800000000E+01 0.  1.
        -11    1    1    2    0    0  0.95235351082E+02  0.49905476209E+02 -0.20854665611E+02  0.10952280917E+03  0.00000000000E+00 0.  1.
         11    1    1    2    0    0  0.87218643168E+01  0.55567647803E+02 -0.57976313826E+02  0.80778012877E+02  0.00000000000E+00 0. -1.
</event>
<event>
 7    1  0.2384639E-009  0.1181223E+03  0.7561462E-02  0.1246227E+00
         -1   -1    0    0    0  501 -0.00000000000E+00  0.00000000000E+00  0.11149688120E+03  0.11149688120E+03  0.00000000000E+00 0.  1.
          1   -1    0    0  501    0  0.00000000000E+00 -0.00000000000E+00 -0.14990956246E+03  0.14990956246E+03  0.00000000000E+00 0. -1.
         25    2    1    2    0    0  0.61263930110E+02 -0.23205448159E+02  0.38110720854E+01  0.14125968829E+03  0.12509201936E+03 0.  0.
          5    1    3    3  502    0 -0.14597682235E+02 -0.43853104693E+02 -0.30334086116E+02  0.55442008427E+02  0.41800000000E+01 0.  1.
         -5    1    3    3    0  502  0.75861612346E+02  0.20647656534E+02  0.34145158202E+02  0.85817679861E+02  0.41800000000E+01 0.  1.
        -11    1    1    2    0    0 -0.44945742418E+02  0.57585047563E+02 -0.36508901101E+02  0.81664296507E+02  0.00000000000E+00 0. -1.
         11    1    1    2    0    0 -0.16318187692E+02 -0.34379599404E+02 -0.57148522456E+01  0.38482458873E+02  0.00000000000E+00 0.  1.
</event>
<event>
 7    1  0.2384639E-009  0.1447067E+03  0.7561462E-02  0.1207132E+00
         -2   -1    0    0    0  501 -0.00000000000E+00  0.00000000000E+00  0.26135451196E+03  0.26135451196E+03  0.00000000000E+00 0.  1.
          2   -1    0    0  501    0  0.00000000000E+00 -0.00000000000E+00 -0.10169568734E+03  0.10169568734E+03  0.00000000000E+00 0. -1.
         25    2    1    2    0    0  0.11381897453E+03 -0.15285045420E+02  0.13091502309E+03  0.21441640772E+03  0.12508901251E+03 0.  0.
          5    1    3    3  502    0  0.57361360493E+02 -0.63561276661E+02  0.33953460150E+02  0.92199085812E+02  0.41800000000E+01 0.  1.
         -5    1    3    3    0  502  0.56457614040E+02  0.48276231240E+02  0.96961562941E+02  0.12221732191E+03  0.41800000000E+01 0.  1.
        -11    1    1    2    0    0 -0.35452491905E+02  0.33566760421E+02  0.45159829917E+02  0.66505765356E+02  0.00000000000E+00 0.  1.
         11    1    1    2    0    0 -0.78366482629E+02 -0.18281715001E+02 -0.16416028389E+02  0.82128026222E+02  0.00000000000E+00 0. -1.
</event>
<event>
 7    1  0.2384639E-009  0.8638446E+02  0.7561462E-02  0.1311851E+00
          1   -1    0    0  501    0  0.00000000000E+00  0.00000000000E+00  0.89940763781E+02  0.89940763781E+02  0.00000000000E+00 0. -1.
         -1   -1    0    0    0  501 -0.00000000000E+00 -0.00000000000E+00 -0.12912633336E+03  0.12912633336E+03  0.00000000000E+00 0.  1.
         25    2    1    2    0    0 -0.10066371035E+02  0.72537707818E+01 -0.16351414517E+02  0.12676620696E+03  0.12509337894E+03 0.  0.
          5    1    3    3  502    0 -0.42318915805E+02 -0.36178849710E+02  0.22327837886E+02  0.60131560315E+02  0.41800000000E+01 0.  1.
         -5    1    3    3    0  502  0.32252544770E+02  0.43432620492E+02 -0.38679252403E+02  0.66634646644E+02  0.41800000000E+01 0.  1.
        -11    1    1    2    0    0 -0.18900471269E+02 -0.22949821075E+02 -0.44028353533E+02  0.53126434253E+02  0.00000000000E+00 0.  1.
         11    1    1    2    0    0  0.28966842305E+02  0.15696050294E+02  0.21194198476E+02  0.39174455924E+02  0.00000000000E+00 0. -1.
</event>
<event>
 7    1  0.2433297E-009  0.1637359E+03  0.7561462E-02  0.1184542E+00
          2   -1    0    0  501    0  0.00000000000E+00  0.00000000000E+00  0.88667722061E+03  0.88667722061E+03  0.00000000000E+00 0. -1.
         -2   -1    0    0    0  501 -0.00000000000E+00 -0.00000000000E+00 -0.39041612027E+02  0.39041612027E+02  0.00000000000E+00 0.  1.
         25    2    1    2    0    0  0.10147814679E+03  0.11123826340E+03  0.46101263864E+03  0.50085189340E+03  0.12509276802E+03 0.  0.
          5    1    3    3  502    0  0.40341320349E+02  0.10597574775E+03  0.39345412571E+03  0.40948980778E+03  0.41800000000E+01 0. -1.
         -5    1    3    3    0  502  0.61136826444E+02  0.52625156524E+01  0.67558512934E+02  0.91362085618E+02  0.41800000000E+01 0. -1.
        -11    1    1    2    0    0 -0.84022075469E+02 -0.76559178759E+02  0.16812157094E+03  0.20294304529E+03  0.00000000000E+00 0.  1.
         11    1    1    2    0    0 -0.17456071324E+02 -0.34679084642E+02  0.21850139900E+03  0.22192389395E+03  0.00000000000E+00 0. -1.
</event>
<event>
 7    1  0.2384639E-009  0.9366500E+02  0.7561462E-02  0.1294211E+00
          2   -1    0    0  501    0  0.00000000000E+00  0.00000000000E+00  0.95530099956E+02  0.95530099956E+02  0.00000000000E+00 0. -1.
         -2   -1    0    0    0  501 -0.00000000000E+00 -0.00000000000E+00 -0.15314593551E+03  0.15314593551E+03  0.00000000000E+00 0.  1.
         25    2    1    2    0    0 -0.43598482995E+01  0.39825092740E+02 -0.56935675411E+02  0.14315608915E+03  0.12508776294E+03 0.  0.
          5    1    3    3  502    0 -0.26959907927E+02  0.74077710280E+02 -0.82896614426E+01  0.79375907444E+02  0.41800000000E+01 0. -1.
         -5    1    3    3    0  502  0.22600059627E+02 -0.34252617540E+02 -0.48646013968E+02  0.63780181706E+02  0.41800000000E+01 0. -1.
        -11    1    1    2    0    0 -0.20540701496E+02 -0.44316293830E+00 -0.39728940207E+02  0.44727010870E+02  0.00000000000E+00 0.  1.
         11    1    1    2    0    0  0.24900549796E+02 -0.39381929802E+02  0.39048780067E+02  0.60792935443E+02  0.00000000000E+00 0. -1.
</event>
<event>
 7    1  0.2384639E-009  0.8656588E+02  0.7561462E-02  0.1311388E+00
          2   -1    0    0  501    0  0.00000000000E+00  0.00000000000E+00  0.17681144788E+03  0.17681144788E+03  0.00000000000E+00 0. -1.
         -2   -1    0    0    0  501 -0.00000000000E+00 -0.00000000000E+00 -0.68730010524E+02  0.68730010524E+02  0.00000000000E+00 0.  1.
         25    2    1    2    0    0  0.12312300705E+02 -0.15279500490E+02  0.62602692521E+02  0.14125008555E+03  0.12508970251E+03 0.  0.
          5    1    3    3  502    0  0.13123976197E+02  0.30697895000E+02  0.83904363194E+02  0.90399192870E+02  0.41800000000E+01 0.  1.
         -5    1    3    3    0  502 -0.81167549212E+00 -0.45977395491E+02 -0.21301670672E+02  0.50850892683E+02  0.41800000000E+01 0.  1.
        -11    1    1    2    0    0  0.34095472471E+01 -0.37799461743E+02  0.13049564907E+02  0.40133719797E+02  0.00000000000E+00 0. -1.
         11    1    1    2    0    0 -0.15721847952E+02  0.53078962233E+02  0.32429179931E+02  0.64157653057E+02  0.00000000000E+00 0.  1.
</event>
<event>
 7    1  0.2384639E-009  0.1247817E+03  0.7561462E-02  0.1235411E+00
          1   -1    0    0  501    0  0.00000000000E+00  0.00000000000E+00  0.10969022154E+03  0.10969022154E+03  0.00000000000E+00 0. -1.
         -1   -1    0    0    0  501 -0.00000000000E+00 -0.00000000000E+00 -0.16947907149E+03  0.16947907149E+03  0.00000000000E+00 0.  1.
         25    2    1    2    0    0 -0.69668119305E+02 -0.42123033093E+02 -0.54665853542E+02  0.15894479723E+03  0.12508835380E+03 0.  0.
          5    1    3    3  502    0 -0.31660519913E+02 -0.78397520140E+02 -0.23532254363E+01  0.84685121215E+02  0.41800000000E+01 0. -1.
         -5    1    3    3    0  502 -0.38007599392E+02  0.36274487047E+02 -0.52312628106E+02  0.74259676012E+02  0.41800000000E+01 0. -1.
        -11    1    1    2    0    0  0.20122777814E+02  0.57021904708E+02  0.18661140879E+02  0.63282398677E+02  0.00000000000E+00 0. -1.
         11    1    1    2    0    0  0.49545341492E+02 -0.14898871615E+02 -0.23784137289E+02  0.56942097130E+02  0.00000000000E+00 0.  1.
</event>
<event>
 7    1  0.2384639E-009  0.1080592E+03  0.7561462E-02  0.1264207E+00
         -1   -1    0    0    0  501 -0.00000000000E+00  0.00000000000E+00  0.52323592492E+03  0.52323592492E+03  0.00000000000E+00 0.  1.
          1   -1    0    0  501    0  0.00000000000E+00 -0.00000000000E+00 -0.26564286801E+02  0.26564286801E+02  0.00000000000E+00 0. -1.
         25    2    1    2    0    0 -0.15629398221E+02 -0.18174060465E+02  0.38481018599E+03  0.40534115448E+03  0.12509195702E+03 0.  0.
          5    1    3    3  502    0 -0.37148229579E+02 -0.64711260132E+02  0.20004898537E+03  0.21355235212E+03  0.41800000000E+01 0. -1.
         -5    1    3    3    0  502  0.21518831358E+02  0.46537199667E+02  0.18476120062E+03  0.19178880236E+03  0.41800000000E+01 0. -1.
        -11    1    1    2    0    0  0.51577916544E+02  0.15680799846E+02  0.54064119773E+02  0.76348529820E+02  0.00000000000E+00 0. -1.
         11    1    1    2    0    0 -0.35948518323E+02  0.24932606194E+01  0.57797332349E+02  0.68110527416E+02  0.00000000000E+00 0.  1.
</event>
<event>
 7    1  0.2384639E-009  0.1219000E+03  0.7561462E-02  0.1239995E+00
          3   -1    0    0  501    0  0.00000000000E+00  0.00000000000E+00  0.24736766047E+03  0.24736766047E+03  0.00000000000E+00 0. -1.
         -3   -1    0    0    0  501 -0.00000000000E+00 -0.00000000000E+00 -0.12788347870E+03  0.12788347870E+03  0.00000000000E+00 0.  1.
         25    2    1    2    0    0  0.10216004535E+03  0.14991658450E+02 -0.37688997489E+02  0.16653249395E+03  0.12510470143E+03 0.  0.
          5    1    3    3  502    0  0.29454468155E+00  0.14451692218E+02 -0.60260884211E+02  0.62111067697E+02  0.41800000000E+01 0.  1.
         -5    1    3    3    0  502  0.10186550067E+03  0.53996623199E+00  0.22571886722E+02  0.10442142625E+03  0.41800000000E+01 0.  1.
        -11    1    1    2    0    0 -0.88519426590E+02  0.18681589888E+02  0.70357499428E+02  0.11460745355E+03  0.00000000000E+00 0.  1.
         11    1    1    2    0    0 -0.13640618761E+02 -0.33673248338E+02  0.86815679826E+02  0.94111191669E+02  0.00000000000E+00 0. -1.
</event>
<event>
 7    1  0.2384639E-009  0.1019172E+03  0.7561462E-02  0.1276315E+00
          1   -1    0    0  501    0  0.00000000000E+00  0.00000000000E+00  0.41275049255E+03  0.41275049255E+03  0.00000000000E+00 0. -1.
         -1   -1    0    0    0  501 -0.00000000000E+00 -0.00000000000E+00 -0.34966931275E+02  0.34966931275E+02  0.00000000000E+00 0.  1.
         25    2    1    2    0    0 -0.31898610613E+02  0.25088868633E+02  0.17199714624E+03  0.21651408273E+03  0.12509339318E+03 0.  0.
          5    1    3    3  502    0 -0.46874611895E+02 -0.22456311483E+02  0.15523304233E+03  0.16375678611E+03  0.41800000000E+01 0.  1.
         -5    1    3    3    0  502  0.14976001281E+02  0.47545180116E+02  0.16764103906E+02  0.52757296618E+02  0.41800000000E+01 0.  1.
        -11    1    1    2    0    0  0.44482682109E+01 -0.58362739203E+02  0.14751809506E+03  0.15870596960E+03  0.00000000000E+00 0. -1.
         11    1    1    2    0    0  0.27450342403E+02  0.33273870570E+02  0.58268319985E+02  0.72497371502E+02  0.00000000000E+00 0.  1.
</event>
<event>
 7    1  0.2384639E-009  0.1151458E+03  0.7561462E-02  0.1251327E+00
         -2   -1    0    0    0  501 -0.00000000000E+00  0.00000000000E+00  0.21968944810E+03  0.21968944810E+03  0.00000000000E+00 0.  1.
          2   -1    0    0  501    0  0.00000000000E+00 -0.00000000000E+00 -0.11984638742E+03  0.11984638742E+03  0.00000000000E+00 0. -1.
         25    2    1    2    0    0  0.48485757739E+02 -0.47862021018E+02 -0.51702487886E+02  0.15153254430E+03  0.12508926001E+03 0.  0.
          5    1    3    3  502    0  0.34692774119E+01 -0.82220573455E+02 -0.14551352196E+02  0.83674804068E+02  0.41800000000E+01 0. -1.
         -5    1    3    3    0  502  0.45016480327E+02  0.34358552437E+02 -0.37151135691E+02  0.67857740235E+02  0.41800000000E+01 0. -1.
        -11    1    1    2    0    0  0.95033155270E+01  0.28386968768E+02  0.65665035106E+01  0.30647217985E+02  0.00000000000E+00 0. -1.
         11    1    1    2    0    0 -0.57989073266E+02  0.19475052249E+02  0.14497904506E+03  0.15735607323E+03  0.00000000000E+00 0.  1.
</event>
<event>
 7    1  0.2384639E-009  0.1358062E+03  0.7561462E-02  0.1219086E+00
         -2   -1    0    0    0  501 -0.00000000000E+00  0.00000000000E+00  0.59900884441E+02  0.59900884441E+02  0.00000000000E+00 0.  1.
          2   -1    0    0  501    0  0.00000000000E+00 -0.00000000000E+00 -0.41177380096E+03  0.41177380096E+03  0.00000000000E+00 0. -1.
         25    2    1    2    0    0  0.16004761509E+02 -0.11110005949E+03 -0.15203731911E+03  0.22663734268E+03  0.12509901314E+03 0.  0.
          5    1    3    3  502    0  0.25344572605E+02  0.15032252565E+02 -0.69361823452E+02  0.75477486248E+02  0.41800000000E+01 0.  1.
         -5    1    3    3    0  502 -0.93398110954E+01 -0.12613231206E+03 -0.82675495653E+02  0.15115985643E+03  0.41800000000E+01 0.  1.
        -11    1    1    2    0    0  0.12185338325E+01  0.77831134263E+02 -0.19141891042E+03  0.20664067739E+03  0.00000000000E+00 0. -1.
         11    1    1    2    0    0 -0.17223295342E+02  0.33268925228E+02 -0.84166869894E+01  0.38396665326E+02  0.00000000000E+00 0.  1.
</event>
<event>
 7    1  0.2384639E-009  0.1211939E+03  0.7561462E-02  0.1241140E+00
         -2   -1    0    0    0  501 -0.00000000000E+00  0.00000000000E+00  0.25410185366E+02  0.25410185366E+02  0.00000000000E+00 0.  1.
          2   -1    0    0  501    0  0.00000000000E+00 -0.00000000000E+00 -0.91458466338E+03  0.91458466338E+03  0.00000000000E+00 0. -1.
         25    2    1    2    0    0 -0.57038554660E+02 -0.30589986202E+02 -0.74255039873E+03  0.75578933813E+03  0.12508910824E+03 0.  0.
          5    1    3    3  502    0 -0.32920174341E+02 -0.75929659289E+02 -0.56033731020E+03  0.56643130620E+03  0.41800000000E+01 0.  1.
         -5    1    3    3    0  502 -0.24118380318E+02  0.45339673087E+02 -0.18221308853E+03  0.18935803193E+03  0.41800000000E+01 0.  1.
        -11    1    1    2    0    0  0.58519573655E+02 -0.16565748574E+02 -0.10473893218E+03  0.12111650771E+03  0.00000000000E+00 0. -1.
         11    1    1    2    0    0 -0.14810189953E+01  0.47155734776E+02 -0.41885147104E+02  0.63089002904E+02  0.00000000000E+00 0.  1.
</event>
<event>
 7    1  0.2384639E-009  0.1105830E+03  0.7561462E-02  0.1259494E+00
          2   -1    0    0  501    0  0.00000000000E+00  0.00000000000E+00  0.52657955900E+03  0.52657955900E+03  0.00000000000E+00 0. -1.
         -2   -1    0    0    0  501 -0.00000000000E+00 -0.00000000000E+00 -0.32272373877E+02  0.32272373877E+02  0.00000000000E+00 0.  1.
         25    2    1    2    0    0 -0.19957979302E+01 -0.47811836218E+02  0.16806498395E+03  0.21489939874E+03  0.12508380334E+03 0.  0.
          5    1    3    3  502    0 -0.62681208233E+02 -0.16303460953E+02  0.91220199693E+02  0.11195237352E+03  0.41800000000E+01 0. -1.
         -5    1    3    3    0  502  0.60685410302E+02 -0.31508375265E+02  0.76844784252E+02  0.10294702522E+03  0.41800000000E+01 0. -1.
        -11    1    1    2    0    0 -0.10190513854E+02 -0.18077730633E+02  0.15068019178E+02  0.25645586743E+02  0.00000000000E+00 0.  1.
         11    1    1    2    0    0  0.12186311784E+02  0.65889566851E+02  0.31117418200E+03  0.31830694739E+03  0.00000000000E+00 0. -1.
</event>
<event>
 7    1  0.2384639E-009  0.1019591E+03  0.7561462E-02  0.1276229E+00
         -1   -1    0    0    0  501 -0.00000000000E+00  0.00000000000E+00  0.37429235543E+02  0.37429235543E+02  0.00000000000E+00 0.  1.
          1   -1    0    0  501    0  0.00000000000E+00 -0.00000000000E+00 -0.55334789404E+03  0.55334789404E+03  0.00000000000E+00 0. -1.
         25    2    1    2    0    0  0.31087981998E+02 -0.74755367275E+02 -0.40860837795E+03  0.43492919522E+03  0.12509104991E+03 0.  0.
          5    1    3    3  502    0  0.11191895004E+02  0.20356428860E+01  0.54726214158E+01  0.13297531384E+02  0.41800000000E+01 0.  1.
         -5    1    3    3    0  502  0.19896086993E+02 -0.76791010161E+02 -0.41408099936E+03  0.42163166384E+03  0.41800000000E+01 0. -1.
        -11    1    1    2    0    0 -0.18411600298E+02  0.90383344168E+02 -0.81239921940E+02  0.12291485201E+03  0.00000000000E+00 0. -1.
         11    1    1    2    0    0 -0.12676381700E+02 -0.15627976894E+02 -0.26070358615E+02  0.32933082350E+02  0.00000000000E+00 0.  1.
</event>
<event>
 7    1  0.2384639E-009  0.3182671E+03  0.7561462E-02  0.1076450E+00
         -1   -1    0    0    0  501 -0.00000000000E+00  0.00000000000E+00  0.64152482009E+02  0.64152482009E+02  0.00000000000E+00 0.  1.
          1   -1    0    0  501    0  0.00000000000E+00 -0.00000000000E+00 -0.23002723298E+04  0.23002723298E+04  0.00000000000E+00 0. -1.
         25    2    1    2    0    0 -0.67249344926E+02 -0.30023825910E+03 -0.17531390106E+04  0.17843227521E+04  0.12508319921E+03 0.  0.
          5    1    3    3  502    0 -0.93958175816E+02 -0.19758825643E+03 -0.99434187771E+03  0.10181367787E+04  0.41800000000E+01 0.  1.
         -5    1    3    3    0  502  0.26708830890E+02 -0.10265000268E+03 -0.75879713288E+03  0.76618597348E+03  0.41800000000E+01 0.  1.
        -11    1    1    2    0    0  0.23758125067E+02  0.21045023908E+03 -0.25659780603E+03  0.33271036307E+03  0.00000000000E+00 0.  1.
         11    1    1    2    0    0  0.43491219859E+02  0.89788020027E+02 -0.22638303118E+03  0.24739169661E+03  0.00000000000E+00 0. -1.
</event>
<event>
 7    1  0.2384639E-009  0.1307958E+03  0.7561462E-02  0.1226280E+00
         -1   -1    0    0    0  501 -0.00000000000E+00  0.00000000000E+00  0.32824354893E+02  0.32824354893E+02  0.00000000000E+00 0.  1.
          1   -1    0    0  501    0  0.00000000000E+00 -0.00000000000E+00 -0.74542350186E+03  0.74542350186E+03  0.00000000000E+00 0. -1.
         25    2    1    2    0    0 -0.56928049139E+01  0.11331398820E+03 -0.40597427767E+03  0.43969915316E+03  0.12509101971E+03 0.  0.
          5    1    3    3  502    0  0.20478591981E+02  0.10848226098E+03 -0.39575519629E+03  0.41088614173E+03  0.41800000000E+01 0.  1.
         -5    1    3    3    0  502 -0.26171396894E+02  0.48317272198E+01 -0.10219081380E+02  0.28813011429E+02  0.41800000000E+01 0.  1.
        -11    1    1    2    0    0 -0.21599718291E+02 -0.67232224506E+02 -0.84814561471E+02  0.11036407785E+03  0.00000000000E+00 0.  1.
         11    1    1    2    0    0  0.27292523205E+02 -0.46081763690E+02 -0.22181030783E+03  0.22818462574E+03  0.00000000000E+00 0. -1.
</event>
<event>
 7    1  0.2384639E-009  0.2241144E+03  0.7561462E-02  0.1130852E+00
          1   -1    0    0  501    0  0.00000000000E+00  0.00000000000E+00  0.20440080003E+03  0.20440080003E+03  0.00000000000E+00 0. -1.
         -1   -1    0    0    0  501 -0.00000000000E+00 -0.00000000000E+00 -0.28305339482E+03  0.28305339482E+03  0.00000000000E+00 0.  1.
         25    2    1    2    0    0  0.31026646970E+02  0.20453262289E+03  0.12236500971E+02  0.24206122416E+03  0.12509059772E+03 0.  0.
          5    1    3    3  502    0 -0.43675173425E+02  0.96857299747E+02 -0.17111692609E+02  0.10769930228E+03  0.41800000000E+01 0.  1.
         -5    1    3    3    0  502  0.74701820395E+02  0.10767532315E+03  0.29348193580E+02  0.13436192188E+03  0.41800000000E+01 0.  1.
        -11    1    1    2    0    0  0.35501268073E+01 -0.11106728782E+03 -0.94205299259E+02  0.14568179101E+03  0.00000000000E+00 0.  1.
         11    1    1    2    0    0 -0.34576773778E+02 -0.93465335074E+02  0.33162035010E+01  0.99711179669E+02  0.00000000000E+00 0. -1.
</event>
<event>
 7    1  0.2384639E-009  0.1496471E+03  0.7561462E-02  0.1200907E+00
         -1   -1    0    0    0  501 -0.00000000000E+00  0.00000000000E+00  0.80729320888E+02  0.80729320888E+02  0.00000000000E+00 0.  1.
          1   -1    0    0  501    0  0.00000000000E+00 -0.00000000000E+00 -0.44066942136E+03  0.44066942136E+03  0.00000000000E+00 0. -1.
         25    2    1    2    0    0  0.12029282270E+03  0.15835746445E+02 -0.32105603706E+03  0.36530356562E+03  0.12509429271E+03 0.  0.
          5    1    3    3  502    0  0.27782386509E+01  0.50761411681E+02 -0.81009451046E+02  0.95731097793E+02  0.41800000000E+01 0. -1.
         -5    1    3    3    0  502  0.11751458405E+03 -0.34925665237E+02 -0.24004658601E+03  0.26957246783E+03  0.41800000000E+01 0. -1.
        -11    1    1    2    0    0 -0.51663359234E+02  0.93723384691E+01  0.25775781171E+02  0.58492173072E+02  0.00000000000E+00 0.  1.
         11    1    1    2    0    0 -0.68629463465E+02 -0.25208084914E+02 -0.64659844582E+02  0.97603003549E+02  0.00000000000E+00 0. -1.
</event>
<event>
 7    1  0.2787466E-009  0.1539189E+03  0.7561462E-02  0.1195738E+00
         -2   -1    0    0    0  501 -0.00000000000E+00  0.00000000000E+00  0.25512493319E+02  0.25512493319E+02  0.00000000000E+00 0.  1.
          2   -1    0    0  501    0  0.00000000000E+00 -0.00000000000E+00 -0.12290329316E+04  0.12290329316E+04  0.00000000000E+00 0. -1.
         25    2    1    2    0    0  0.40002618406E+02 -0.12006416697E+03 -0.84457358314E+03  0.86311488658E+03  0.12508859434E+03 0.  0.
          5    1    3    3  502    0  0.68316791814E+02 -0.23293571082E+02 -0.25866470676E+03  0.26857899661E+03  0.41800000000E+01 0. -1.
         -5    1    3    3    0  502 -0.28314173408E+02 -0.96770595887E+02 -0.58590887638E+03  0.59453588997E+03  0.41800000000E+01 0. -1.
        -11    1    1    2    0    0  0.89138286465E+01  0.38477227437E+02 -0.31719666559E+02  0.50656595020E+02  0.00000000000E+00 0. -1.
         11    1    1    2    0    0 -0.48916447053E+02  0.81586939531E+02 -0.32722718855E+03  0.34077394329E+03  0.00000000000E+00 0.  1.
</event>
<event>
 7    1  0.2384639E-009  0.8013790E+02  0.7561462E-02  0.1328661E+00
          2   -1    0    0  501    0  0.00000000000E+00  0.00000000000E+00  0.10974258525E+03  0.10974258525E+03  0.00000000000E+00 0.  1.
         -2   -1    0    0    0  501 -0.00000000000E+00 -0.00000000000E+00 -0.13583370218E+03  0.13583370218E+03  0.00000000000E+00 0. -1.
         25    2    1    2    0    0  0.24130939022E+02 -0.47417714437E+02 -0.39100430690E+02  0.14144353978E+03  0.12508672753E+03 0.  0.
          5    1    3    3  502    0  0.45827153020E+02 -0.44079805360E+02 -0.75459733234E+02  0.98766395775E+02  0.41800000000E+01 0. -1.
         -5    1    3    3    0  502 -0.21696213998E+02 -0.33379090768E+01  0.36359302545E+02  0.42677144005E+02  0.41800000000E+01 0. -1.
        -11    1    1    2    0    0 -0.37184645409E+02  0.48493274466E+02  0.40753885017E+02  0.73451852710E+02  0.00000000000E+00 0.  1.
         11    1    1    2    0    0  0.13053706387E+02 -0.10755600284E+01 -0.27744571264E+02  0.30680894942E+02  0.00000000000E+00 0. -1.
</event>
<event>
 7    1  0.2384639E-009  0.3403864E+03  0.7561462E-02  0.1066631E+00
          1   -1    0    0  501    0  0.00000000000E+00  0.00000000000E+00  0.60658741864E+03  0.60658741864E+03  0.00000000000E+00 0. -1.
         -1   -1    0    0    0  501 -0.00000000000E+00 -0.00000000000E+00 -0.21025843846E+03  0.21025843846E+03  0.00000000000E+00 0.  1.
         25    2    1    2    0    0  0.27835925402E+03 -0.17788201803E+03  0.29231301235E+03  0.45849812393E+03  0.12509095021E+03 0.  0.
          5    1    3    3  502    0  0.12314656381E+03 -0.19030214297E+02  0.64735789512E+02  0.14048281061E+03  0.41800000000E+01 0.  1.
         -5    1    3    3    0  502  0.15521269021E+03 -0.15885180373E+03  0.22757722283E+03  0.31801531332E+03  0.41800000000E+01 0.  1.
        -11    1    1    2    0    0 -0.86604522298E+02  0.29460293432E+02  0.66229916940E+02  0.11293650459E+03  0.00000000000E+00 0. -1.
         11    1    1    2    0    0 -0.19175473172E+03  0.14842172460E+03  0.37786050892E+02  0.24541122858E+03  0.00000000000E+00 0.  1.
</event>
<event>
 7    1  0.2384639E-009  0.1224044E+03  0.7561462E-02  0.1239182E+00
          1   -1    0    0  501    0  0.00000000000E+00  0.00000000000E+00  0.10697236010E+03  0.10697236010E+03  0.00000000000E+00 0. -1.
         -1   -1    0    0    0  501 -0.00000000000E+00 -0.00000000000E+00 -0.20996548251E+03  0.20996548251E+03  0.00000000000E+00 0.  1.
         25    2    1    2    0    0  0.30544048412E+02 -0.86120577221E+02 -0.10664769539E+03  0.18807029334E+03  0.12508801537E+03 0.  0.
          5    1    3    3  502    0 -0.39507705709E+02  0.24555033443E+01 -0.42060951781E+02  0.57909277079E+02  0.41800000000E+01 0. -1.
         -5    1    3    3    0  502  0.70051754122E+02 -0.88576080565E+02 -0.64586743611E+02  0.13016101626E+03  0.41800000000E+01 0. -1.
        -11    1    1    2    0    0 -0.15476256993E+02  0.58751617268E+02 -0.41774850059E+02  0.73731981932E+02  0.00000000000E+00 0.  1.
         11    1    1    2    0    0 -0.15067791419E+02  0.27368959953E+02  0.45429423041E+02  0.55135567332E+02  0.00000000000E+00 0. -1.
</event>
<event>
 7    1  0.2384639E-009  0.1168169E+03  0.7561462E-02  0.1248442E+00
         -1   -1    0    0    0  501 -0.00000000000E+00  0.00000000000E+00  0.24789469972E+02  0.24789469972E+02  0.00000000000E+00 0.  1.
          1   -1    0    0  501    0  0.00000000000E+00 -0.00000000000E+00 -0.85619782075E+03  0.85619782075E+03  0.00000000000E+00 0. -1.
         25    2    1    2    0    0  0.25608407602E+02  0.41304945548E+02 -0.70896965958E+03  0.72155894162E+03  0.12508972364E+03 0.  0.
          5    1    3    3  502    0  0.37492984114E+02 -0.38197507794E+02 -0.27791734919E+03  0.28305529290E+03  0.41800000000E+01 0.  1.
         -5    1    3    3    0  502 -0.11884576513E+02  0.79502453341E+02 -0.43105231039E+03  0.43850364872E+03  0.41800000000E+01 0.  1.
        -11    1    1    2    0    0 -0.53450823020E+02 -0.49763483927E+01 -0.83847231907E+02  0.99559594331E+02  0.00000000000E+00 0.  1.
         11    1    1    2    0    0  0.27842415419E+02 -0.36328597155E+02 -0.38591459292E+02  0.59868754771E+02  0.00000000000E+00 0. -1.
</event>
<event>
 7    1  0.2384639E-009  0.1214565E+03  0.7561462E-02  0.1240713E+00
         -3   -1    0    0    0  501 -0.00000000000E+00  0.00000000000E+00  0.19496011381E+03  0.19496011381E+03  0.00000000000E+00 0.  1.
          3   -1    0    0  501    0  0.00000000000E+00 -0.00000000000E+00 -0.12645965106E+03  0.12645965106E+03  0.00000000000E+00 0. -1.
         25    2    1    2    0    0 -0.23655314198E+02 -0.10929350529E+03  0.56179713958E+02  0.17694168495E+03  0.12509018916E+03 0.  0.
          5    1    3    3  502    0 -0.43675865464E+02 -0.91525693984E+02  0.88573625919E+02  0.13471189068E+03  0.41800000000E+01 0.  1.
         -5    1    3    3    0  502  0.20020551265E+02 -0.17767811304E+02 -0.32393911960E+02  0.42229794264E+02  0.41800000000E+01 0.  1.
        -11    1    1    2    0    0 -0.49293604326E+01  0.17458649273E+02  0.40396878886E+02  0.44283302185E+02  0.00000000000E+00 0.  1.
         11    1    1    2    0    0  0.28584674631E+02  0.91834856016E+02 -0.28076130094E+02  0.10019477773E+03  0.00000000000E+00 0. -1.
</event>
<event>
 7    1  0.2384639E-009  0.1217854E+03  0.7561462E-02  0.1240180E+00
         -1   -1    0    0    0  501 -0.00000000000E+00  0.00000000000E+00  0.30023741227E+02  0.30023741227E+02  0.00000000000E+00 0.  1.
          1   -1    0    0  501    0  0.00000000000E+00 -0.00000000000E+00 -0.77556662303E+03  0.77556662303E+03  0.00000000000E+00 0. -1.
         25    2    1    2    0    0  0.10478026624E+03  0.78201918791E+01 -0.44670303905E+03  0.47563773702E+03  0.12509033612E+03 0.  0.
          5    1    3    3  502    0  0.10844431833E+03 -0.31531006571E+01 -0.19148082481E+03  0.22011926515E+03  0.41800000000E+01 0. -1.
         -5    1    3    3    0  502 -0.36640520830E+01  0.10973292536E+02 -0.25522221424E+03  0.25551847187E+03  0.41800000000E+01 0. -1.
        -11    1    1    2    0    0 -0.29833877152E+02 -0.32191258023E+02 -0.40006763023E+02  0.59387527366E+02  0.00000000000E+00 0.  1.
         11    1    1    2    0    0 -0.74946389092E+02  0.24371066143E+02 -0.25883307973E+03  0.27056509986E+03  0.00000000000E+00 0. -1.
</event>
<event>
 7    1  0.2384639E-009  0.1241860E+03  0.7561462E-02  0.1236347E+00
         -1   -1    0    0    0  501 -0.00000000000E+00  0.00000000000E+00  0.50668263399E+02  0.50668263399E+02  0.00000000000E+00 0.  1.
          1   -1    0    0  501    0  0.00000000000E+00 -0.00000000000E+00 -0.34698307731E+03  0.34698307731E+03  0.00000000000E+00 0. -1.
         25    2    1    2    0    0 -0.39677753663E+02 -0.61599377382E+02 -0.11835431425E+03  0.18714757124E+03  0.12509061632E+03 0.  0.
          5    1    3    3  502    0  0.13166850894E+02 -0.79285220213E+02 -0.99926437602E+02  0.12830540690E+03  0.41800000000E+01 0.  1.
         -5    1    3    3    0  502 -0.52844604557E+02  0.17685842831E+02 -0.18427876645E+02  0.58842164348E+02  0.41800000000E+01 0.  1.
        -11    1    1    2    0    0  0.64780705481E+02  0.57412076935E+02 -0.12947456022E+03  0.15574449629E+03  0.00000000000E+00 0. -1.
         11    1    1    2    0    0 -0.25102951817E+02  0.41873004468E+01 -0.48485939447E+02  0.54759273178E+02  0.00000000000E+00 0.  1.
</event>
<event>
 7    1  0.2384639E-009  0.1636492E+03  0.7561462E-02  0.1184637E+00
         -1   -1    0    0    0  501 -0.00000000000E+00  0.00000000000E+00  0.89404129361E+02  0.89404129361E+02  0.00000000000E+00 0.  1.
          1   -1    0    0  501    0  0.00000000000E+00 -0.00000000000E+00 -0.36562669756E+03  0.36562669756E+03  0.00000000000E+00 0. -1.
         25    2    1    2    0    0  0.13707954506E+03  0.15127321119E+02 -0.10729040179E+03  0.21488990008E+03  0.12508717489E+03 0.  0.
          5    1    3    3  502    0  0.85669901731E+02  0.57385913085E+02 -0.20121572443E+02  0.10514192865E+03  0.41800000000E+01 0.  1.
         -5    1    3    3    0  502  0.51409643326E+02 -0.42258591966E+02 -0.87168829347E+02  0.10974797142E+03  0.41800000000E+01 0.  1.
        -11    1    1    2    0    0 -0.73384672881E+02 -0.46028277865E+02 -0.45500252246E+02  0.97847767126E+02  0.00000000000E+00 0.  1.
         11    1    1    2    0    0 -0.63694872176E+02  0.30900956746E+02 -0.12343191417E+03  0.14229315972E+03  0.00000000000E+00 0. -1.
</event>
<event>
 7    1  0.2384639E-009  0.1701730E+03  0.7561462E-02  0.1177668E+00
          2   -1    0    0  501    0  0.00000000000E+00  0.00000000000E+00  0.14343155377E+03  0.14343155377E+03  0.00000000000E+00 0. -1.
         -2   -1    0    0    0  501 -0.00000000000E+00 -0.00000000000E+00 -0.23820027644E+03  0.23820027644E+03  0.00000000000E+00 0.  1.
         25    2    1    2    0    0  0.10067295595E+03 -0.10474808961E+03 -0.86548084221E+02  0.21034817291E+03  0.12509427097E+03 0.  0.
          5    1    3    3  502    0 -0.30373590842E+01  0.20630327741E+02  0.72737153603E+01  0.22476995085E+02  0.41800000000E+01 0. -1.
         -5    1    3    3    0  502  0.10371031503E+03 -0.12537841735E+03 -0.93821799582E+02  0.18787117783E+03  0.41800000000E+01 0. -1.
        -11    1    1    2    0    0 -0.37013826004E+02  0.79748481208E+02  0.30048708027E+02  0.92912692484E+02  0.00000000000E+00 0. -1.
         11    1    1    2    0    0 -0.63659129943E+02  0.24999608405E+02 -0.38269346478E+02  0.78370964811E+02  0.00000000000E+00 0.  1.
</event>
<event>
 7    1  0.2384639E-009  0.9115858E+02  0.7561462E-02  0.1300070E+00
         -2   -1    0    0    0  501 -0.00000000000E+00  0.00000000000E+00  0.20241607299E+02  0.20241607299E+02  0.00000000000E+00 0.  1.
          2   -1    0    0  501    0  0.00000000000E+00 -0.00000000000E+00 -0.62509766007E+03  0.62509766007E+03  0.00000000000E+00 0. -1.
         25    2    1    2    0    0 -0.24739419462E+02  0.32275997356E+01 -0.41415728959E+03  0.43335451963E+03  0.12508965938E+03 0.  0.
          5    1    3    3  502    0 -0.47506288422E+02  0.31182431844E+02 -0.85794767410E+02  0.10299226189E+03  0.41800000000E+01 0.  1.
         -5    1    3    3    0  502  0.22766868960E+02 -0.27954832108E+02 -0.32836252218E+03  0.33036225773E+03  0.41800000000E+01 0.  1.
        -11    1    1    2    0    0 -0.16087582118E+02  0.31548120587E+02 -0.10576339380E+03  0.11153470168E+03  0.00000000000E+00 0.  1.
         11    1    1    2    0    0  0.40827001580E+02 -0.34775720322E+02 -0.84935369382E+02  0.10045004606E+03  0.00000000000E+00 0. -1.
</event>
<event>
 7    1  0.2384639E-009  0.1166755E+03  0.7561462E-02  0.1248684E+00
          3   -1    0    0  501    0  0.00000000000E+00  0.00000000000E+00  0.51624488195E+03  0.51624488195E+03  0.00000000000E+00 0. -1.
         -3   -1    0    0    0  501 -0.00000000000E+00 -0.00000000000E+00 -0.45499152632E+02  0.45499152632E+02  0.00000000000E+00 0.  1.
         25    2    1    2    0    0 -0.54300795887E+02 -0.51128830034E+02  0.40029554489E+03  0.42596523970E+03  0.12508848261E+03 0.  0.
          5    1    3    3  502    0 -0.47599225096E+02  0.16546366324E+02  0.30296787816E+03  0.30715871478E+03  0.41800000000E+01 0.  1.
         -5    1    3    3    0  502 -0.67015707911E+01 -0.67675196359E+02  0.97327666736E+02  0.11880652493E+03  0.41800000000E+01 0.  1.
        -11    1    1    2    0    0  0.72782420950E+02  0.15355071044E+02  0.35328292543E+02  0.82347721645E+02  0.00000000000E+00 0.  1.
         11    1    1    2    0    0 -0.18481625063E+02  0.35773758990E+02  0.35121891879E+02  0.53431073229E+02  0.00000000000E+00 0. -1.
</event>
<event>
 7    1  0.2384639E-009  0.1009227E+03  0.7561462E-02  0.1278367E+00
          2   -1    0    0  501    0  0.00000000000E+00  0.00000000000E+00  0.80457131778E+03  0.80457131778E+03  0.00000000000E+00 0. -1.
         -2   -1    0    0    0  501 -0.00000000000E+00 -0.00000000000E+00 -0.19656752111E+02  0.19656752111E+02  0.00000000000E+00 0.  1.
         25    2    1    2    0    0 -0.24944331766E+02  0.18152586674E+02  0.64133014225E+03  0.65414357812E+03  0.12509090033E+03 0.  0.
          5    1    3    3  502    0 -0.29432263486E+02  0.61319022601E+02  0.53346654017E+03  0.53780135975E+03  0.41800000000E+01 0. -1.
         -5    1    3    3    0  502  0.44879317205E+01 -0.43166435927E+02  0.10786360208E+03  0.11634221837E+03  0.41800000000E+01 0. -1.
        -11    1    1    2    0    0  0.46064862892E+02 -0.39049604157E+02  0.10790494245E+03  0.12365403262E+03  0.00000000000E+00 0.  1.
         11    1    1    2    0    0 -0.21120531126E+02  0.20897017483E+02  0.35679480965E+02  0.46430459148E+02  0.00000000000E+00 0. -1.
</event>
<event>
 7    1  0.2384639E-009  0.9799969E+02  0.7561462E-02  0.1284559E+00
         -2   -1    0    0    0  501 -0.00000000000E+00  0.00000000000E+00  0.51960306902E+03  0.51960306902E+03  0.00000000000E+00 0.  1.
          2   -1    0    0  501    0  0.00000000000E+00 -0.00000000000E+00 -0.33127505853E+02  0.33127505853E+02  0.00000000000E+00 0. -1.
         25    2    1    2    0    0 -0.37667681525E+02 -0.55128864285E+02  0.33480578494E+03  0.36359446915E+03  0.12509188005E+03 0.  0.
          5    1    3    3  502    0  0.18977552885E+02 -0.51178250309E+02  0.27736880005E+03  0.28271944479E+03  0.41800000000E+01 0. -1.
         -5    1    3    3    0  502 -0.56645234410E+02 -0.39506139761E+01  0.57436984889E+02  0.80875024360E+02  0.41800000000E+01 0. -1.
        -11    1    1    2    0    0  0.19486807623E+02  0.61918302658E+02  0.40997350941E+02  0.76774961150E+02  0.00000000000E+00 0. -1.
         11    1    1    2    0    0  0.18180873901E+02 -0.67894383731E+01  0.11067242728E+03  0.11236114457E+03  0.00000000000E+00 0.  1.
</event>
<event>
 7    1  0.2384639E-009  0.6431022E+02  0.7561462E-02  0.1380585E+00
          2   -1    0    0  501    0  0.00000000000E+00  0.00000000000E+00  0.41233787873E+02  0.41233787873E+02  0.00000000000E+00 0. -1.
         -2   -1    0    0    0  501 -0.00000000000E+00 -0.00000000000E+00 -0.32200467417E+03  0.32200467417E+03  0.00000000000E+00 0.  1.
         25    2    1    2    0    0 -0.18617130268E+02 -0.29755992799E+02 -0.15108632604E+03  0.19926442491E+03  0.12508883433E+03 0.  0.
          5    1    3    3  502    0  0.29787053137E+00 -0.17687982231E+02 -0.16917111234E+03  0.17014491204E+03  0.41800000000E+01 0.  1.
         -5    1    3    3    0  502 -0.18915000800E+02 -0.12068010568E+02  0.18084786304E+02  0.29119512873E+02  0.41800000000E+01 0.  1.
        -11    1    1    2    0    0 -0.23245101177E+02  0.38387650995E+02 -0.10599856892E+03  0.11510709400E+03  0.00000000000E+00 0.  1.
         11    1    1    2    0    0  0.41862231445E+02 -0.86316581960E+01 -0.23685991347E+02  0.48866943130E+02  0.00000000000E+00 0. -1.
</event>
<event>
 7    1  0.2583098E-009  0.5007932E+02  0.7561462E-02  0.1444914E+00
         -1   -1    0    0    0  501 -0.00000000000E+00  0.00000000000E+00  0.59710460606E+02  0.59710460606E+02  0.00000000000E+00 0.  1.
          1   -1    0    0  501    0  0.00000000000E+00 -0.00000000000E+00 -0.21780372484E+03  0.21780372484E+03  0.00000000000E+00 0. -1.
         25    2    1    2    0    0  0.63312215832E+01  0.44747562734E+01 -0.48630701976E+02  0.13443777826E+03  0.12509381775E+03 0.  0.
          5    1    3    3  502    0 -0.13777563892E+02  0.19257887180E+02  0.37566515786E+02  0.44602724062E+02  0.41800000000E+01 0. -1.
         -5    1    3    3    0  502  0.20108785475E+02 -0.14783130907E+02 -0.86197217762E+02  0.89835054197E+02  0.41800000000E+01 0. -1.
        -11    1    1    2    0    0 -0.27595707020E+02  0.40637144868E+01 -0.11595256513E+03  0.11926036299E+03  0.00000000000E+00 0. -1.
         11    1    1    2    0    0  0.21264485437E+02 -0.85384707601E+01  0.64900028698E+01  0.23816044194E+02  0.00000000000E+00 0.  1.
</event>
<event>
 7    1  0.2510591E-009  0.1107504E+03  0.7561462E-02  0.1259186E+00
         -2   -1    0    0    0  501 -0.00000000000E+00  0.00000000000E+00  0.24431043881E+02  0.24431043881E+02  0.00000000000E+00 0. -1.
          2   -1    0    0  501    0  0.00000000000E+00 -0.00000000000E+00 -0.66863572801E+03  0.66863572801E+03  0.00000000000E+00 0.  1.
         25    2    1    2    0    0  0.51522855155E+02 -0.43453336704E+02 -0.34313328216E+03  0.37139105969E+03  0.12509225720E+03 0.  0.
          5    1    3    3  502    0  0.46347031383E+02 -0.81970530568E+02 -0.17496157556E+03  0.19873661092E+03  0.41800000000E+01 0.  1.
         -5    1    3    3    0  502  0.51758237725E+01  0.38517193865E+02 -0.16817170661E+03  0.17265444876E+03  0.41800000000E+01 0.  1.
        -11    1    1    2    0    0 -0.18866324511E+02  0.51222736646E+02 -0.27152163612E+03  0.27695433889E+03  0.00000000000E+00 0.  1.
         11    1    1    2    0    0 -0.32656530644E+02 -0.77693999425E+01 -0.29549765838E+02  0.44721373305E+02  0.00000000000E+00 0. -1.
</event>
<event>
 7    1  0.2384639E-009  0.8164374E+02  0.7561462E-02  0.1324450E+00
         -1   -1    0    0    0  501 -0.00000000000E+00  0.00000000000E+00  0.54671995180E+03  0.54671995180E+03  0.00000000000E+00 0.  1.
          1   -1    0    0  501    0  0.00000000000E+00 -0.00000000000E+00 -0.81660233392E+02  0.81660233392E+02  0.00000000000E+00 0. -1.
         25    2    1    2    0    0  0.14539124822E+02  0.17601438774E+02  0.50957608535E+03  0.52520118078E+03  0.12508915514E+03 0.  0.
          5    1    3    3  502    0  0.29904275950E+02  0.37460479037E+02  0.70302907209E+02  0.85191105004E+02  0.41800000000E+01 0. -1.
         -5    1    3    3    0  502 -0.15365151128E+02 -0.19859040263E+02  0.43927317814E+03  0.44001007578E+03  0.41800000000E+01 0. -1.
        -11    1    1    2    0    0 -0.11064363695E+02  0.35151047672E+02 -0.32105094818E+02  0.48874875035E+02  0.00000000000E+00 0. -1.
         11    1    1    2    0    0 -0.34747611269E+01 -0.52752486446E+02 -0.12411272129E+02  0.54304129373E+02  0.00000000000E+00 0.  1.
</event>
<event>
 7    1  0.2384639E-009  0.9027132E+02  0.7561462E-02  0.1302196E+00
          1   -1    0    0  501    0  0.00000000000E+00  0.00000000000E+00  0.16693482291E+03  0.16693482291E+03  0.00000000000E+00 0. -1.
         -1   -1    0    0    0  501 -0.00000000000E+00 -0.00000000000E+00 -0.10819781672E+03  0.10819781672E+03  0.00000000000E+00 0.  1.
         25    2    1    2    0    0  0.71413794433E+02 -0.24966373135E+02  0.58966290608E+02  0.15763005125E+03  0.12508780839E+03 0.  0.
          5    1    3    3  502    0  0.66014187669E+02 -0.42375934826E+02 -0.16168637054E+02  0.80202805750E+02  0.41800000000E+01 0. -1.
         -5    1    3    3    0  502  0.53996067644E+01  0.17409561691E+02  0.75134927661E+02  0.77427245503E+02  0.41800000000E+01 0. -1.
        -11    1    1    2    0    0 -0.60261394313E+01  0.16235392689E+02 -0.37805565983E+02  0.41583207566E+02  0.00000000000E+00 0.  1.
         11    1    1    2    0    0 -0.65387655002E+02  0.87309804457E+01  0.37576281570E+02  0.75919380812E+02  0.00000000000E+00 0. -1.
</event>
<event>
 7    1  0.2384639E-009  0.7519513E+02  0.7561462E-02  0.1343268E+00
          2   -1    0    0  501    0  0.00000000000E+00  0.00000000000E+00  0.73787345229E+03  0.73787345229E+03  0.00000000000E+00 0. -1.
         -2   -1    0    0    0  501 -0.00000000000E+00 -0.00000000000E+00 -0.37099703983E+02  0.37099703983E+02  0.00000000000E+00 0.  1.
         25    2    1    2    0    0  0.17743035052E+02  0.49971101854E+02  0.64094942825E+03  0.65519251627E+03  0.12509651267E+03 0.  0.
          5    1    3    3  502    0  0.53978185736E+01  0.43036973473E+02  0.60519135744E+02  0.74574497801E+02  0.41800000000E+01 0.  1.
         -5    1    3    3    0  502  0.12345216479E+02  0.69341283809E+01  0.58043029251E+03  0.58061801847E+03  0.41800000000E+01 0.  1.
        -11    1    1    2    0    0  0.29645749785E+02 -0.23030668354E+02  0.52848574962E+02  0.64824794953E+02  0.00000000000E+00 0. -1.
         11    1    1    2    0    0 -0.47388784837E+02 -0.26940433500E+02  0.69757450882E+01  0.54955845049E+02  0.00000000000E+00 0.  1.
</event>
<event>
 7    1  0.2384639E-009  0.1295701E+03  0.7561462E-02  0.1228095E+00
          1   -1    0    0  501    0  0.00000000000E+00  0.00000000000E+00  0.47402014024E+03  0.47402014024E+03  0.00000000000E+00 0. -1.
         -1   -1    0    0    0  501 -0.00000000000E+00 -0.00000000000E+00 -0.58858078804E+02  0.58858078804E+02  0.00000000000E+00 0.  1.
         25    2    1    2    0    0  0.91646502921E+01 -0.12514194754E+03  0.19427619065E+03  0.26293491976E+03  0.12508811265E+03 0.  0.
          5    1    3    3  502    0 -0.78434612495E+01 -0.35510192038E+02  0.16198156471E+03  0.16606623175E+03  0.41800000000E+01 0. -1.
         -5    1    3    3    0  502  0.17008111542E+02 -0.89631755501E+02  0.32294625948E+02  0.96868688014E+02  0.41800000000E+01 0. -1.
        -11    1    1    2    0    0  0.58147751123E+01  0.10911749418E+03  0.22256587312E+03  0.24794355612E+03  0.00000000000E+00 0. -1.
         11    1    1    2    0    0 -0.14979425404E+02  0.16024453363E+02 -0.16800023411E+01  0.21999743156E+02  0.00000000000E+00 0.  1.
</event>
<event>
 7    1  0.4309666E-009  0.1090329E+03  0.7561462E-02  0.1262371E+00
          1   -1    0    0  501    0  0.00000000000E+00  0.00000000000E+00  0.18365804602E+04  0.18365804602E+04  0.00000000000E+00 0. -1.
         -1   -1    0    0    0  501 -0.00000000000E+00 -0.00000000000E+00 -0.94245760735E+01  0.94245760735E+01  0.00000000000E+00 0.  1.
         25    2    1    2    0    0  0.42013146593E+02  0.11353820213E+02  0.14239987338E+04  0.14301448412E+04  0.12509140314E+03 0.  0.
          5    1    3    3  502    0 -0.43665365391E+02 -0.67837534215E+01  0.53126227030E+03  0.53311326722E+03  0.41800000000E+01 0. -1.
         -5    1    3    3    0  502  0.85678511984E+02  0.18137573634E+02  0.89273646349E+03  0.89703157394E+03  0.41800000000E+01 0. -1.
        -11    1    1    2    0    0  0.19167501391E+02  0.94643291515E+01  0.28263694902E+02  0.35437312051E+02  0.00000000000E+00 0.  1.
         11    1    1    2    0    0 -0.61180647984E+02 -0.20818149364E+02  0.37489345544E+03  0.38042288307E+03  0.00000000000E+00 0. -1.
</event>
<event>
 7    1  0.2384639E-009  0.9736275E+02  0.7561462E-02  0.1285942E+00
          2   -1    0    0  501    0  0.00000000000E+00  0.00000000000E+00  0.14202442664E+04  0.14202442664E+04  0.00000000000E+00 0. -1.
         -2   -1    0    0    0  501 -0.00000000000E+00 -0.00000000000E+00 -0.12788545401E+02  0.12788545401E+02  0.00000000000E+00 0.  1.
         25    2    1    2    0    0 -0.10992401143E+02 -0.21163812771E+02  0.11673814375E+04  0.11743065005E+04  0.12509035373E+03 0.  0.
          5    1    3    3  502    0 -0.58159473822E+02 -0.18737036040E+02  0.94214636428E+03  0.94413497183E+03  0.41800000000E+01 0. -1.
         -5    1    3    3    0  502  0.47167072679E+02 -0.24267767316E+01  0.22523507319E+03  0.23017152862E+03  0.41800000000E+01 0. -1.
        -11    1    1    2    0    0  0.28892071648E+02 -0.23951461230E+02  0.16583721776E+03  0.17003060635E+03  0.00000000000E+00 0. -1.
         11    1    1    2    0    0 -0.17899670505E+02  0.45115274002E+02  0.74237065763E+02  0.88695705001E+02  0.00000000000E+00 0.  1.
</event>
<event>
 7    1  0.2384639E-009  0.1017798E+03  0.7561462E-02  0.1276597E+00
          2   -1    0    0  501    0  0.00000000000E+00  0.00000000000E+00  0.29248488236E+03  0.29248488236E+03  0.00000000000E+00 0. -1.
         -2   -1    0    0    0  501 -0.00000000000E+00 -0.00000000000E+00 -0.82129874318E+02  0.82129874318E+02  0.00000000000E+00 0.  1.
         25    2    1    2    0    0  0.80377672518E+02  0.28035941766E+02  0.19921387706E+03  0.25016002560E+03  0.12508910953E+03 0.  0.
          5    1    3    3  502    0  0.79328008550E+02  0.49392444836E+02  0.64327709161E+02  0.11352564958E+03  0.41800000000E+01 0.  1.
         -5    1    3    3    0  502  0.10496639679E+01 -0.21356503070E+02  0.13488616790E+03  0.13663437602E+03  0.41800000000E+01 0.  1.
        -11    1    1    2    0    0 -0.10752699755E+02 -0.13231036307E+02 -0.35480442706E+02  0.39364231078E+02  0.00000000000E+00 0.  1.
         11    1    1    2    0    0 -0.69624972763E+02 -0.14804905459E+02  0.46621573689E+02  0.85090500005E+02  0.00000000000E+00 0. -1.
</event>
<event>
 7    1  0.2384639E-009  0.1192411E+03  0.7561462E-02  0.1244354E+00
          2   -1    0    0  501    0  0.00000000000E+00  0.00000000000E+00  0.10196941252E+04  0.10196941252E+04  0.00000000000E+00 0. -1.
         -2   -1    0    0    0  501 -0.00000000000E+00 -0.00000000000E+00 -0.18006107043E+02  0.18006107043E+02  0.00000000000E+00 0.  1.
         25    2    1    2    0    0  0.79948584727E+02 -0.29942853824E+01  0.53692197654E+03  0.55707576079E+03  0.12508977746E+03 0.  0.
          5    1    3    3  502    0  0.72821738986E+02  0.34079784289E+02  0.16899140299E+03  0.18718975413E+03  0.41800000000E+01 0.  1.
         -5    1    3    3    0  502  0.71268457411E+01 -0.37074069671E+02  0.36793057355E+03  0.36988600666E+03  0.41800000000E+01 0.  1.
        -11    1    1    2    0    0 -0.41969965148E+02 -0.43170206713E+02  0.18530000308E+03  0.19483643362E+03  0.00000000000E+00 0.  1.
         11    1    1    2    0    0 -0.37978619580E+02  0.46164492095E+02  0.27946603858E+03  0.28578803788E+03  0.00000000000E+00 0. -1.
</event>
<event>
 7    1  0.2384639E-009  0.1428615E+03  0.7561462E-02  0.1209530E+00
          1   -1    0    0  501    0  0.00000000000E+00  0.00000000000E+00  0.12648507485E+04  0.12648507485E+04  0.00000000000E+00 0. -1.
         -1   -1    0    0    0  501 -0.00000000000E+00 -0.00000000000E+00 -0.23328396286E+02  0.23328396286E+02  0.00000000000E+00 0.  1.
         25    2    1    2    0    0 -0.12492481640E+03  0.42873199303E+02  0.62520716773E+03  0.65113410168E+03  0.12508914746E+03 0.  0.
          5    1    3    3  502    0 -0.61627210160E+02  0.51735366259E+02  0.13851004518E+03  0.16024033878E+03  0.41800000000E+01 0. -1.
         -5    1    3    3    0  502 -0.63297606242E+02 -0.88621669565E+01  0.48669712255E+03  0.49089376290E+03  0.41800000000E+01 0. -1.
        -11    1    1    2    0    0  0.17701271624E+02 -0.27606255081E+02  0.45737550851E+02  0.56279338079E+02  0.00000000000E+00 0.  1.
         11    1    1    2    0    0  0.10722354478E+03 -0.15266944222E+02  0.57057763366E+03  0.58076570506E+03  0.00000000000E+00 0. -1.
</event>
<event>
 7    1  0.2384639E-009  0.1375725E+03  0.7561462E-02  0.1216633E+00
          2   -1    0    0  501    0  0.00000000000E+00  0.00000000000E+00  0.45724406666E+02  0.45724406666E+02  0.00000000000E+00 0.  1.
         -2   -1    0    0    0  501 -0.00000000000E+00 -0.00000000000E+00 -0.47908725426E+03  0.47908725426E+03  0.00000000000E+00 0. -1.
         25    2    1    2    0    0  0.43373952330E+02  0.79246986626E+02 -0.15571044703E+03  0.21921332079E+03  0.12508937632E+03 0.  0.
          5    1    3    3  502    0  0.10672681416E+02  0.10507912255E+03 -0.79534561446E+02  0.13228282953E+03  0.41800000000E+01 0. -1.
         -5    1    3    3    0  502  0.32701270914E+02 -0.25832135924E+02 -0.76175885584E+02  0.86930491258E+02  0.41800000000E+01 0. -1.
        -11    1    1    2    0    0  0.28287422131E+02 -0.23191264923E+02 -0.85438959126E+02  0.92939920142E+02  0.00000000000E+00 0.  1.
         11    1    1    2    0    0 -0.71661374461E+02 -0.56055721704E+02 -0.19221344144E+03  0.21265842000E+03  0.00000000000E+00 0. -1.
</event>
<event>
 7    1  0.2384639E-009  0.1733161E+03  0.7561462E-02  0.1174433E+00
          3   -1    0    0  501    0  0.00000000000E+00  0.00000000000E+00  0.60450058974E+02  0.60450058974E+02  0.00000000000E+00 0. -1.
         -3   -1    0    0    0  501 -0.00000000000E+00 -0.00000000000E+00 -0.68069325267E+03  0.68069325267E+03  0.00000000000E+00 0.  1.
         25    2    1    2    0    0  0.12038050329E+03  0.12194348225E+03 -0.33484158795E+03  0.39639368811E+03  0.12508952201E+03 0.  0.
          5    1    3    3  502    0  0.32279144850E+02  0.30074216615E+02 -0.72334980675E+01  0.44902088944E+02  0.41800000000E+01 0.  1.
         -5    1    3    3    0  502  0.88101358443E+02  0.91869265632E+02 -0.32760808988E+03  0.35149159917E+03  0.41800000000E+01 0.  1.
        -11    1    1    2    0    0 -0.11389475730E+02 -0.30951746420E+02 -0.13058736976E+03  0.13468775707E+03  0.00000000000E+00 0.  1.
         11    1    1    2    0    0 -0.10899102756E+03 -0.90991735827E+02 -0.15481423598E+03  0.21006186646E+03  0.00000000000E+00 0. -1.
</event>
<event>
 7    1  0.2384639E-009  0.1985945E+03  0.7561462E-02  0.1150930E+00
         -2   -1    0    0    0  501 -0.00000000000E+00  0.00000000000E+00  0.40668330617E+02  0.40668330617E+02  0.00000000000E+00 0.  1.
          2   -1    0    0  501    0  0.00000000000E+00 -0.00000000000E+00 -0.11078004221E+04  0.11078004221E+04  0.00000000000E+00 0. -1.
         25    2    1    2    0    0 -0.14107506929E+03  0.11483654501E+03 -0.55494597814E+03  0.59724509234E+03  0.12508818662E+03 0.  0.
          5    1    3    3  502    0  0.11402004891E+02  0.43953340689E+02 -0.19012442055E+03  0.19551641763E+03  0.41800000000E+01 0. -1.
         -5    1    3    3    0  502 -0.15247707418E+03  0.70883204325E+02 -0.36482155759E+03  0.40172867472E+03  0.41800000000E+01 0. -1.
        -11    1    1    2    0    0  0.26639233015E+02 -0.34415393037E+02 -0.41278118878E+02  0.59982923500E+02  0.00000000000E+00 0.  1.
         11    1    1    2    0    0  0.11443583628E+03 -0.80421151977E+02 -0.47090799450E+03  0.49124073690E+03  0.00000000000E+00 0. -1.
</event>
<event>
 7    1  0.2384639E-009  0.8311202E+02  0.7561462E-02  0.1320445E+00
          2   -1    0    0  501    0  0.00000000000E+00  0.00000000000E+00  0.72579712047E+02  0.72579712047E+02  0.00000000000E+00 0. -1.
         -2   -1    0    0    0  501 -0.00000000000E+00 -0.00000000000E+00 -0.19815393260E+03  0.19815393260E+03  0.00000000000E+00 0.  1.
         25    2    1    2    0    0  0.32795609375E+02 -0.32944972129E+02 -0.37087646412E+02  0.13850482469E+03  0.12508864762E+03 0.  0.
          5    1    3    3  502    0  0.51817017371E+02 -0.44551403233E+02  0.24626358832E+02  0.72758235057E+02  0.41800000000E+01 0.  1.
         -5    1    3    3    0  502 -0.19021407995E+02  0.11606431104E+02 -0.61714005244E+02  0.65746589633E+02  0.41800000000E+01 0.  1.
        -11    1    1    2    0    0  0.20940600595E+01  0.39527970050E+02 -0.88252184398E+02  0.96722766476E+02  0.00000000000E+00 0.  1.
         11    1    1    2    0    0 -0.34889669435E+02 -0.65829979210E+01 -0.23438973903E+00  0.35506053476E+02  0.00000000000E+00 0. -1.
</event>
<event>
 7    1  0.2384639E-009  0.1274568E+03  0.7561462E-02  0.1231279E+00
         -2   -1    0    0    0  501 -0.00000000000E+00  0.00000000000E+00  0.23927650013E+02  0.23927650013E+02  0.00000000000E+00 0.  1.
          2   -1    0    0  501    0  0.00000000000E+00 -0.00000000000E+00 -0.74483072899E+03  0.74483072899E+03  0.00000000000E+00 0. -1.
         25    2    1    2    0    0 -0.40246415382E+02  0.60833949928E+02 -0.32884060582E+03  0.35931186490E+03  0.12509328044E+03 0.  0.
          5    1    3    3  502    0  0.42996097763E+02  0.29043644254E+02 -0.16147198431E+03  0.16965515557E+03  0.41800000000E+01 0.  1.
         -5    1    3    3    0  502 -0.83242513145E+02  0.31790305674E+02 -0.16736862151E+03  0.18965670933E+03  0.41800000000E+01 0.  1.
        -11    1    1    2    0    0 -0.27677545715E+02 -0.22434399024E+02 -0.17982874219E+03  0.18332409911E+03  0.00000000000E+00 0. -1.
         11    1    1    2    0    0  0.67923961098E+02 -0.38399550904E+02 -0.21223373097E+03  0.22612241499E+03  0.00000000000E+00 0.  1.
</event>
<event>
 7    1  0.2384639E-009  0.5707587E+02  0.7561462E-02  0.1410529E+00
          2   -1    0    0  501    0  0.00000000000E+00  0.00000000000E+00  0.26165927746E+03  0.26165927746E+03  0.00000000000E+00 0. -1.
         -2   -1    0    0    0  501 -0.00000000000E+00 -0.00000000000E+00 -0.60304318242E+02  0.60304318242E+02  0.00000000000E+00 0.  1.
         25    2    1    2    0    0  0.18525494810E+02 -0.12438881562E+02  0.18412141161E+03  0.22371469397E+03  0.12509856255E+03 0.  0.
          5    1    3    3  502    0  0.48007751438E+02  0.76880426129E+00  0.13554786204E+02  0.50065356158E+02  0.41800000000E+01 0.  1.
         -5    1    3    3    0  502 -0.29482256629E+02 -0.13207685824E+02  0.17056662541E+03  0.17364933782E+03  0.41800000000E+01 0.  1.
        -11    1    1    2    0    0 -0.19074238626E+02 -0.17752566218E+01 -0.37277900416E+02  0.41912050471E+02  0.00000000000E+00 0.  1.
         11    1    1    2    0    0  0.54874381599E+00  0.14214138184E+02  0.54511448023E+02  0.56336851258E+02  0.00000000000E+00 0. -1.
</event>
<event>
 7    1  0.2384639E-009  0.9517526E+02  0.7561462E-02  0.1290782E+00
          2   -1    0    0  501    0  0.00000000000E+00  0.00000000000E+00  0.11490631628E+03  0.11490631628E+03  0.00000000000E+00 0. -1.
         -2   -1    0    0    0  501 -0.00000000000E+00 -0.00000000000E+00 -0.13950175398E+03  0.13950175398E+03  0.00000000000E+00 0.  1.
         25    2    1    2    0    0  0.23482409539E+02 -0.35225696976E+02 -0.64225587592E+02  0.14684765599E+03  0.12508810769E+03 0.  0.
          5    1    3    3  502    0 -0.14275108702E+02 -0.56758164619E+02 -0.81044054617E+02  0.10005438105E+03  0.41800000000E+01 0.  1.
         -5    1    3    3    0  502  0.37757518241E+02  0.21532467643E+02  0.16818467025E+02  0.46793274940E+02  0.41800000000E+01 0.  1.
        -11    1    1    2    0    0 -0.10148837109E+02  0.59475697399E+02  0.13827773017E+01  0.60351218288E+02  0.00000000000E+00 0.  1.
         11    1    1    2    0    0 -0.13333572430E+02 -0.24250000423E+02  0.38247372598E+02  0.47209195978E+02  0.00000000000E+00 0. -1.
</event>
<event>
 7    1  0.2384639E-009  0.1316010E+03  0.7561462E-02  0.1225099E+00
          1   -1    0    0  501    0  0.00000000000E+00  0.00000000000E+00  0.50527403216E+02  0.50527403216E+02  0.00000000000E+00 0. -1.
         -1   -1    0    0    0  501 -0.00000000000E+00 -0.00000000000E+00 -0.61033140037E+03  0.61033140037E+03  0.00000000000E+00 0.  1.
         25    2    1    2    0    0 -0.79239197396E+02 -0.91889981911E+02 -0.17561014595E+03  0.24740904421E+03  0.12509873148E+03 0.  0.
          5    1    3    3  502    0 -0.18282710088E+02 -0.32547707526E+02  0.13568995610E+02  0.39939964887E+02  0.41800000000E+01 0.  1.
         -5    1    3    3    0  502 -0.60956487308E+02 -0.59342274386E+02 -0.18917914156E+03  0.20746907932E+03  0.41800000000E+01 0.  1.
        -11    1    1    2    0    0  0.61594982057E+01  0.60690473393E+02 -0.90087206381E+02  0.10879787559E+03  0.00000000000E+00 0. -1.
         11    1    1    2    0    0  0.73079699191E+02  0.31199508519E+02 -0.29410664483E+03  0.30465188379E+03  0.00000000000E+00 0.  1.
</event>
<event>
 7    1  0.2384639E-009  0.1353106E+03  0.7561462E-02  0.1219782E+00
          1   -1    0    0  501    0  0.00000000000E+00  0.00000000000E+00  0.22918140525E+02  0.22918140525E+02  0.00000000000E+00 0. -1.
         -1   -1    0    0    0  501 -0.00000000000E+00 -0.00000000000E+00 -0.94361105670E+03  0.94361105670E+03  0.00000000000E+00 0.  1.
         25    2    1    2    0    0  0.53011284953E+01  0.93811390682E+02 -0.59493035535E+03  0.61515735164E+03  0.12509100919E+03 0.  0.
          5    1    3    3  502    0 -0.44870327546E+02 -0.43326528730E+01 -0.14498977885E+03  0.15189347104E+03  0.41800000000E+01 0.  1.
         -5    1    3    3    0  502  0.50171456042E+02  0.98144043555E+02 -0.44994057650E+03  0.46326388060E+03  0.41800000000E+01 0.  1.
        -11    1    1    2    0    0 -0.30857445133E+02 -0.19598566036E+02 -0.36532488208E+02  0.51680832090E+02  0.00000000000E+00 0. -1.
         11    1    1    2    0    0  0.25556316638E+02 -0.74212824647E+02 -0.28923007262E+03  0.29969101350E+03  0.00000000000E+00 0.  1.
</event>
<event>
 7    1  0.3368512E-009  0.1021921E+03  0.7561462E-02  0.1275753E+00
          2   -1    0    0  501    0  0.00000000000E+00  0.00000000000E+00  0.43390578900E+03  0.43390578900E+03  0.00000000000E+00 0. -1.
         -2   -1    0    0    0  501 -0.00000000000E+00 -0.00000000000E+00 -0.41754101887E+02  0.41754101887E+02  0.00000000000E+00 0.  1.
         25    2    1    2    0    0 -0.84845360396E+01  0.50481433095E+02  0.32344850211E+03  0.35055190496E+03  0.12508933654E+03 0.  0.
          5    1    3    3  502    0  0.24472365093E+02  0.75520944083E+02  0.27707230121E+03  0.28825135238E+03  0.41800000000E+01 0.  1.
         -5    1    3    3    0  502 -0.32956901133E+02 -0.25039510988E+02  0.46376200900E+02  0.62300552587E+02  0.41800000000E+01 0.  1.
        -11    1    1    2    0    0 -0.28320502968E+02 -0.29620302733E+02 -0.38084169333E+01  0.41157226120E+02  0.00000000000E+00 0.  1.
         11    1    1    2    0    0  0.36805039007E+02 -0.20861130362E+02  0.72511601938E+02  0.83950759806E+02  0.00000000000E+00 0. -1.
</event>
<event>
 7    1  0.2384639E-009  0.8029860E+02  0.7561462E-02  0.1328206E+00
          3   -1    0    0  501    0  0.00000000000E+00  0.00000000000E+00  0.30004040018E+03  0.30004040018E+03  0.00000000000E+00 0. -1.
         -3   -1    0    0    0  501 -0.00000000000E+00 -0.00000000000E+00 -0.53151358706E+02  0.53151358706E+02  0.00000000000E+00 0.  1.
         25    2    1    2    0    0  0.16350281087E+02  0.50910368469E+02  0.18747382299E+03  0.23163100192E+03  0.12508912598E+03 0.  0.
          5    1    3    3  502    0  0.13422453530E+02  0.30644807405E+02 -0.83184477896E+01  0.34726581365E+02  0.41800000000E+01 0.  1.
         -5    1    3    3    0  502  0.29278275565E+01  0.20265561063E+02  0.19579227078E+03  0.19690442056E+03  0.41800000000E+01 0.  1.
        -11    1    1    2    0    0  0.22760262849E+02  0.16456545535E+02  0.13845195630E+02  0.31313525799E+02  0.00000000000E+00 0.  1.
         11    1    1    2    0    0 -0.39110543936E+02 -0.67366914004E+02  0.45570022853E+02  0.90247231161E+02  0.00000000000E+00 0. -1.
</event>
<event>
 7    1  0.2384639E-009  0.2018501E+03  0.7561462E-02  0.1148187E+00
         -2   -1    0    0    0  501 -0.00000000000E+00  0.00000000000E+00  0.40502451900E+02  0.40502451900E+02  0.00000000000E+00 0.  1.
          2   -1    0    0  501    0  0.00000000000E+00 -0.00000000000E+00 -0.10416655482E+04  0.10416655482E+04  0.00000000000E+00 0. -1.
         25    2    1    2    0    0  0.13734495815E+03 -0.98214695789E+02 -0.43058780081E+03  0.47912758627E+03  0.12509047014E+03 0.  0.
          5    1    3    3  502    0  0.10486680673E+03 -0.12813868780E+03 -0.33218974033E+03  0.37119276184E+03  0.41800000000E+01 0. -1.
         -5    1    3    3    0  502  0.32478151424E+02  0.29923992011E+02 -0.98398060480E+02  0.10793482443E+03  0.41800000000E+01 0. -1.
        -11    1    1    2    0    0 -0.16066316509E+02  0.66414424659E+02 -0.23807719579E+03  0.24768882390E+03  0.00000000000E+00 0. -1.
         11    1    1    2    0    0 -0.12127864165E+03  0.31800271130E+02 -0.33249809975E+03  0.35535158998E+03  0.00000000000E+00 0.  1.
</event>
<event>
 7    1  0.2384639E-009  0.1250214E+03  0.7561462E-02  0.1235036E+00
         -1   -1    0    0    0  501 -0.00000000000E+00  0.00000000000E+00  0.26519789902E+02  0.26519789902E+02  0.00000000000E+00 0. -1.
          1   -1    0    0  501    0  0.00000000000E+00 -0.00000000000E+00 -0.72307950337E+03  0.72307950337E+03  0.00000000000E+00 0.  1.
         25    2    1    2    0    0 -0.69100742935E+02 -0.45178459153E+02 -0.36750553446E+03  0.39689209518E+03  0.12508801506E+03 0.  0.
          5    1    3    3  502    0 -0.14218210291E+02  0.28182689494E+02 -0.20263786465E+02  0.37742746758E+02  0.41800000000E+01 0. -1.
         -5    1    3    3    0  502 -0.54882532645E+02 -0.73361148646E+02 -0.34724174800E+03  0.35914934842E+03  0.41800000000E+01 0. -1.
        -11    1    1    2    0    0 -0.74010077959E+01  0.49321278506E+02 -0.11473820140E+03  0.12510882579E+03  0.00000000000E+00 0. -1.
         11    1    1    2    0    0  0.76501750731E+02 -0.41428193532E+01 -0.21431597761E+03  0.22759837230E+03  0.00000000000E+00 0.  1.
</event>
<event>
 7    1  0.2384639E-009  0.1168472E+03  0.7561462E-02  0.1248391E+00
          2   -1    0    0  501    0  0.00000000000E+00  0.00000000000E+00  0.51555211965E+03  0.51555211965E+03  0.00000000000E+00 0. -1.
         -2   -1    0    0    0  501 -0.00000000000E+00 -0.00000000000E+00 -0.30237861152E+02  0.30237861152E+02  0.00000000000E+00 0.  1.
         25    2    1    2    0    0  0.50538362891E+02 -0.37965425818E+02  0.29942502792E+03  0.33060247681E+03  0.12508857121E+03 0.  0.
          5    1    3    3  502    0  0.65447279474E+02  0.21343530622E+02  0.21822715374E+03  0.22886558439E+03  0.41800000000E+01 0.  1.
         -5    1    3    3    0  502 -0.14908916583E+02 -0.59308956440E+02  0.81197874181E+02  0.10173689242E+03  0.41800000000E+01 0.  1.
        -11    1    1    2    0    0 -0.55072962521E+02  0.59703440325E+02  0.11421407021E+03  0.14015129618E+03  0.00000000000E+00 0. -1.
         11    1    1    2    0    0  0.45345996299E+01 -0.21738014507E+02  0.71675160366E+02  0.75036207807E+02  0.00000000000E+00 0.  1.
</event>
<event>
 7    1  0.2384639E-009  0.7489773E+02  0.7561462E-02  0.1344188E+00
          1   -1    0    0  501    0  0.00000000000E+00  0.00000000000E+00  0.36819962433E+03  0.36819962433E+03  0.00000000000E+00 0. -1.
         -1   -1    0    0    0  501 -0.00000000000E+00 -0.00000000000E+00 -0.42358069976E+02  0.42358069976E+02  0.00000000000E+00 0.  1.
         25    2    1    2    0    0 -0.54664574835E+02 -0.72544380153E+01  0.13667966594E+03  0.19331171968E+03  0.12508895744E+03 0.  0.
          5    1    3    3  502    0 -0.28750406693E+02  0.20696504254E+02  0.14886416825E+03  0.15307822890E+03  0.41800000000E+01 0. -1.
         -5    1    3    3    0  502 -0.25914168142E+02 -0.27950942269E+02 -0.12184502315E+02  0.40233490786E+02  0.41800000000E+01 0. -1.
        -11    1    1    2    0    0  0.35344728065E+02 -0.21327973122E+02  0.22427977047E+02  0.46980276647E+02  0.00000000000E+00 0.  1.
         11    1    1    2    0    0  0.19319846770E+02  0.28582411137E+02  0.16673391137E+03  0.17026569798E+03  0.00000000000E+00 0. -1.
</event>
<event>
 7    1  0.2384639E-009  0.8761877E+02  0.7561462E-02  0.1308723E+00
         -1   -1    0    0    0  501 -0.00000000000E+00  0.00000000000E+00  0.12058184368E+03  0.12058184368E+03  0.00000000000E+00 0.  1.
          1   -1    0    0  501    0  0.00000000000E+00 -0.00000000000E+00 -0.14117237716E+03  0.14117237716E+03  0.00000000000E+00 0. -1.
         25    2    1    2    0    0  0.44400116033E+02 -0.56641305837E+02 -0.14750874013E+02  0.14507250863E+03  0.12509531024E+03 0.  0.
          5    1    3    3  502    0  0.47087369363E+02 -0.54102476881E+02 -0.63572211933E+02  0.95933293951E+02  0.41800000000E+01 0. -1.
         -5    1    3    3    0  502 -0.26872533300E+01 -0.25388289554E+01  0.48821337920E+02  0.49139214679E+02  0.41800000000E+01 0. -1.
        -11    1    1    2    0    0 -0.55039173181E+02  0.18269049291E+02 -0.34629339794E+02  0.67544503263E+02  0.00000000000E+00 0. -1.
         11    1    1    2    0    0  0.10639057148E+02  0.38372256546E+02  0.28789680325E+02  0.49137208942E+02  0.00000000000E+00 0.  1.
</event>
<event>
 7    1  0.2384639E-009  0.1042100E+03  0.7561462E-02  0.1271684E+00
         -1   -1    0    0    0  501 -0.00000000000E+00  0.00000000000E+00  0.45265018000E+03  0.45265018000E+03  0.00000000000E+00 0. -1.
          1   -1    0    0  501    0  0.00000000000E+00 -0.00000000000E+00 -0.69964250508E+02  0.69964250508E+02  0.00000000000E+00 0.  1.
         25    2    1    2    0    0 -0.35897873392E+02 -0.55048520034E+02  0.19719269059E+02  0.14267240328E+03  0.12509024028E+03 0.  0.
          5    1    3    3  502    0 -0.29991100505E+02  0.16488112048E+02  0.53169785525E+02  0.63370517129E+02  0.41800000000E+01 0. -1.
         -5    1    3    3    0  502 -0.59067728869E+01 -0.71536632082E+02 -0.33450516466E+02  0.79301886153E+02  0.41800000000E+01 0. -1.
        -11    1    1    2    0    0  0.38908121126E+02  0.73596739023E+02  0.34109431761E+03  0.35110633060E+03  0.00000000000E+00 0.  1.
         11    1    1    2    0    0 -0.30102477341E+01 -0.18548218989E+02  0.21872342830E+02  0.28835696627E+02  0.00000000000E+00 0. -1.
</event>
<event>
 7    1  0.2384639E-009  0.1646170E+03  0.7561462E-02  0.1183581E+00
          1   -1    0    0  501    0  0.00000000000E+00  0.00000000000E+00  0.22433244165E+03  0.22433244165E+03  0.00000000000E+00 0.  1.
         -1   -1    0    0    0  501 -0.00000000000E+00 -0.00000000000E+00 -0.17361417003E+03  0.17361417003E+03  0.00000000000E+00 0. -1.
         25    2    1    2    0    0  0.10567778687E+03 -0.11097187367E+03  0.84296664171E+02  0.21502496053E+03  0.12508898703E+03 0.  0.
          5    1    3    3  502    0  0.88811487383E+02 -0.11081644611E+03  0.11295821194E+03  0.18150701106E+03  0.41800000000E+01 0.  1.
         -5    1    3    3    0  502  0.16866299491E+02 -0.15542755851E+00 -0.28661547767E+02  0.33517949470E+02  0.41800000000E+01 0.  1.
        -11    1    1    2    0    0 -0.61023556534E+02  0.10919834438E+03  0.30646989718E+01  0.12513011327E+03  0.00000000000E+00 0.  1.
         11    1    1    2    0    0 -0.44654230339E+02  0.17735292957E+01 -0.36643091531E+02  0.57791537878E+02  0.00000000000E+00 0. -1.
</event>
<event>
 7    1  0.2384639E-009  0.1228371E+03  0.7561462E-02  0.1238489E+00
          3   -1    0    0  501    0  0.00000000000E+00  0.00000000000E+00  0.84762127440E+02  0.84762127440E+02  0.00000000000E+00 0. -1.
         -3   -1    0    0    0  501 -0.00000000000E+00 -0.00000000000E+00 -0.26351324713E+03  0.26351324713E+03  0.00000000000E+00 0.  1.
         25    2    1    2    0    0  0.18789478899E+02 -0.10111726665E+03 -0.95117516400E+02  0.18781006730E+03  0.12509010081E+03 0.  0.
          5    1    3    3  502    0  0.71092818680E+01 -0.10036712842E+03 -0.93408010754E+01  0.10113765530E+03  0.41800000000E+01 0.  1.
         -5    1    3    3    0  502  0.11680197031E+02 -0.75013823547E+00 -0.85776715325E+02  0.86672412000E+02  0.41800000000E+01 0.  1.
        -11    1    1    2    0    0 -0.48961295597E+02  0.35996658335E+02 -0.58689992269E+02  0.84483626049E+02  0.00000000000E+00 0.  1.
         11    1    1    2    0    0  0.30171816698E+02  0.65120608316E+02 -0.24943611021E+02  0.75981681220E+02  0.00000000000E+00 0. -1.
</event>
<event>
 7    1  0.2384639E-009  0.7945404E+02  0.7561462E-02  0.1330608E+00
          2   -1    0    0  501    0  0.00000000000E+00  0.00000000000E+00  0.25217054721E+03  0.25217054721E+03  0.00000000000E+00 0. -1.
         -2   -1    0    0    0  501 -0.00000000000E+00 -0.00000000000E+00 -0.59708496577E+02  0.59708496577E+02  0.00000000000E+00 0.  1.
         25    2    1    2    0    0  0.28246106765E+02  0.43821088091E+01  0.41325087393E+02  0.13480477861E+03  0.12509004782E+03 0.  0.
          5    1    3    3  502    0  0.25265117957E+02  0.53709021625E+02  0.57395875973E+02  0.82672511562E+02  0.41800000000E+01 0. -1.
         -5    1    3    3    0  502  0.29809888079E+01 -0.49326912815E+02 -0.16070788579E+02  0.52132267050E+02  0.41800000000E+01 0. -1.
        -11    1    1    2    0    0 -0.38681742893E+02 -0.63324192413E+01  0.15906571966E+03  0.16382392969E+03  0.00000000000E+00 0. -1.
         11    1    1    2    0    0  0.10435636128E+02  0.19503104322E+01 -0.79287564219E+01  0.13250335489E+02  0.00000000000E+00 0.  1.
</event>
<event>
 7    1  0.2384639E-009  0.1443693E+03  0.7561462E-02  0.1207568E+00
         -2   -1    0    0    0  501 -0.00000000000E+00  0.00000000000E+00  0.26313366836E+02  0.26313366836E+02  0.00000000000E+00 0.  1.
          2   -1    0    0  501    0  0.00000000000E+00 -0.00000000000E+00 -0.90544099910E+03  0.90544099910E+03  0.00000000000E+00 0. -1.
         25    2    1    2    0    0  0.10451038194E+03 -0.29145422197E+02 -0.52057526015E+03  0.54627757054E+03  0.12509479220E+03 0.  0.
          5    1    3    3  502    0  0.10485960984E+03  0.23779943052E+02 -0.28118123942E+03  0.30106707769E+03  0.41800000000E+01 0. -1.
         -5    1    3    3    0  502 -0.34922790188E+00 -0.52925365249E+02 -0.23939402073E+03  0.24521049286E+03  0.41800000000E+01 0. -1.
        -11    1    1    2    0    0 -0.10556105763E+03  0.69135889902E+01 -0.34129367075E+03  0.35731261424E+03  0.00000000000E+00 0. -1.
         11    1    1    2    0    0  0.10506756904E+01  0.22231833207E+02 -0.17258701369E+02  0.28164181154E+02  0.00000000000E+00 0.  1.
</event>
<event>
 7    1  0.2384639E-009  0.1153897E+03  0.7561462E-02  0.1250902E+00
          3   -1    0    0  501    0  0.00000000000E+00  0.00000000000E+00  0.75242422221E+02  0.75242422221E+02  0.00000000000E+00 0. -1.
         -3   -1    0    0    0  501 -0.00000000000E+00 -0.00000000000E+00 -0.29557467612E+03  0.29557467612E+03  0.00000000000E+00 0.  1.
         25    2    1    2    0    0 -0.65598793948E+02 -0.76263207120E+02 -0.10571940925E+03  0.19220637917E+03  0.12508964855E+03 0.  0.
          5    1    3    3  502    0 -0.56499903078E+02 -0.67612976098E+01  0.89410715275E+01  0.57752656677E+02  0.41800000000E+01 0. -1.
         -5    1    3    3    0  502 -0.90988908706E+01 -0.69501909510E+02 -0.11466048077E+03  0.13445372249E+03  0.41800000000E+01 0. -1.
        -11    1    1    2    0    0  0.56521436863E+02  0.49120741344E+02 -0.12699350493E+03  0.14742750880E+03  0.00000000000E+00 0.  1.
         11    1    1    2    0    0  0.90773570857E+01  0.27142465776E+02  0.12380660283E+02  0.31183210372E+02  0.00000000000E+00 0. -1.
</event>
<event>
 7    1  0.2384639E-009  0.1060257E+03  0.7561462E-02  0.1268112E+00
         -2   -1    0    0    0  501 -0.00000000000E+00  0.00000000000E+00  0.48321344821E+02  0.48321344821E+02  0.00000000000E+00 0.  1.
          2   -1    0    0  501    0  0.00000000000E+00 -0.00000000000E+00 -0.27842413686E+03  0.27842413686E+03  0.00000000000E+00 0. -1.
         25    2    1    2    0    0 -0.14353613174E+02 -0.67914043251E+01 -0.77956428367E+02  0.14823584072E+03  0.12507801712E+03 0.  0.
          5    1    3    3  502    0  0.29209583021E+02  0.47749587208E+02 -0.36113604108E+02  0.66744944532E+02  0.41800000000E+01 0. -1.
         -5    1    3    3    0  502 -0.43563196196E+02 -0.54540991533E+02 -0.41842824259E+02  0.81490896192E+02  0.41800000000E+01 0. -1.
        -11    1    1    2    0    0 -0.31709118094E+02 -0.14949644421E+02 -0.29898249155E+02  0.46074562843E+02  0.00000000000E+00 0.  1.
         11    1    1    2    0    0  0.46062731268E+02  0.21741048746E+02 -0.12224811452E+03  0.13243507812E+03  0.00000000000E+00 0. -1.
</event>
<event>
 7    1  0.2384639E-009  0.8010877E+02  0.7561462E-02  0.1328743E+00
         -2   -1    0    0    0  501 -0.00000000000E+00  0.00000000000E+00  0.25118970027E+02  0.25118970027E+02  0.00000000000E+00 0.  1.
          2   -1    0    0  501    0  0.00000000000E+00 -0.00000000000E+00 -0.55947279901E+03  0.55947279901E+03  0.00000000000E+00 0. -1.
         25    2    1    2    0    0 -0.23498422856E+02 -0.17804938390E+02 -0.39049839207E+03  0.41110336281E+03  0.12509112278E+03 0.  0.
          5    1    3    3  502    0 -0.32104937647E+02  0.15743798089E+02 -0.24733497687E+02  0.43678513109E+02  0.41800000000E+01 0. -1.
         -5    1    3    3    0  502  0.86065147905E+01 -0.33548736479E+02 -0.36576489438E+03  0.36742484970E+03  0.41800000000E+01 0. -1.
        -11    1    1    2    0    0  0.30690683405E+02 -0.28851433600E+02 -0.34745054425E+02  0.54603498749E+02  0.00000000000E+00 0.  1.
         11    1    1    2    0    0 -0.71922605482E+01  0.46656371990E+02 -0.10911038249E+03  0.11888490748E+03  0.00000000000E+00 0. -1.
</event>
<event>
 7    1  0.2384639E-009  0.1566570E+03  0.7561462E-02  0.1192524E+00
          2   -1    0    0  501    0  0.00000000000E+00  0.00000000000E+00  0.76099187331E+03  0.76099187331E+03  0.00000000000E+00 0. -1.
         -2   -1    0    0    0  501 -0.00000000000E+00 -0.00000000000E+00 -0.43149495135E+02  0.43149495135E+02  0.00000000000E+00 0.  1.
         25    2    1    2    0    0  0.98446759931E+02 -0.54828890709E+02  0.22977013461E+03  0.28485012708E+03  0.12508920155E+03 0.  0.
          5    1    3    3  502    0  0.44747493970E+02  0.20227980565E+02  0.16453070892E+03  0.17175370736E+03  0.41800000000E+01 0. -1.
         -5    1    3    3    0  502  0.53699265960E+02 -0.75056871274E+02  0.65239425689E+02  0.11309641972E+03  0.41800000000E+01 0. -1.
        -11    1    1    2    0    0 -0.12838724190E+03  0.59217306306E+02  0.44290269796E+03  0.46492233019E+03  0.00000000000E+00 0. -1.
         11    1    1    2    0    0  0.29940481967E+02 -0.43884155968E+01  0.45169545607E+02  0.54368911173E+02  0.00000000000E+00 0.  1.
</event>
<event>
 7    1  0.2384639E-009  0.1161068E+03  0.7561462E-02  0.1249661E+00
         -3   -1    0    0    0  501 -0.00000000000E+00  0.00000000000E+00  0.51561748999E+03  0.51561748999E+03  0.00000000000E+00 0.  1.
          3   -1    0    0  501    0  0.00000000000E+00 -0.00000000000E+00 -0.94917383283E+02  0.94917383283E+02  0.00000000000E+00 0. -1.
         25    2    1    2    0    0  0.10517646965E+03  0.34827032013E+02  0.43515130258E+03  0.46613171714E+03  0.12508840740E+03 0.  0.
          5    1    3    3  502    0  0.64128344035E+02  0.39681909620E+02  0.41140185740E+03  0.41827749059E+03  0.41800000000E+01 0.  1.
         -5    1    3    3    0  502  0.41048125615E+02 -0.48548776069E+01  0.23749445175E+02  0.47854226555E+02  0.41800000000E+01 0.  1.
        -11    1    1    2    0    0 -0.35069949219E+02 -0.27665557079E+02  0.36300518120E+02  0.57558769987E+02  0.00000000000E+00 0.  1.
         11    1    1    2    0    0 -0.70106520431E+02 -0.71614749343E+01 -0.50751713995E+02  0.86844386137E+02  0.00000000000E+00 0. -1.
</event>
<event>
 7    1  0.2384639E-009  0.8340062E+02  0.7561462E-02  0.1319669E+00
          3   -1    0    0  501    0  0.00000000000E+00  0.00000000000E+00  0.37463335553E+02  0.37463335553E+02  0.00000000000E+00 0. -1.
         -3   -1    0    0    0  501 -0.00000000000E+00 -0.00000000000E+00 -0.44189331775E+03  0.44189331775E+03  0.00000000000E+00 0.  1.
         25    2    1    2    0    0 -0.32739721426E+02  0.37368397287E+02 -0.31469473398E+03  0.34226944659E+03  0.12508921615E+03 0.  0.
          5    1    3    3  502    0  0.79180565719E+01 -0.54650888236E+01  0.86209012401E+01  0.13577744802E+02  0.41800000000E+01 0. -1.
         -5    1    3    3    0  502 -0.40657777998E+02  0.42833486110E+02 -0.32331563522E+03  0.32869170179E+03  0.41800000000E+01 0. -1.
        -11    1    1    2    0    0  0.18765373941E+02  0.26084392249E+02 -0.54257444564E+02  0.63058743000E+02  0.00000000000E+00 0.  1.
         11    1    1    2    0    0  0.13974347485E+02 -0.63452789536E+02 -0.35477803645E+02  0.74028463708E+02  0.00000000000E+00 0. -1.
</event>
<event>
 7    1  0.2384639E-009  0.1097621E+03  0.7561462E-02  0.1261011E+00
         -2   -1    0    0    0  501 -0.00000000000E+00  0.00000000000E+00  0.84903102331E+01  0.84903102331E+01  0.00000000000E+00 0.  1.
          2   -1    0    0  501    0  0.00000000000E+00 -0.00000000000E+00 -0.28965388373E+04  0.28965388373E+04  0.00000000000E+00 0. -1.
         25    2    1    2    0    0  0.50752635289E+02 -0.22325304397E+00 -0.25497321437E+04  0.25533033482E+04  0.12509237923E+03 0.  0.
          5    1    3    3  502    0 -0.55507414680E+01  0.50809722886E+02 -0.14690173517E+04  0.14699122051E+04  0.41800000000E+01 0.  1.
         -5    1    3    3    0  502  0.56303376757E+02 -0.51032975930E+02 -0.10807147920E+04  0.10833911431E+04  0.41800000000E+01 0.  1.
        -11    1    1    2    0    0 -0.43479063693E+02 -0.35220458098E+02 -0.15301235334E+03  0.16292234323E+03  0.00000000000E+00 0.  1.
         11    1    1    2    0    0 -0.72735715956E+01  0.35443711142E+02 -0.18530403000E+03  0.18880345611E+03  0.00000000000E+00 0. -1.
</event>
<event>
 7    1  0.2384639E-009  0.1263545E+03  0.7561462E-02  0.1232967E+00
         -1   -1    0    0    0  501 -0.00000000000E+00  0.00000000000E+00  0.12768956905E+03  0.12768956905E+03  0.00000000000E+00 0.  1.
          1   -1    0    0  501    0  0.00000000000E+00 -0.00000000000E+00 -0.14194950791E+03  0.14194950791E+03  0.00000000000E+00 0. -1.
         25    2    1    2    0    0  0.66334235949E+02  0.28988868185E+02  0.25708021671E+02  0.14679378644E+03  0.12508768133E+03 0.  0.
          5    1    3    3  502    0  0.10253505018E+03  0.26622008183E+02  0.83081100092E+01  0.10634220670E+03  0.41800000000E+01 0.  1.
         -5    1    3    3    0  502 -0.36200814228E+02  0.23668600021E+01  0.17399911661E+02  0.40451579733E+02  0.41800000000E+01 0.  1.
        -11    1    1    2    0    0 -0.68709358005E+02 -0.52544920090E+02 -0.13860930031E+02  0.87601768739E+02  0.00000000000E+00 0.  1.
         11    1    1    2    0    0  0.23751220561E+01  0.23556051905E+02 -0.26107030505E+02  0.35243521786E+02  0.00000000000E+00 0. -1.
</event>
<event>
 7    1  0.2384639E-009  0.1263313E+03  0.7561462E-02  0.1233003E+00
         -2   -1    0    0    0  501 -0.00000000000E+00  0.00000000000E+00  0.44593037000E+03  0.44593037000E+03  0.00000000000E+00 0.  1.
          2   -1    0    0  501    0  0.00000000000E+00 -0.00000000000E+00 -0.50870028849E+02  0.50870028849E+02  0.00000000000E+00 0. -1.
         25    2    1    2    0    0 -0.79759333944E+02  0.57838131817E+02  0.27699208506E+03  0.31950282360E+03  0.12510251100E+03 0.  0.
          5    1    3    3  502    0 -0.82277326034E+02 -0.12316365117E+02  0.10746650231E+03  0.13596974939E+03  0.41800000000E+01 0. -1.
         -5    1    3    3    0  502  0.25179920903E+01  0.70154496935E+02  0.16952558275E+03  0.18353307421E+03  0.41800000000E+01 0. -1.
        -11    1    1    2    0    0  0.63768565271E+02 -0.50972648471E+02  0.29139175558E+02  0.86681787943E+02  0.00000000000E+00 0. -1.
         11    1    1    2    0    0  0.15990768673E+02 -0.68654833467E+01  0.88929080533E+02  0.90615787304E+02  0.00000000000E+00 0.  1.
</event>
<event>
 7    1  0.2384639E-009  0.1916005E+03  0.7561462E-02  0.1157026E+00
          2   -1    0    0  501    0  0.00000000000E+00  0.00000000000E+00  0.69977774776E+02  0.69977774776E+02  0.00000000000E+00 0. -1.
         -2   -1    0    0    0  501 -0.00000000000E+00 -0.00000000000E+00 -0.69263890547E+03  0.69263890547E+03  0.00000000000E+00 0.  1.
         25    2    1    2    0    0 -0.14588481369E+03 -0.91694790616E+02 -0.45902651503E+03  0.50600564096E+03  0.12508418643E+03 0.  0.
          5    1    3    3  502    0 -0.11479523317E+03 -0.12106537924E+03 -0.39592419286E+03  0.42966057592E+03  0.41800000000E+01 0.  1.
         -5    1    3    3    0  502 -0.31089580524E+02  0.29370588625E+02 -0.63102322168E+02  0.76345065042E+02  0.41800000000E+01 0.  1.
        -11    1    1    2    0    0  0.11485224992E+03  0.80889258943E+02 -0.69149791601E+02  0.15657523815E+03  0.00000000000E+00 0. -1.
         11    1    1    2    0    0  0.31032563772E+02  0.10805531674E+02 -0.94484824066E+02  0.10003580113E+03  0.00000000000E+00 0.  1.
</event>
<event>
 7    1  0.2384639E-009  0.1771406E+03  0.7561462E-02  0.1170599E+00
         -1   -1    0    0    0  501 -0.00000000000E+00  0.00000000000E+00  0.79395169580E+02  0.79395169580E+02  0.00000000000E+00 0.  1.
          1   -1    0    0  501    0  0.00000000000E+00 -0.00000000000E+00 -0.55575015673E+03  0.55575015673E+03  0.00000000000E+00 0. -1.
         25    2    1    2    0    0  0.15031539887E+03 -0.48813043909E+02 -0.38066971653E+03  0.43073820854E+03  0.12509411984E+03 0.  0.
          5    1    3    3  502    0  0.70989353444E+01  0.30991090514E+02 -0.31402687560E+02  0.44882555188E+02  0.41800000000E+01 0.  1.
         -5    1    3    3    0  502  0.14321646353E+03 -0.79804134423E+02 -0.34926702898E+03  0.38585565336E+03  0.41800000000E+01 0.  1.
        -11    1    1    2    0    0 -0.10138107273E+03  0.29311578505E+02 -0.12949201858E+02  0.10632484362E+03  0.00000000000E+00 0.  1.
         11    1    1    2    0    0 -0.48934326146E+02  0.19501465405E+02 -0.82736068758E+02  0.98082274147E+02  0.00000000000E+00 0. -1.
</event>
<event>
 7    1  0.2384639E-009  0.1125112E+03  0.7561462E-02  0.1255989E+00
         -2   -1    0    0    0  501 -0.00000000000E+00  0.00000000000E+00  0.90297919298E+02  0.90297919298E+02  0.00000000000E+00 0.  1.
          2   -1    0    0  501    0  0.00000000000E+00 -0.00000000000E+00 -0.16389778852E+03  0.16389778852E+03  0.00000000000E+00 0. -1.
         25    2    1    2    0    0  0.43414342387E+02  0.12557818583E+02 -0.72183072159E+02  0.15132809609E+03  0.12508913952E+03 0.  0.
          5    1    3    3  502    0 -0.28687547177E+02  0.41484824295E+02 -0.96744365673E+01  0.51527013621E+02  0.41800000000E+01 0. -1.
         -5    1    3    3    0  502  0.72101889564E+02 -0.28927005711E+02 -0.62508635592E+02  0.99801082467E+02  0.41800000000E+01 0. -1.
        -11    1    1    2    0    0  0.22937846638E+02 -0.19219303768E+02  0.16014910274E+02  0.33941181429E+02  0.00000000000E+00 0.  1.
         11    1    1    2    0    0 -0.66352189024E+02  0.66614851849E+01 -0.17431707336E+02  0.68926430300E+02  0.00000000000E+00 0. -1.
</event>
<event>
 7    1  0.2384639E-009  0.1490318E+03  0.7561462E-02  0.1201668E+00
          2   -1    0    0  501    0  0.00000000000E+00  0.00000000000E+00  0.60649249258E+03  0.60649249258E+03  0.00000000000E+00 0.  1.
         -2   -1    0    0    0  501 -0.00000000000E+00 -0.00000000000E+00 -0.43082301895E+02  0.43082301895E+02  0.00000000000E+00 0. -1.
         25    2    1    2    0    0 -0.22389632624E+02 -0.10302904685E+03  0.37092624802E+03  0.40540107412E+03  0.12508984487E+03 0.  0.
          5    1    3    3  502    0  0.45297433815E+02 -0.11465892615E+02  0.14445623749E+03  0.15188285339E+03  0.41800000000E+01 0. -1.
         -5    1    3    3    0  502 -0.67687066440E+02 -0.91563154232E+02  0.22647001052E+03  0.25351822073E+03  0.41800000000E+01 0. -1.
        -11    1    1    2    0    0  0.27270050210E+02 -0.61219428541E+01  0.68556793670E+01  0.28777320277E+02  0.00000000000E+00 0. -1.
         11    1    1    2    0    0 -0.48804175857E+01  0.10915098970E+03  0.18562826330E+03  0.21539640007E+03  0.00000000000E+00 0.  1.
</event>
<event>
 7    1  0.2384639E-009  0.1098417E+03  0.7561462E-02  0.1260863E+00
          1   -1    0    0  501    0  0.00000000000E+00  0.00000000000E+00  0.21568984894E+03  0.21568984894E+03  0.00000000000E+00 0. -1.
         -1   -1    0    0    0  501 -0.00000000000E+00 -0.00000000000E+00 -0.81092167858E+02  0.81092167858E+02  0.00000000000E+00 0.  1.
         25    2    1    2    0    0  0.52918928419E+02 -0.38397683553E+02  0.11703253772E+03  0.18335547602E+03  0.12509124915E+03 0.  0.
          5    1    3    3  502    0  0.39519988334E+02  0.24794241239E+02 -0.30467306329E+01  0.46939736302E+02  0.41800000000E+01 0. -1.
         -5    1    3    3    0  502  0.13398940085E+02 -0.63191924792E+02  0.12007926835E+03  0.13641573971E+03  0.41800000000E+01 0. -1.
        -11    1    1    2    0    0  0.15541976089E+02  0.36446530279E+02 -0.78170351729E+01  0.40385747846E+02  0.00000000000E+00 0.  1.
         11    1    1    2    0    0 -0.68460904507E+02  0.19511532733E+01  0.25382178534E+02  0.73040792933E+02  0.00000000000E+00 0. -1.
</event>
<event>
 7    1  0.2384639E-009  0.1591632E+03  0.7561462E-02  0.1189645E+00
         -1   -1    0    0    0  501 -0.00000000000E+00  0.00000000000E+00  0.61058289291E+03  0.61058289291E+03  0.00000000000E+00 0.  1.
          1   -1    0    0  501    0  0.00000000000E+00 -0.00000000000E+00 -0.69187699276E+02  0.69187699276E+02  0.00000000000E+00 0. -1.
         25    2    1    2    0    0  0.88264671012E+02 -0.10481249475E+03  0.46043037658E+03  0.49640743134E+03  0.12509154653E+03 0.  0.
          5    1    3    3  502    0  0.10426808464E+03 -0.35890434196E+02  0.33000888153E+03  0.34797024446E+03  0.41800000000E+01 0. -1.
         -5    1    3    3    0  502 -0.16003413631E+02 -0.68922060558E+02  0.13042149505E+03  0.14843718688E+03  0.41800000000E+01 0. -1.
        -11    1    1    2    0    0 -0.57328167343E+02  0.71265430621E+02  0.98555377688E+02  0.13445610006E+03  0.00000000000E+00 0.  1.
         11    1    1    2    0    0 -0.30936503669E+02  0.33547064134E+02 -0.17590560628E+02  0.48907060783E+02  0.00000000000E+00 0. -1.
</event>
<event>
 7    1  0.2384639E-009  0.3010177E+03  0.7561462E-02  0.1084733E+00
          2   -1    0    0  501    0  0.00000000000E+00  0.00000000000E+00  0.17209075208E+04  0.17209075208E+04  0.00000000000E+00 0. -1.
         -2   -1    0    0    0  501 -0.00000000000E+00 -0.00000000000E+00 -0.60875160639E+02  0.60875160639E+02  0.00000000000E+00 0.  1.
         25    2    1    2    0    0 -0.12537095004E+03 -0.27201623926E+03  0.97639351712E+03  0.10289332408E+04  0.12509438119E+03 0.  0.
          5    1    3    3  502    0 -0.16613951431E+02 -0.12895307904E+02  0.23631708076E+03  0.23728789983E+03  0.41800000000E+01 0.  1.
         -5    1    3    3    0  502 -0.10875699861E+03 -0.25912093136E+03  0.74007643636E+03  0.79164534097E+03  0.41800000000E+01 0.  1.
        -11    1    1    2    0    0  0.42753259962E+02  0.97200646288E+02  0.36501202434E+03  0.38014416317E+03  0.00000000000E+00 0. -1.
         11    1    1    2    0    0  0.82617690076E+02  0.17481559298E+03  0.31862681868E+03  0.37270527745E+03  0.00000000000E+00 0.  1.
</event>
<event>
 7    1  0.2384639E-009  0.1918712E+03  0.7561462E-02  0.1156784E+00
          2   -1    0    0  501    0  0.00000000000E+00  0.00000000000E+00  0.27289453398E+03  0.27289453398E+03  0.00000000000E+00 0. -1.
         -2   -1    0    0    0  501 -0.00000000000E+00 -0.00000000000E+00 -0.23215449883E+03  0.23215449883E+03  0.00000000000E+00 0.  1.
         25    2    1    2    0    0  0.11621777146E+03 -0.11043956686E+03  0.18164558915E+03  0.27266505720E+03  0.12509054731E+03 0.  0.
          5    1    3    3  502    0  0.86233690641E+02  0.11738156925E+01  0.62242722512E+02  0.10643897853E+03  0.41800000000E+01 0.  1.
         -5    1    3    3    0  502  0.29984080824E+02 -0.11161338255E+03  0.11940286664E+03  0.16622607867E+03  0.41800000000E+01 0.  1.
        -11    1    1    2    0    0 -0.23921502862E+02  0.81633390850E+02 -0.45153170240E+02  0.96307100380E+02  0.00000000000E+00 0.  1.
         11    1    1    2    0    0 -0.92296268602E+02  0.28806176011E+02 -0.95752383762E+02  0.13607687522E+03  0.00000000000E+00 0. -1.
</event>
<event>
 7    1  0.2384639E-009  0.1643650E+03  0.7561462E-02  0.1183855E+00
          2   -1    0    0  501    0  0.00000000000E+00  0.00000000000E+00  0.56170777917E+03  0.56170777917E+03  0.00000000000E+00 0. -1.
         -2   -1    0    0    0  501 -0.00000000000E+00 -0.00000000000E+00 -0.60701957903E+02  0.60701957903E+02  0.00000000000E+00 0.  1.
         25    2    1    2    0    0  0.14244693436E+03  0.31928144803E+02  0.21412932693E+03  0.28776513743E+03  0.12508744992E+03 0.  0.
          5    1    3    3  502    0  0.70007919739E+02  0.68052652588E+02  0.62994859866E+02  0.11626735191E+03  0.41800000000E+01 0.  1.
         -5    1    3    3    0  502  0.72439014623E+02 -0.36124507785E+02  0.15113446706E+03  0.17149778552E+03  0.41800000000E+01 0.  1.
        -11    1    1    2    0    0 -0.90085094261E+02 -0.36911805161E+02  0.96274285891E+02  0.13691801814E+03  0.00000000000E+00 0.  1.
         11    1    1    2    0    0 -0.52361840101E+02  0.49836603589E+01  0.19060220844E+03  0.19772658150E+03  0.00000000000E+00 0. -1.
</event>
<event>
 7    1  0.2384639E-009  0.1067436E+03  0.7561462E-02  0.1266722E+00
         -1   -1    0    0    0  501 -0.00000000000E+00  0.00000000000E+00  0.74267147661E+03  0.74267147661E+03  0.00000000000E+00 0.  1.
          1   -1    0    0  501    0  0.00000000000E+00 -0.00000000000E+00 -0.23986910551E+02  0.23986910551E+02  0.00000000000E+00 0. -1.
         25    2    1    2    0    0  0.16719278674E+01 -0.20003513208E+02  0.61214918836E+03  0.62512367501E+03  0.12510013733E+03 0.  0.
          5    1    3    3  502    0  0.45233615148E+02  0.29555213388E+02  0.37631263201E+03  0.38019502888E+03  0.41800000000E+01 0. -1.
         -5    1    3    3    0  502 -0.43561687281E+02 -0.49558726595E+02  0.23583655635E+03  0.24492864613E+03  0.41800000000E+01 0. -1.
        -11    1    1    2    0    0 -0.46177039477E+02  0.62629289491E+01  0.52953699844E+02  0.70538199446E+02  0.00000000000E+00 0.  1.
         11    1    1    2    0    0  0.44505111610E+02  0.13740584258E+02  0.53581677862E+02  0.70996512714E+02  0.00000000000E+00 0. -1.
</event>
<event>
 7    1  0.2384639E-009  0.5161674E+02  0.7561462E-02  0.1436811E+00
          2   -1    0    0  501    0  0.00000000000E+00  0.00000000000E+00  0.38089658942E+03  0.38089658942E+03  0.00000000000E+00 0. -1.
         -2   -1    0    0    0  501 -0.00000000000E+00 -0.00000000000E+00 -0.36486083280E+02  0.36486083280E+02  0.00000000000E+00 0.  1.
         25    2    1    2    0    0 -0.20277665099E+02  0.46221358372E+02  0.17865354930E+03  0.22385432028E+03  0.12508424505E+03 0.  0.
          5    1    3    3  502    0 -0.19437333764E+01  0.18182114119E+02 -0.16996686361E+02  0.25312588183E+02  0.41800000000E+01 0. -1.
         -5    1    3    3    0  502 -0.18333931723E+02  0.28039244253E+02  0.19565023566E+03  0.19854173210E+03  0.41800000000E+01 0. -1.
        -11    1    1    2    0    0  0.30873256758E+01 -0.12364578176E+02 -0.84108761095E+01  0.15269486246E+02  0.00000000000E+00 0.  1.
         11    1    1    2    0    0  0.17190339424E+02 -0.33856780197E+02  0.17416783295E+03  0.17825886617E+03  0.00000000000E+00 0. -1.
</event>
<event>
 7    1  0.2384639E-009  0.1388377E+03  0.7561462E-02  0.1214902E+00
         -3   -1    0    0    0  501 -0.00000000000E+00  0.00000000000E+00  0.33176021681E+03  0.33176021681E+03  0.00000000000E+00 0.  1.
          3   -1    0    0  501    0  0.00000000000E+00 -0.00000000000E+00 -0.69064427028E+02  0.69064427028E+02  0.00000000000E+00 0. -1.
         25    2    1    2    0    0  0.72984606951E+02 -0.69498416464E+02  0.18739620049E+03  0.24682371318E+03  0.12509127343E+03 0.  0.
          5    1    3    3  502    0  0.40837732378E+02  0.31424361126E+02  0.40488452107E+02  0.65665805500E+02  0.41800000000E+01 0. -1.
         -5    1    3    3    0  502  0.32146874573E+02 -0.10092277759E+03  0.14690774838E+03  0.18115790768E+03  0.41800000000E+01 0. -1.
        -11    1    1    2    0    0 -0.68907653157E+02  0.22045616178E+02  0.77885130359E+02  0.10630318616E+03  0.00000000000E+00 0.  1.
         11    1    1    2    0    0 -0.40769537937E+01  0.47452800285E+02 -0.25855410702E+01  0.47697744493E+02  0.00000000000E+00 0. -1.
</event>
<event>
 7    1  0.2649584E-009  0.1119291E+03  0.7561462E-02  0.1257039E+00
         -2   -1    0    0    0  501 -0.00000000000E+00  0.00000000000E+00  0.14618406734E+02  0.14618406734E+02  0.00000000000E+00 0.  1.
          2   -1    0    0  501    0  0.00000000000E+00 -0.00000000000E+00 -0.87873346427E+03  0.87873346427E+03  0.00000000000E+00 0. -1.
         25    2    1    2    0    0  0.12997709239E+02 -0.26238908906E+02 -0.42635473121E+03  0.44529028747E+03  0.12509061717E+03 0.  0.
          5    1    3    3  502    0 -0.35956158427E+02 -0.59054204626E+02 -0.22032447624E+03  0.23095582185E+03  0.41800000000E+01 0. -1.
         -5    1    3    3    0  502  0.48953867666E+02  0.32815295720E+02 -0.20603025497E+03  0.21433446562E+03  0.41800000000E+01 0. -1.
        -11    1    1    2    0    0 -0.34932459368E+02 -0.22850696079E+02 -0.19534090317E+03  0.19975109381E+03  0.00000000000E+00 0. -1.
         11    1    1    2    0    0  0.21934750129E+02  0.49089604985E+02 -0.24241942316E+03  0.24831048972E+03  0.00000000000E+00 0.  1.
</event>
<event>
 7    1  0.2384639E-009  0.1276061E+03  0.7561462E-02  0.1231052E+00
         -2   -1    0    0    0  501 -0.00000000000E+00  0.00000000000E+00  0.60206623692E+02  0.60206623692E+02  0.00000000000E+00 0.  1.
          2   -1    0    0  501    0  0.00000000000E+00 -0.00000000000E+00 -0.39890726560E+03  0.39890726560E+03  0.00000000000E+00 0. -1.
         25    2    1    2    0    0  0.18453072197E+02  0.10731495001E+03 -0.15982238609E+03  0.23032428551E+03  0.12509623109E+03 0.  0.
          5    1    3    3  502    0  0.31363027139E+02  0.11801130347E+03 -0.74134181142E+02  0.14291135866E+03  0.41800000000E+01 0. -1.
         -5    1    3    3    0  502 -0.12909954942E+02 -0.10696353467E+02 -0.85688204952E+02  0.87412926858E+02  0.41800000000E+01 0. -1.
        -11    1    1    2    0    0 -0.26750243734E+02 -0.41211485479E+02 -0.14196133870E+02  0.51141883932E+02  0.00000000000E+00 0.  1.
         11    1    1    2    0    0  0.82971715373E+01 -0.66103464529E+02 -0.16468212194E+03  0.17764771984E+03  0.00000000000E+00 0. -1.
</event>
<event>
 7    1  0.2384639E-009  0.1287143E+03  0.7561462E-02  0.1229376E+00
          2   -1    0    0  501    0  0.00000000000E+00  0.00000000000E+00  0.55846049969E+03  0.55846049969E+03  0.00000000000E+00 0.  1.
         -2   -1    0    0    0  501 -0.00000000000E+00 -0.00000000000E+00 -0.31877198656E+02  0.31877198656E+02  0.00000000000E+00 0. -1.
         25    2    1    2    0    0  0.70315716764E+02 -0.74481244088E+00  0.22049033673E+03  0.26307499181E+03  0.12509039914E+03 0.  0.
          5    1    3    3  502    0 -0.35759048888E+02 -0.71542079414E+01  0.47867624834E+02  0.60321423855E+02  0.41800000000E+01 0. -1.
         -5    1    3    3    0  502  0.10607476565E+03  0.64093955006E+01  0.17262271189E+03  0.20275356796E+03  0.41800000000E+01 0. -1.
        -11    1    1    2    0    0 -0.53352349475E+02  0.43202436781E+02  0.20803292482E+03  0.21906761867E+03  0.00000000000E+00 0.  1.
         11    1    1    2    0    0 -0.16963367289E+02 -0.42457624340E+02  0.98060039488E+02  0.10819508787E+03  0.00000000000E+00 0. -1.
</event>
<event>
 7    1  0.2384639E-009  0.7854568E+02  0.7561462E-02  0.1333230E+00
         -1   -1    0    0    0  501 -0.00000000000E+00  0.00000000000E+00  0.74827075381E+02  0.74827075381E+02  0.00000000000E+00 0.  1.
          1   -1    0    0  501    0  0.00000000000E+00 -0.00000000000E+00 -0.31049705485E+03  0.31049705485E+03  0.00000000000E+00 0. -1.
         25    2    1    2    0    0  0.67730357610E+01 -0.52318712262E+01 -0.26319147890E+03  0.29153114055E+03  0.12508958731E+03 0.  0.
          5    1    3    3  502    0  0.21591013425E+02 -0.31294352762E+02 -0.25799872326E+03  0.26081856142E+03  0.41800000000E+01 0.  1.
         -5    1    3    3    0  502 -0.14817977664E+02  0.26062481536E+02 -0.51927556431E+01  0.30712579133E+02  0.41800000000E+01 0.  1.
        -11    1    1    2    0    0  0.40462452958E+02 -0.32041947538E+01  0.19912785290E+02  0.45210573779E+02  0.00000000000E+00 0.  1.
         11    1    1    2    0    0 -0.47235488719E+02  0.84360659800E+01  0.76087141468E+01  0.48582415900E+02  0.00000000000E+00 0. -1.
</event>
<event>
 7    1  0.2384639E-009  0.1210007E+03  0.7561462E-02  0.1241455E+00
          1   -1    0    0  501    0  0.00000000000E+00  0.00000000000E+00  0.22878918984E+03  0.22878918984E+03  0.00000000000E+00 0. -1.
         -1   -1    0    0    0  501 -0.00000000000E+00 -0.00000000000E+00 -0.83846801097E+02  0.83846801097E+02  0.00000000000E+00 0.  1.
         25    2    1    2    0    0 -0.78720746320E+02 -0.30768124547E+02  0.67445940219E+02  0.16534792234E+03  0.12508935679E+03 0.  0.
          5    1    3    3  502    0 -0.61970459369E+02  0.29186470492E+02  0.75970435065E+02  0.10237757224E+03  0.41800000000E+01 0.  1.
         -5    1    3    3    0  502 -0.16750286951E+02 -0.59954595038E+02 -0.85244948462E+01  0.62970350098E+02  0.41800000000E+01 0.  1.
        -11    1    1    2    0    0  0.31603473305E+02  0.50765130932E+02  0.75164446455E+02  0.96049841511E+02  0.00000000000E+00 0. -1.
         11    1    1    2    0    0  0.47117273015E+02 -0.19997006386E+02  0.23320020655E+01  0.51238227081E+02  0.00000000000E+00 0.  1.
</event>
<event>
 7    1  0.2384639E-009  0.1001040E+03  0.7561462E-02  0.1280077E+00
          2   -1    0    0  501    0  0.00000000000E+00  0.00000000000E+00  0.55905718397E+03  0.55905718397E+03  0.00000000000E+00 0. -1.
         -2   -1    0    0    0  501 -0.00000000000E+00 -0.00000000000E+00 -0.27585783999E+02  0.27585783999E+02  0.00000000000E+00 0.  1.
         25    2    1    2    0    0  0.20961896713E+02  0.53630025252E+02  0.32795972335E+03  0.35569662549E+03  0.12508768333E+03 0.  0.
          5    1    3    3  502    0 -0.25019190214E+02 -0.89862089937E+01  0.10571595325E+02  0.28912676437E+02  0.41800000000E+01 0. -1.
         -5    1    3    3    0  502  0.45981086927E+02  0.62616234246E+02  0.31738812803E+03  0.32678394905E+03  0.41800000000E+01 0. -1.
        -11    1    1    2    0    0 -0.47129649547E+02 -0.50612812250E+02  0.85188891255E+02  0.10972696944E+03  0.00000000000E+00 0.  1.
         11    1    1    2    0    0  0.26167752834E+02 -0.30172130027E+01  0.11832278536E+03  0.12121937303E+03  0.00000000000E+00 0. -1.
</event>
<event>
 7    1  0.2384639E-009  0.1722609E+03  0.7561462E-02  0.1175510E+00
          2   -1    0    0  501    0  0.00000000000E+00  0.00000000000E+00  0.81182610407E+03  0.81182610407E+03  0.00000000000E+00 0. -1.
         -2   -1    0    0    0  501 -0.00000000000E+00 -0.00000000000E+00 -0.46510295648E+02  0.46510295648E+02  0.00000000000E+00 0.  1.
         25    2    1    2    0    0 -0.15534276700E+03 -0.35721845640E+02  0.35939360455E+03  0.41257631190E+03  0.12509206463E+03 0.  0.
          5    1    3    3  502    0 -0.59580369666E+02  0.28415667337E+02  0.51613463703E+02  0.83896916720E+02  0.41800000000E+01 0.  1.
         -5    1    3    3    0  502 -0.95762397331E+02 -0.64137512977E+02  0.30778014085E+03  0.32867939518E+03  0.41800000000E+01 0.  1.
        -11    1    1    2    0    0  0.97135978134E+02  0.50813390055E+01  0.13150292994E+03  0.16356723033E+03  0.00000000000E+00 0.  1.
         11    1    1    2    0    0  0.58206788863E+02  0.30640506634E+02  0.27441927393E+03  0.28219285749E+03  0.00000000000E+00 0. -1.
</event>
<event>
 7    1  0.2384639E-009  0.1020404E+03  0.7561462E-02  0.1276063E+00
         -1   -1    0    0    0  501 -0.00000000000E+00  0.00000000000E+00  0.36208611465E+02  0.36208611465E+02  0.00000000000E+00 0.  1.
          1   -1    0    0  501    0  0.00000000000E+00 -0.00000000000E+00 -0.10778561675E+04  0.10778561675E+04  0.00000000000E+00 0. -1.
         25    2    1    2    0    0 -0.30067574406E+02  0.47543935423E+00 -0.10014765948E+04  0.10097053718E+04  0.12508110513E+03 0.  0.
          5    1    3    3  502    0 -0.90465073247E+01 -0.53150931136E+02 -0.23884578142E+03  0.24489107880E+03  0.41800000000E+01 0.  1.
         -5    1    3    3    0  502 -0.21021067081E+02  0.53626370491E+02 -0.76263081336E+03  0.76481429299E+03  0.41800000000E+01 0.  1.
        -11    1    1    2    0    0  0.13170544880E+02 -0.43806747918E+02 -0.49339808090E+01  0.46009114122E+02  0.00000000000E+00 0.  1.
         11    1    1    2    0    0  0.16897029525E+02  0.43331308564E+02 -0.35236980456E+02  0.58350293061E+02  0.00000000000E+00 0. -1.
</event>
<event>
 7    1  0.2384639E-009  0.1064613E+03  0.7561462E-02  0.1267267E+00
          2   -1    0    0  501    0  0.00000000000E+00  0.00000000000E+00  0.32859278056E+02  0.32859278056E+02  0.00000000000E+00 0. -1.
         -2   -1    0    0    0  501 -0.00000000000E+00 -0.00000000000E+00 -0.39267226422E+03  0.39267226422E+03  0.00000000000E+00 0.  1.
         25    2    1    2    0    0  0.13272057161E+02 -0.29787253969E+02 -0.22836411659E+03  0.26241356250E+03  0.12508908840E+03 0.  0.
          5    1    3    3  502    0  0.30842138456E+02  0.36874300896E+02 -0.15188110583E+03  0.15936214820E+03  0.41800000000E+01 0. -1.
         -5    1    3    3    0  502 -0.17570081294E+02 -0.66661554865E+02 -0.76483010757E+02  0.10305141430E+03  0.41800000000E+01 0. -1.
        -11    1    1    2    0    0  0.41088929781E+01  0.60325959088E+02 -0.93972447673E+02  0.11174491158E+03  0.00000000000E+00 0.  1.
         11    1    1    2    0    0 -0.17380950139E+02 -0.30538705119E+02 -0.37476421906E+02  0.51373068207E+02  0.00000000000E+00 0. -1.
</event>
<event>
 7    1  0.2384639E-009  0.1990762E+03  0.7561462E-02  0.1150521E+00
          1   -1    0    0  501    0  0.00000000000E+00  0.00000000000E+00  0.35480410954E+03  0.35480410954E+03  0.00000000000E+00 0. -1.
         -1   -1    0    0    0  501 -0.00000000000E+00 -0.00000000000E+00 -0.14492010840E+03  0.14492010840E+03  0.00000000000E+00 0.  1.
         25    2    1    2    0    0 -0.16847127218E+03  0.51912382770E+02  0.20978024734E+03  0.30121876277E+03  0.12509007089E+03 0.  0.
          5    1    3    3  502    0  0.77894498898E+01  0.32410634184E+02  0.12318655676E+02  0.35781928616E+02  0.41800000000E+01 0.  1.
         -5    1    3    3    0  502 -0.17626072207E+03  0.19501748586E+02  0.19746159167E+03  0.26543683415E+03  0.41800000000E+01 0.  1.
        -11    1    1    2    0    0  0.10905483332E+03 -0.12076103733E+01  0.32711807038E+02  0.11386165866E+03  0.00000000000E+00 0.  1.
         11    1    1    2    0    0  0.59416438856E+02 -0.50704772397E+02 -0.32608053245E+02  0.84643796504E+02  0.00000000000E+00 0. -1.
</event>
<event>
 7    1  0.2384639E-009  0.1162193E+03  0.7561462E-02  0.1249468E+00
          3   -1    0    0  501    0  0.00000000000E+00  0.00000000000E+00  0.82052972998E+02  0.82052972998E+02  0.00000000000E+00 0. -1.
         -3   -1    0    0    0  501 -0.00000000000E+00 -0.00000000000E+00 -0.21497836624E+03  0.21497836624E+03  0.00000000000E+00 0.  1.
         25    2    1    2    0    0  0.18046125467E+02 -0.65225964607E+02 -0.34095144705E+02  0.14624986221E+03  0.12508578737E+03 0.  0.
          5    1    3    3  502    0 -0.27411180675E+02  0.24525854022E+02  0.66751124870E+01  0.37615420617E+02  0.41800000000E+01 0.  1.
         -5    1    3    3    0  502  0.45457306142E+02 -0.89751818628E+02 -0.40770257192E+02  0.10863444159E+03  0.41800000000E+01 0.  1.
        -11    1    1    2    0    0 -0.89547779270E+01  0.78295469118E+02 -0.10699883079E+03  0.13288761539E+03  0.00000000000E+00 0.  1.
         11    1    1    2    0    0 -0.90913475405E+01 -0.13069504511E+02  0.81685822580E+01  0.17893861639E+02  0.00000000000E+00 0. -1.
</event>
<event>
 7    1  0.2384639E-009  0.1305253E+03  0.7561462E-02  0.1226678E+00
         -2   -1    0    0    0  501 -0.00000000000E+00  0.00000000000E+00  0.13110030015E+03  0.13110030015E+03  0.00000000000E+00 0.  1.
          2   -1    0    0  501    0  0.00000000000E+00 -0.00000000000E+00 -0.18692135756E+03  0.18692135756E+03  0.00000000000E+00 0. -1.
         25    2    1    2    0    0  0.20749344666E+02 -0.10984793360E+03 -0.28338745799E+02  0.17014000360E+03  0.12508969778E+03 0.  0.
          5    1    3    3  502    0 -0.27290170425E+02 -0.82003846620E+02  0.27983598053E+02  0.90939201790E+02  0.41800000000E+01 0.  1.
         -5    1    3    3    0  502  0.48039515091E+02 -0.27844086976E+02 -0.56322343852E+02  0.79200801806E+02  0.41800000000E+01 0.  1.
        -11    1    1    2    0    0 -0.32615493535E+02  0.89865332991E+02  0.17557029640E+02  0.97199782828E+02  0.00000000000E+00 0.  1.
         11    1    1    2    0    0  0.11866148869E+02  0.19982600605E+02 -0.45039341255E+02  0.50681871282E+02  0.00000000000E+00 0. -1.
</event>
<event>
 7    1  0.2384639E-009  0.1159526E+03  0.7561462E-02  0.1249927E+00
         -4   -1    0    0    0  501 -0.00000000000E+00  0.00000000000E+00  0.71145876749E+02  0.71145876749E+02  0.00000000000E+00 0.  1.
          4   -1    0    0  501    0  0.00000000000E+00 -0.00000000000E+00 -0.25046106277E+03  0.25046106277E+03  0.00000000000E+00 0. -1.
         25    2    1    2    0    0  0.43422176731E+02 -0.14285350028E+01 -0.17656944292E+03  0.22070811458E+03  0.12509107693E+03 0.  0.
          5    1    3    3  502    0  0.86560131552E+02 -0.11079331485E+02 -0.10643384208E+03  0.13769910349E+03  0.41800000000E+01 0. -1.
         -5    1    3    3    0  502 -0.43137954822E+02  0.96507964826E+01 -0.70135600834E+02  0.83009011097E+02  0.41800000000E+01 0. -1.
        -11    1    1    2    0    0 -0.31755410576E+02  0.44974524987E+02 -0.75124901180E+01  0.55565740402E+02  0.00000000000E+00 0. -1.
         11    1    1    2    0    0 -0.11666766155E+02 -0.43545989984E+02  0.47667470138E+01  0.45333084533E+02  0.00000000000E+00 0.  1.
</event>
<event>
 7    1  0.2384639E-009  0.1287608E+03  0.7561462E-02  0.1229306E+00
         -1   -1    0    0    0  501 -0.00000000000E+00  0.00000000000E+00  0.35546800608E+02  0.35546800608E+02  0.00000000000E+00 0.  1.
          1   -1    0    0  501    0  0.00000000000E+00 -0.00000000000E+00 -0.47883134750E+03  0.47883134750E+03  0.00000000000E+00 0. -1.
         25    2    1    2    0    0  0.64138568448E+02  0.34016815722E+02 -0.26011530306E+03  0.29761513682E+03  0.12507557341E+03 0.  0.
          5    1    3    3  502    0  0.10058199660E+03  0.36196320393E+02 -0.20726868104E+03  0.23324813009E+03  0.41800000000E+01 0.  1.
         -5    1    3    3    0  502 -0.36443428156E+02 -0.21795046714E+01 -0.52846622012E+02  0.64367006722E+02  0.41800000000E+01 0.  1.
        -11    1    1    2    0    0  0.11296213344E+02 -0.36613765811E+02 -0.43238419378E+02  0.57773118256E+02  0.00000000000E+00 0.  1.
         11    1    1    2    0    0 -0.75434781792E+02  0.25969500888E+01 -0.13993082446E+03  0.15898989304E+03  0.00000000000E+00 0. -1.
</event>
<event>
 7    1  0.2384639E-009  0.1041107E+03  0.7561462E-02  0.1271882E+00
         -1   -1    0    0    0  501 -0.00000000000E+00  0.00000000000E+00  0.65377054267E+03  0.65377054267E+03  0.00000000000E+00 0.  1.
          1   -1    0    0  501    0  0.00000000000E+00 -0.00000000000E+00 -0.22432982071E+02  0.22432982071E+02  0.00000000000E+00 0. -1.
         25    2    1    2    0    0 -0.33242965318E+02 -0.61648267119E+01  0.23998983173E+03  0.27274248734E+03  0.12510094017E+03 0.  0.
          5    1    3    3  502    0 -0.38458199686E+02 -0.55948685754E+02  0.79769874929E+02  0.10483317179E+03  0.41800000000E+01 0.  1.
         -5    1    3    3    0  502  0.52152343673E+01  0.49783859042E+02  0.16021995680E+03  0.16790931555E+03  0.41800000000E+01 0.  1.
        -11    1    1    2    0    0  0.56536376805E+02  0.23201394980E+02  0.33067560601E+03  0.33627521919E+03  0.00000000000E+00 0.  1.
         11    1    1    2    0    0 -0.23293411487E+02 -0.17036568269E+02  0.60672122859E+02  0.67185818216E+02  0.00000000000E+00 0. -1.
</event>
<event>
 7    1  0.2384639E-009  0.3798249E+03  0.7561462E-02  0.1050998E+00
         -2   -1    0    0    0  501 -0.00000000000E+00  0.00000000000E+00  0.10162297795E+03  0.10162297795E+03  0.00000000000E+00 0. -1.
          2   -1    0    0  501    0  0.00000000000E+00 -0.00000000000E+00 -0.16858390795E+04  0.16858390795E+04  0.00000000000E+00 0.  1.
         25    2    1    2    0    0 -0.37646336777E+03 -0.61098663425E+01 -0.51359740203E+03  0.64899326143E+03  0.12509182336E+03 0.  0.
          5    1    3    3  502    0 -0.27762891092E+03 -0.35062949918E+02 -0.44322594374E+03  0.52418883261E+03  0.41800000000E+01 0.  1.
         -5    1    3    3    0  502 -0.98834456856E+02  0.28953083576E+02 -0.70371458286E+02  0.12480442882E+03  0.41800000000E+01 0.  1.
        -11    1    1    2    0    0  0.16592671423E+03 -0.33791474908E+01 -0.34462662816E+03  0.38250569404E+03  0.00000000000E+00 0. -1.
         11    1    1    2    0    0  0.21053665354E+03  0.94890138332E+01 -0.72599207135E+03  0.75596310196E+03  0.00000000000E+00 0.  1.
</event>
<event>
 7    1  0.2384639E-009  0.1110085E+03  0.7561462E-02  0.1258714E+00
         -2   -1    0    0    0  501 -0.00000000000E+00  0.00000000000E+00  0.17176811206E+02  0.17176811206E+02  0.00000000000E+00 0.  1.
          2   -1    0    0  501    0  0.00000000000E+00 -0.00000000000E+00 -0.88166026087E+03  0.88166026087E+03  0.00000000000E+00 0. -1.
         25    2    1    2    0    0 -0.51725218508E+02  0.71096117170E+01 -0.42003380537E+03  0.44136277637E+03  0.12508660161E+03 0.  0.
          5    1    3    3  502    0 -0.88659014505E+02  0.19113724855E+02 -0.22830627999E+03  0.24569693774E+03  0.41800000000E+01 0. -1.
         -5    1    3    3    0  502  0.36933795997E+02 -0.12004113138E+02 -0.19172752538E+03  0.19566583864E+03  0.41800000000E+01 0. -1.
        -11    1    1    2    0    0  0.69840019314E+02  0.55570449821E+01 -0.41377951286E+03  0.41966891035E+03  0.00000000000E+00 0. -1.
         11    1    1    2    0    0 -0.18114800806E+02 -0.12666656699E+02 -0.30670131429E+02  0.37805385358E+02  0.00000000000E+00 0.  1.
</event>
<event>
 7    1  0.2384639E-009  0.1742326E+03  0.7561462E-02  0.1173504E+00
         -4   -1    0    0    0  501 -0.00000000000E+00  0.00000000000E+00  0.15729548796E+03  0.15729548796E+03  0.00000000000E+00 0.  1.
          4   -1    0    0  501    0  0.00000000000E+00 -0.00000000000E+00 -0.31328465631E+03  0.31328465631E+03  0.00000000000E+00 0. -1.
         25    2    1    2    0    0 -0.85291326313E+02  0.14151668598E+03  0.25730821395E+02  0.20882239091E+03  0.12507251106E+03 0.  0.
          5    1    3    3  502    0 -0.41012244818E+02  0.45392033645E+02  0.70847854627E+02  0.93698088821E+02  0.41800000000E+01 0. -1.
         -5    1    3    3    0  502 -0.44279081495E+02  0.96124652332E+02 -0.45117033232E+02  0.11512430209E+03  0.41800000000E+01 0. -1.
        -11    1    1    2    0    0  0.17938628186E+02 -0.10110833923E+03 -0.13752661663E+03  0.17163409022E+03  0.00000000000E+00 0.  1.
         11    1    1    2    0    0  0.67352698126E+02 -0.40408346742E+02 -0.44193373117E+02  0.90123663146E+02  0.00000000000E+00 0. -1.
</event>
<event>
 7    1  0.2384639E-009  0.2098832E+03  0.7561462E-02  0.1141658E+00
          2   -1    0    0  501    0  0.00000000000E+00  0.00000000000E+00  0.57867364021E+03  0.57867364021E+03  0.00000000000E+00 0. -1.
         -2   -1    0    0    0  501 -0.00000000000E+00 -0.00000000000E+00 -0.89156651910E+02  0.89156651910E+02  0.00000000000E+00 0.  1.
         25    2    1    2    0    0  0.18652058189E+03  0.28876990014E+01  0.35597978313E+03  0.42091407170E+03  0.12509509777E+03 0.  0.
          5    1    3    3  502    0  0.89882599616E+02 -0.53002929494E+02  0.11524940273E+03  0.15552520528E+03  0.41800000000E+01 0. -1.
         -5    1    3    3    0  502  0.96637982279E+02  0.55890628495E+02  0.24073038040E+03  0.26538886642E+03  0.41800000000E+01 0. -1.
        -11    1    1    2    0    0 -0.12869503233E+03  0.36362508525E+02  0.11003208937E+03  0.17318113080E+03  0.00000000000E+00 0.  1.
         11    1    1    2    0    0 -0.57825549564E+02 -0.39250207526E+02  0.23505115809E+02  0.73735089628E+02  0.00000000000E+00 0. -1.
</event>
<event>
 7    1  0.2384639E-009  0.1031227E+03  0.7561462E-02  0.1273863E+00
          2   -1    0    0  501    0  0.00000000000E+00  0.00000000000E+00  0.10306934475E+03  0.10306934475E+03  0.00000000000E+00 0.  1.
         -2   -1    0    0    0  501 -0.00000000000E+00 -0.00000000000E+00 -0.12920384183E+03  0.12920384183E+03  0.00000000000E+00 0. -1.
         25    2    1    2    0    0  0.85397963680E+01 -0.33641622510E+02 -0.89686140118E+01  0.13012344108E+03  0.12508791706E+03 0.  0.
          5    1    3    3  502    0 -0.36192459205E+02 -0.49777218966E+02  0.29912733170E+02  0.68555886961E+02  0.41800000000E+01 0.  1.
         -5    1    3    3    0  502  0.44732255573E+02  0.16135596455E+02 -0.38881347182E+02  0.61567554119E+02  0.41800000000E+01 0.  1.
        -11    1    1    2    0    0  0.67098663328E+01  0.63203850699E+02  0.23152550790E+01  0.63601174953E+02  0.00000000000E+00 0.  1.
         11    1    1    2    0    0 -0.15249662701E+02 -0.29562228188E+02 -0.19481138152E+02  0.38548570552E+02  0.00000000000E+00 0. -1.
</event>
<event>
 7    1  0.2384639E-009  0.1368949E+03  0.7561462E-02  0.1217569E+00
         -2   -1    0    0    0  501 -0.00000000000E+00  0.00000000000E+00  0.21573713499E+03  0.21573713499E+03  0.00000000000E+00 0.  1.
          2   -1    0    0  501    0  0.00000000000E+00 -0.00000000000E+00 -0.96948088462E+02  0.96948088462E+02  0.00000000000E+00 0. -1.
         25    2    1    2    0    0 -0.84628130537E+02  0.44405832609E+02  0.83481456920E+02  0.17818700866E+03  0.12509059900E+03 0.  0.
          5    1    3    3  502    0  0.27380362347E+02 -0.11767750131E+02  0.56543281169E+01  0.30620385560E+02  0.41800000000E+01 0. -1.
         -5    1    3    3    0  502 -0.11200849288E+03  0.56173582739E+02  0.77827128803E+02  0.14756662310E+03  0.41800000000E+01 0. -1.
        -11    1    1    2    0    0 -0.40057150597E+01 -0.27871931024E+02  0.34237059286E+02  0.44329070830E+02  0.00000000000E+00 0.  1.
         11    1    1    2    0    0  0.88633845597E+02 -0.16533901585E+02  0.10705303193E+01  0.90169143958E+02  0.00000000000E+00 0. -1.
</event>
<event>
 7    1  0.2384639E-009  0.2026105E+03  0.7561462E-02  0.1147555E+00
         -1   -1    0    0    0  501 -0.00000000000E+00  0.00000000000E+00  0.10444169093E+03  0.10444169093E+03  0.00000000000E+00 0.  1.
          1   -1    0    0  501    0  0.00000000000E+00 -0.00000000000E+00 -0.71006429636E+03  0.71006429636E+03  0.00000000000E+00 0. -1.
         25    2    1    2    0    0 -0.13879818684E+03 -0.14214517741E+03 -0.84547247105E+02  0.24952444808E+03  0.12507607711E+03 0.  0.
          5    1    3    3  502    0 -0.83572355704E+02 -0.10436038062E+03 -0.11451471803E+03  0.17608668526E+03  0.41800000000E+01 0.  1.
         -5    1    3    3    0  502 -0.55225831140E+02 -0.37784796796E+02  0.29967470930E+02  0.73437762820E+02  0.41800000000E+01 0.  1.
        -11    1    1    2    0    0  0.64477580797E+02  0.33179766043E+02 -0.28984047736E+03  0.29877375657E+03  0.00000000000E+00 0. -1.
         11    1    1    2    0    0  0.74320606048E+02  0.10896541137E+03 -0.23123488097E+03  0.26620778263E+03  0.00000000000E+00 0.  1.
</event>
<event>
 7    1  0.2384639E-009  0.1312519E+03  0.7561462E-02  0.1225610E+00
         -1   -1    0    0    0  501 -0.00000000000E+00  0.00000000000E+00  0.10306580625E+03  0.10306580625E+03  0.00000000000E+00 0.  1.
          1   -1    0    0  501    0  0.00000000000E+00 -0.00000000000E+00 -0.18192354230E+03  0.18192354230E+03  0.00000000000E+00 0. -1.
         25    2    1    2    0    0 -0.63425735302E+02 -0.49124795888E+02 -0.22365470499E+02  0.15027934586E+03  0.12509035954E+03 0.  0.
          5    1    3    3  502    0 -0.99829882620E+02 -0.29147325407E+02 -0.28937625566E+02  0.10802976727E+03  0.41800000000E+01 0.  1.
         -5    1    3    3    0  502  0.36404147318E+02 -0.19977470482E+02  0.65721550673E+01  0.42249578590E+02  0.41800000000E+01 0.  1.
        -11    1    1    2    0    0 -0.25467933139E+01 -0.20565398164E+02 -0.27555844372E+02  0.34478200604E+02  0.00000000000E+00 0.  1.
         11    1    1    2    0    0  0.65972528616E+02  0.69690194052E+02 -0.28936421181E+02  0.10023180209E+03  0.00000000000E+00 0. -1.
</event>
<event>
 7    1  0.2384639E-009  0.1446444E+03  0.7561462E-02  0.1207213E+00
          2   -1    0    0  501    0  0.00000000000E+00  0.00000000000E+00  0.52560408910E+03  0.52560408910E+03  0.00000000000E+00 0. -1.
         -2   -1    0    0    0  501 -0.00000000000E+00 -0.00000000000E+00 -0.52988956048E+02  0.52988956048E+02  0.00000000000E+00 0.  1.
         25    2    1    2    0    0  0.50317886911E+02  0.10820963510E+03  0.18209312602E+03  0.25109133641E+03  0.12509091816E+03 0.  0.
          5    1    3    3  502    0 -0.27010502864E+02  0.34447266500E+02  0.50633025385E+01  0.44263877675E+02  0.41800000000E+01 0.  1.
         -5    1    3    3    0  502  0.77328389775E+02  0.73762368603E+02  0.17702982348E+03  0.20682745874E+03  0.41800000000E+01 0.  1.
        -11    1    1    2    0    0 -0.34538260011E+02 -0.61340922247E+01  0.14414493971E+03  0.14835188619E+03  0.00000000000E+00 0. -1.
         11    1    1    2    0    0 -0.15779626900E+02 -0.10207554288E+03  0.14637706732E+03  0.17914982254E+03  0.00000000000E+00 0.  1.
</event>
<event>
 7    1  0.2384639E-009  0.1009456E+03  0.7561462E-02  0.1278320E+00
          1   -1    0    0  501    0  0.00000000000E+00  0.00000000000E+00  0.30510844110E+03  0.30510844110E+03  0.00000000000E+00 0. -1.
         -1   -1    0    0    0  501 -0.00000000000E+00 -0.00000000000E+00 -0.51974877840E+02  0.51974877840E+02  0.00000000000E+00 0.  1.
         25    2    1    2    0    0 -0.51126030505E+02  0.34831030267E+02  0.11660621076E+03  0.18185137785E+03  0.12508334651E+03 0.  0.
          5    1    3    3  502    0 -0.47217037454E+02 -0.28404997198E+02  0.77100490098E+01  0.55796144558E+02  0.41800000000E+01 0. -1.
         -5    1    3    3    0  502 -0.39089930513E+01  0.63236027466E+02  0.10889616175E+03  0.12605523330E+03  0.41800000000E+01 0. -1.
        -11    1    1    2    0    0  0.39290465639E+02 -0.50193675041E+02  0.36730300654E+02  0.73568068415E+02  0.00000000000E+00 0. -1.
         11    1    1    2    0    0  0.11835564866E+02  0.15362644773E+02  0.99797051847E+02  0.10166387268E+03  0.00000000000E+00 0.  1.
</event>
<event>
 7    1  0.2384639E-009  0.1190425E+03  0.7561462E-02  0.1244685E+00
         -2   -1    0    0    0  501 -0.00000000000E+00  0.00000000000E+00  0.42263379570E+02  0.42263379570E+02  0.00000000000E+00 0. -1.
          2   -1    0    0  501    0  0.00000000000E+00 -0.00000000000E+00 -0.42419612751E+03  0.42419612751E+03  0.00000000000E+00 0.  1.
         25    2    1    2    0    0  0.18944773151E+02 -0.75839872459E+02 -0.25451797474E+03  0.29417278711E+03  0.12509052133E+03 0.  0.
          5    1    3    3  502    0  0.15074146282E+02  0.22017273591E+02 -0.69252499862E+01  0.27882283082E+02  0.41800000000E+01 0.  1.
         -5    1    3    3    0  502  0.38706268684E+01 -0.97857146050E+02 -0.24759272475E+03  0.26629050403E+03  0.41800000000E+01 0.  1.
        -11    1    1    2    0    0  0.98090485232E+01  0.82873453745E+02 -0.10953952433E+03  0.13770669613E+03  0.00000000000E+00 0.  1.
         11    1    1    2    0    0 -0.28753821674E+02 -0.70335812855E+01 -0.17875248874E+02  0.34580023841E+02  0.00000000000E+00 0. -1.
</event>
<event>
 7    1  0.2384639E-009  0.1991855E+03  0.7561462E-02  0.1150428E+00
         -2   -1    0    0    0  501 -0.00000000000E+00  0.00000000000E+00  0.47758662555E+02  0.47758662555E+02  0.00000000000E+00 0.  1.
          2   -1    0    0  501    0  0.00000000000E+00 -0.00000000000E+00 -0.10001098439E+04  0.10001098439E+04  0.00000000000E+00 0. -1.
         25    2    1    2    0    0  0.77706892665E+02  0.15573978069E+03 -0.67173665129E+03  0.70510353391E+03  0.12509046482E+03 0.  0.
          5    1    3    3  502    0  0.52290485340E+02  0.16680952955E+03 -0.47088346142E+03  0.50230311630E+03  0.41800000000E+01 0.  1.
         -5    1    3    3    0  502  0.25416407325E+02 -0.11069748865E+02 -0.20085318987E+03  0.20280041761E+03  0.41800000000E+01 0.  1.
        -11    1    1    2    0    0 -0.39879154940E+01 -0.10705154764E+03 -0.13357161799E+03  0.17122299628E+03  0.00000000000E+00 0. -1.
         11    1    1    2    0    0 -0.73718977171E+02 -0.48688233052E+02 -0.14704291204E+03  0.17154197625E+03  0.00000000000E+00 0.  1.
</event>
<event>
 7    1  0.2384639E-009  0.2109944E+03  0.7561462E-02  0.1140781E+00
         -2   -1    0    0    0  501 -0.00000000000E+00  0.00000000000E+00  0.13340430906E+04  0.13340430906E+04  0.00000000000E+00 0.  1.
          2   -1    0    0  501    0  0.00000000000E+00 -0.00000000000E+00 -0.42787273005E+02  0.42787273005E+02  0.00000000000E+00 0. -1.
         25    2    1    2    0    0 -0.83980796371E+02  0.18611075406E+03  0.83002297926E+03  0.86387248861E+03  0.12509014167E+03 0.  0.
          5    1    3    3  502    0 -0.42301335407E+02  0.65527895764E+02  0.12507544125E+03  0.14746066087E+03  0.41800000000E+01 0. -1.
         -5    1    3    3    0  502 -0.41679460964E+02  0.12058285830E+03  0.70494753801E+03  0.71641182774E+03  0.41800000000E+01 0. -1.
        -11    1    1    2    0    0 -0.68103325732E+00 -0.82170148499E+02  0.11225416295E+03  0.13911647714E+03  0.00000000000E+00 0.  1.
         11    1    1    2    0    0  0.84661829628E+02 -0.10394060556E+03  0.34897867538E+03  0.37384139786E+03  0.00000000000E+00 0. -1.
</event>
<event>
 7    1  0.2776373E-009  0.3185776E+03  0.7561462E-02  0.1076306E+00
          3   -1    0    0  501    0  0.00000000000E+00  0.00000000000E+00  0.55951514917E+03  0.55951514917E+03  0.00000000000E+00 0. -1.
         -3   -1    0    0    0  501 -0.00000000000E+00 -0.00000000000E+00 -0.19381820415E+03  0.19381820415E+03  0.00000000000E+00 0.  1.
         25    2    1    2    0    0  0.27313337619E+03  0.13836213837E+03  0.12574473696E+03  0.35384404625E+03  0.12509175700E+03 0.  0.
          5    1    3    3  502    0  0.20636155004E+03  0.49617406192E+02  0.11693013864E+03  0.24235739323E+03  0.41800000000E+01 0. -1.
         -5    1    3    3    0  502  0.66771826151E+02  0.88744732179E+02  0.88145983185E+01  0.11148665302E+03  0.41800000000E+01 0. -1.
        -11    1    1    2    0    0 -0.64573848524E+02 -0.67627824931E+02  0.38844054799E+02  0.10125297631E+03  0.00000000000E+00 0.  1.
         11    1    1    2    0    0 -0.20855952767E+03 -0.70734313440E+02  0.20110815326E+03  0.29823633076E+03  0.00000000000E+00 0. -1.
</event>
<event>
 7    1  0.2384639E-009  0.1605536E+03  0.7561462E-02  0.1188073E+00
          2   -1    0    0  501    0  0.00000000000E+00  0.00000000000E+00  0.29533137536E+04  0.29533137536E+04  0.00000000000E+00 0. -1.
         -2   -1    0    0    0  501 -0.00000000000E+00 -0.00000000000E+00 -0.23600964741E+02  0.23600964741E+02  0.00000000000E+00 0.  1.
         25    2    1    2    0    0  0.13575944918E+03  0.52179834134E+02  0.25832886080E+04  0.25904011285E+04  0.12507841978E+03 0.  0.
          5    1    3    3  502    0  0.79790805986E+02  0.71923106781E+02  0.95603522701E+03  0.96206046260E+03  0.41800000000E+01 0.  1.
         -5    1    3    3    0  502  0.55968643189E+02 -0.19743272646E+02  0.16272533810E+04  0.16283406659E+04  0.41800000000E+01 0.  1.
        -11    1    1    2    0    0 -0.71443460071E+02 -0.24917434513E+00  0.78577826000E+02  0.10620124676E+03  0.00000000000E+00 0.  1.
         11    1    1    2    0    0 -0.64315989104E+02 -0.51930659789E+02  0.26784635484E+03  0.28031234308E+03  0.00000000000E+00 0. -1.
</event>
<event>
 7    1  0.2384639E-009  0.1293993E+03  0.7561462E-02  0.1228350E+00
         -2   -1    0    0    0  501 -0.00000000000E+00  0.00000000000E+00  0.64316512698E+02  0.64316512698E+02  0.00000000000E+00 0.  1.
          2   -1    0    0  501    0  0.00000000000E+00 -0.00000000000E+00 -0.37972685391E+03  0.37972685391E+03  0.00000000000E+00 0. -1.
         25    2    1    2    0    0  0.30455650505E+01 -0.85831220800E+02 -0.27254450299E+03  0.31193814556E+03  0.12509447077E+03 0.  0.
          5    1    3    3  502    0 -0.58152879343E+02 -0.30110215954E+02 -0.89212133323E+02  0.11074592368E+03  0.41800000000E+01 0.  1.
         -5    1    3    3    0  502  0.61198444393E+02 -0.55721004846E+02 -0.18333236967E+03  0.20119222188E+03  0.41800000000E+01 0.  1.
        -11    1    1    2    0    0  0.31863077649E+02  0.26378607929E+02  0.13009103731E+02  0.43362696565E+02  0.00000000000E+00 0.  1.
         11    1    1    2    0    0 -0.34908642699E+02  0.59452612872E+02 -0.55874941950E+02  0.88742524476E+02  0.00000000000E+00 0. -1.
</event>
<event>
 7    1  0.2384639E-009  0.8039770E+02  0.7561462E-02  0.1327927E+00
          2   -1    0    0  501    0  0.00000000000E+00  0.00000000000E+00  0.26607777812E+03  0.26607777812E+03  0.00000000000E+00 0. -1.
         -2   -1    0    0    0  501 -0.00000000000E+00 -0.00000000000E+00 -0.47748351693E+02  0.47748351693E+02  0.00000000000E+00 0.  1.
         25    2    1    2    0    0 -0.79536258774E+01 -0.20335833520E+02  0.15871071883E+03  0.20325527929E+03  0.12508720957E+03 0.  0.
          5    1    3    3  502    0  0.48726822887E+02  0.21377293521E+02  0.91050301774E+02  0.10554109058E+03  0.41800000000E+01 0. -1.
         -5    1    3    3    0  502 -0.56680448765E+02 -0.41713127042E+02  0.67660417058E+02  0.97714188715E+02  0.41800000000E+01 0. -1.
        -11    1    1    2    0    0  0.19361938679E+02  0.11800495094E+02  0.81424631649E+02  0.84522819363E+02  0.00000000000E+00 0. -1.
         11    1    1    2    0    0 -0.11408312801E+02  0.85353384265E+01 -0.21805924058E+02  0.26048031155E+02  0.00000000000E+00 0.  1.
</event>
<event>
 7    1  0.2384639E-009  0.9063488E+02  0.7561462E-02  0.1301321E+00
          1   -1    0    0  501    0  0.00000000000E+00  0.00000000000E+00  0.55571765254E+03  0.55571765254E+03  0.00000000000E+00 0. -1.
         -1   -1    0    0    0  501 -0.00000000000E+00 -0.00000000000E+00 -0.30029445821E+02  0.30029445821E+02  0.00000000000E+00 0.  1.
         25    2    1    2    0    0 -0.43459067057E+02 -0.39480007335E+02  0.20096055683E+03  0.24388380301E+03  0.12508717952E+03 0.  0.
          5    1    3    3  502    0  0.16797199110E+02 -0.23761695078E+02 -0.39655358093E+01  0.29664152190E+02  0.41800000000E+01 0.  1.
         -5    1    3    3    0  502 -0.60256266168E+02 -0.15718312258E+02  0.20492609264E+03  0.21421965082E+03  0.41800000000E+01 0.  1.
        -11    1    1    2    0    0  0.61824402527E+02  0.32159284106E+02  0.30853656154E+03  0.31630884609E+03  0.00000000000E+00 0. -1.
         11    1    1    2    0    0 -0.18365335469E+02  0.73207232290E+01  0.16191088341E+02  0.25554449264E+02  0.00000000000E+00 0.  1.
</event>
<event>
 7    1  0.2384639E-009  0.8360456E+02  0.7561462E-02  0.1319123E+00
          1   -1    0    0  501    0  0.00000000000E+00  0.00000000000E+00  0.65685596962E+03  0.65685596962E+03  0.00000000000E+00 0. -1.
         -1   -1    0    0    0  501 -0.00000000000E+00 -0.00000000000E+00 -0.19570813370E+02  0.19570813370E+02  0.00000000000E+00 0.  1.
         25    2    1    2    0    0 -0.24313650763E+02  0.11259853575E+02  0.42317141043E+03  0.44208696285E+03  0.12509557225E+03 0.  0.
          5    1    3    3  502    0 -0.40279993205E+02 -0.15199091925E+02  0.44230860972E+02  0.61865432273E+02  0.41800000000E+01 0.  1.
         -5    1    3    3    0  502  0.15966342443E+02  0.26458945499E+02  0.37894054946E+03  0.38022153058E+03  0.41800000000E+01 0.  1.
        -11    1    1    2    0    0 -0.32147101035E+02 -0.16376211738E+02  0.58607773073E+02  0.68822143823E+02  0.00000000000E+00 0.  1.
         11    1    1    2    0    0  0.56460751797E+02  0.51163581634E+01  0.15550597274E+03  0.16551767631E+03  0.00000000000E+00 0. -1.
</event>
<event>
 7    1  0.2384639E-009  0.1287806E+03  0.7561462E-02  0.1229276E+00
          1   -1    0    0  501    0  0.00000000000E+00  0.00000000000E+00  0.32822628318E+03  0.32822628318E+03  0.00000000000E+00 0. -1.
         -1   -1    0    0    0  501 -0.00000000000E+00 -0.00000000000E+00 -0.14096719750E+03  0.14096719750E+03  0.00000000000E+00 0.  1.
         25    2    1    2    0    0  0.95002365497E+02 -0.55848315227E+02  0.26037279748E+03  0.30917039694E+03  0.12509139423E+03 0.  0.
          5    1    3    3  502    0  0.36795851045E+02 -0.76821110676E+02  0.21793973930E+03  0.23403123737E+03  0.41800000000E+01 0.  1.
         -5    1    3    3    0  502  0.58206514451E+02  0.20972795449E+02  0.42433058184E+02  0.75139159567E+02  0.41800000000E+01 0.  1.
        -11    1    1    2    0    0 -0.96671419753E+01  0.43675306837E+01 -0.58311504711E+02  0.59268545958E+02  0.00000000000E+00 0.  1.
         11    1    1    2    0    0 -0.85335223521E+02  0.51480784543E+02 -0.14802207091E+02  0.10075453779E+03  0.00000000000E+00 0. -1.
</event>
<event>
 7    1  0.2384639E-009  0.1210619E+03  0.7561462E-02  0.1241355E+00
          1   -1    0    0  501    0  0.00000000000E+00  0.00000000000E+00  0.70496072446E+03  0.70496072446E+03  0.00000000000E+00 0. -1.
         -1   -1    0    0    0  501 -0.00000000000E+00 -0.00000000000E+00 -0.21865227129E+02  0.21865227129E+02  0.00000000000E+00 0.  1.
         25    2    1    2    0    0 -0.12813684734E+02 -0.60146219156E+02  0.41552239310E+03  0.43827827888E+03  0.12508889787E+03 0.  0.
          5    1    3    3  502    0 -0.60627198271E+02  0.10121371287E+01  0.20683571203E+03  0.21558099583E+03  0.41800000000E+01 0. -1.
         -5    1    3    3    0  502  0.47813513537E+02 -0.61158356285E+02  0.20868668108E+03  0.22269728305E+03  0.41800000000E+01 0. -1.
        -11    1    1    2    0    0  0.27136768519E+02  0.76907111067E+02  0.17048042073E+03  0.18898328443E+03  0.00000000000E+00 0.  1.
         11    1    1    2    0    0 -0.14323083785E+02 -0.16760891911E+02  0.97092683488E+02  0.99564388280E+02  0.00000000000E+00 0. -1.
</event>
<event>
 7    1  0.2384639E-009  0.9396193E+02  0.7561462E-02  0.1293531E+00
         -2   -1    0    0    0  501 -0.00000000000E+00  0.00000000000E+00  0.14852721365E+03  0.14852721365E+03  0.00000000000E+00 0. -1.
          2   -1    0    0  501    0  0.00000000000E+00 -0.00000000000E+00 -0.85463411452E+02  0.85463411452E+02  0.00000000000E+00 0.  1.
         25    2    1    2    0    0  0.11678458745E+02 -0.29710227497E+02  0.27279982638E+02  0.13194465475E+03  0.12508441329E+03 0.  0.
          5    1    3    3  502    0  0.75599676353E+01 -0.73437839482E+02 -0.94388984502E+01  0.74544178729E+02  0.41800000000E+01 0.  1.
         -5    1    3    3    0  502  0.41184911098E+01  0.43727611985E+02  0.36718881089E+02  0.57400476020E+02  0.41800000000E+01 0.  1.
        -11    1    1    2    0    0 -0.26202259890E+02  0.42881626155E+02 -0.10891292927E+02  0.51419962531E+02  0.00000000000E+00 0.  1.
         11    1    1    2    0    0  0.14523801145E+02 -0.13171398658E+02  0.46675112485E+02  0.50626007820E+02  0.00000000000E+00 0. -1.
</event>
<event>
 7    1  0.2384639E-009  0.1200443E+03  0.7561462E-02  0.1243024E+00
         -1   -1    0    0    0  501 -0.00000000000E+00  0.00000000000E+00  0.69822854682E+02  0.69822854682E+02  0.00000000000E+00 0.  1.
          1   -1    0    0  501    0  0.00000000000E+00 -0.00000000000E+00 -0.24743434626E+03  0.24743434626E+03  0.00000000000E+00 0. -1.
         25    2    1    2    0    0 -0.54156751941E+02  0.35437330750E+02 -0.53146473972E+02  0.15053741459E+03  0.12509279477E+03 0.  0.
          5    1    3    3  502    0 -0.71251193871E+02 -0.20252701476E+02 -0.41580634781E+01  0.74307916382E+02  0.41800000000E+01 0. -1.
         -5    1    3    3    0  502  0.17094441930E+02  0.55690032227E+02 -0.48988410494E+02  0.76229498208E+02  0.41800000000E+01 0. -1.
        -11    1    1    2    0    0  0.22824900921E+02  0.28367511237E+02 -0.62921440505E+02  0.72696626270E+02  0.00000000000E+00 0. -1.
         11    1    1    2    0    0  0.31331851019E+02 -0.63804841987E+02 -0.61543577100E+02  0.94023160081E+02  0.00000000000E+00 0.  1.
</event>
<event>
 7    1  0.2384639E-009  0.1203701E+03  0.7561462E-02  0.1242488E+00
          2   -1    0    0  501    0  0.00000000000E+00  0.00000000000E+00  0.42564020549E+02  0.42564020549E+02  0.00000000000E+00 0. -1.
         -2   -1    0    0    0  501 -0.00000000000E+00 -0.00000000000E+00 -0.47035853530E+03  0.47035853530E+03  0.00000000000E+00 0.  1.
         25    2    1    2    0    0  0.54059711351E+02  0.22713476855E+02 -0.11141009002E+03  0.17747738893E+03  0.12509061117E+03 0.  0.
          5    1    3    3  502    0 -0.80759975226E+01 -0.41111048749E+02 -0.63659661367E+02  0.76324078445E+02  0.41800000000E+01 0.  1.
         -5    1    3    3    0  502  0.62135708874E+02  0.63824525603E+02 -0.47750428649E+02  0.10115331048E+03  0.41800000000E+01 0.  1.
        -11    1    1    2    0    0  0.69994945044E+01  0.28761144415E+02 -0.59893758249E+02  0.66809120849E+02  0.00000000000E+00 0.  1.
         11    1    1    2    0    0 -0.61059205855E+02 -0.51474621269E+02 -0.25649066649E+03  0.26863604608E+03  0.00000000000E+00 0. -1.
</event>
<event>
 7    1  0.2384639E-009  0.9864221E+02  0.7561462E-02  0.1283177E+00
          2   -1    0    0  501    0  0.00000000000E+00  0.00000000000E+00  0.37097390998E+02  0.37097390998E+02  0.00000000000E+00 0. -1.
         -2   -1    0    0    0  501 -0.00000000000E+00 -0.00000000000E+00 -0.36781207482E+03  0.36781207482E+03  0.00000000000E+00 0.  1.
         25    2    1    2    0    0 -0.41354906402E+02  0.12835983207E+02 -0.17692922447E+03  0.22096616188E+03  0.12508838267E+03 0.  0.
          5    1    3    3  502    0 -0.24015407033E+02 -0.41387893319E+02 -0.15065627291E+03  0.15812805714E+03  0.41800000000E+01 0. -1.
         -5    1    3    3    0  502 -0.17339499369E+02  0.54223876526E+02 -0.26272951555E+02  0.62838104740E+02  0.41800000000E+01 0. -1.
        -11    1    1    2    0    0  0.60616407170E+01 -0.44405295598E+02 -0.11258055963E+03  0.12117324858E+03  0.00000000000E+00 0.  1.
         11    1    1    2    0    0  0.35293265685E+02  0.31569312391E+02 -0.41204899723E+02  0.62770055351E+02  0.00000000000E+00 0. -1.
</event>
<event>
 7    1  0.2384639E-009  0.7620232E+02  0.7561462E-02  0.1340188E+00
         -2   -1    0    0    0  501 -0.00000000000E+00  0.00000000000E+00  0.17656485673E+02  0.17656485673E+02  0.00000000000E+00 0.  1.
          2   -1    0    0  501    0  0.00000000000E+00 -0.00000000000E+00 -0.65133659206E+03  0.65133659206E+03  0.00000000000E+00 0. -1.
         25    2    1    2    0    0  0.47456161119E+01  0.68529425849E+01 -0.31091818222E+03  0.33524128268E+03  0.12508844025E+03 0.  0.
          5    1    3    3  502    0  0.34976967955E+02 -0.12044927616E+02 -0.29256731069E+03  0.29492638446E+03  0.41800000000E+01 0. -1.
         -5    1    3    3    0  502 -0.30231351843E+02  0.18897870200E+02 -0.18350871530E+02  0.40314898218E+02  0.41800000000E+01 0. -1.
        -11    1    1    2    0    0 -0.32288365403E+02 -0.29413469094E+02 -0.11606869953E+03  0.12401465121E+03  0.00000000000E+00 0.  1.
         11    1    1    2    0    0  0.27542749291E+02  0.22560526509E+02 -0.20669322464E+03  0.20973714385E+03  0.00000000000E+00 0. -1.
</event>
<event>
 7    1  0.2384639E-009  0.1228988E+03  0.7561462E-02  0.1238390E+00
         -1   -1    0    0    0  501 -0.00000000000E+00  0.00000000000E+00  0.69882899202E+02  0.69882899202E+02  0.00000000000E+00 0.  1.
          1   -1    0    0  501    0  0.00000000000E+00 -0.00000000000E+00 -0.28897194034E+03  0.28897194034E+03  0.00000000000E+00 0. -1.
         25    2    1    2    0    0  0.79943961202E+02  0.37963159794E+02 -0.14184776107E+03  0.20881625164E+03  0.12510476088E+03 0.  0.
          5    1    3    3  502    0  0.10662607143E+03  0.41288240570E+02 -0.14101179847E+03  0.18159195364E+03  0.41800000000E+01 0.  1.
         -5    1    3    3    0  502 -0.26682110225E+02 -0.33250807766E+01 -0.83596259546E+00  0.27224298002E+02  0.41800000000E+01 0.  1.
        -11    1    1    2    0    0 -0.56164608687E+02 -0.52012659435E+02 -0.98164872575E+01  0.77176054788E+02  0.00000000000E+00 0.  1.
         11    1    1    2    0    0 -0.23779352515E+02  0.14049499641E+02 -0.67424792807E+02  0.72862533110E+02  0.00000000000E+00 0. -1.
</event>
<event>
 7    1  0.2384639E-009  0.1084891E+03  0.7561462E-02  0.1263394E+00
         -1   -1    0    0    0  501 -0.00000000000E+00  0.00000000000E+00  0.22131777557E+03  0.22131777557E+03  0.00000000000E+00 0.  1.
          1   -1    0    0  501    0  0.00000000000E+00 -0.00000000000E+00 -0.91846162877E+02  0.91846162877E+02  0.00000000000E+00 0. -1.
         25    2    1    2    0    0 -0.79503162207E+02  0.13315388695E+02  0.12021703467E+03  0.19130440463E+03  0.12508871823E+03 0.  0.
          5    1    3    3  502    0 -0.11264888017E+01  0.44403961240E+02  0.25520401206E+00  0.44615224755E+02  0.41800000000E+01 0. -1.
         -5    1    3    3    0  502 -0.78376673405E+02 -0.31088572545E+02  0.11996183066E+03  0.14668917987E+03  0.41800000000E+01 0. -1.
        -11    1    1    2    0    0  0.29606553331E+02 -0.22528070216E+02 -0.37528459129E+02  0.52843610706E+02  0.00000000000E+00 0. -1.
         11    1    1    2    0    0  0.49896608876E+02  0.92126815208E+01  0.46783037156E+02  0.69015923117E+02  0.00000000000E+00 0.  1.
</event>
<event>
 7    1  0.2384639E-009  0.1977695E+03  0.7561462E-02  0.1151635E+00
         -1   -1    0    0    0  501 -0.00000000000E+00  0.00000000000E+00  0.50392635336E+02  0.50392635336E+02  0.00000000000E+00 0.  1.
          1   -1    0    0  501    0  0.00000000000E+00 -0.00000000000E+00 -0.84711866526E+03  0.84711866526E+03  0.00000000000E+00 0. -1.
         25    2    1    2    0    0 -0.15123110103E+03 -0.82858400179E+02 -0.36028763856E+03  0.41855859738E+03  0.12509099308E+03 0.  0.
          5    1    3    3  502    0 -0.13975079280E+02 -0.61376606931E+02 -0.57349491463E+02  0.85257417802E+02  0.41800000000E+01 0.  1.
         -5    1    3    3    0  502 -0.13725602175E+03 -0.21481793248E+02 -0.30293814709E+03  0.33330117958E+03  0.41800000000E+01 0.  1.
        -11    1    1    2    0    0  0.16778649922E+02  0.53193543963E+02 -0.86747017690E+02  0.10313157272E+03  0.00000000000E+00 0.  1.
         11    1    1    2    0    0  0.13445245111E+03  0.29664856216E+02 -0.34969137368E+03  0.37582113050E+03  0.00000000000E+00 0. -1.
</event>
<event>
 7    1  0.2384639E-009  0.1766599E+03  0.7561462E-02  0.1171075E+00
          2   -1    0    0  501    0  0.00000000000E+00  0.00000000000E+00  0.11841061467E+03  0.11841061467E+03  0.00000000000E+00 0. -1.
         -2   -1    0    0    0  501 -0.00000000000E+00 -0.00000000000E+00 -0.35947183357E+03  0.35947183357E+03  0.00000000000E+00 0.  1.
         25    2    1    2    0    0  0.90857679023E+02 -0.13515370252E+03 -0.20118649163E+03  0.28748076085E+03  0.12509013671E+03 0.  0.
          5    1    3    3  502    0 -0.19053093728E+02 -0.39429242343E+02 -0.68437453013E+01  0.44519599977E+02  0.41800000000E+01 0. -1.
         -5    1    3    3    0  502  0.10991077275E+03 -0.95724460174E+02 -0.19434274633E+03  0.24296116087E+03  0.41800000000E+01 0. -1.
        -11    1    1    2    0    0 -0.84373150942E+02  0.11706530383E+03 -0.65417657209E+02  0.15843794948E+03  0.00000000000E+00 0.  1.
         11    1    1    2    0    0 -0.64845280813E+01  0.18088398691E+02  0.25542929938E+02  0.31963737914E+02  0.00000000000E+00 0. -1.
</event>
<event>
 7    1  0.2384639E-009  0.2367439E+03  0.7561462E-02  0.1121981E+00
          3   -1    0    0  501    0  0.00000000000E+00  0.00000000000E+00  0.34270915370E+03  0.34270915370E+03  0.00000000000E+00 0.  1.
         -3   -1    0    0    0  501 -0.00000000000E+00 -0.00000000000E+00 -0.19100020358E+03  0.19100020358E+03  0.00000000000E+00 0. -1.
         25    2    1    2    0    0  0.13322738083E+03  0.18865003014E+03  0.89064522104E+02  0.27734123670E+03  0.12508918259E+03 0.  0.
          5    1    3    3  502    0  0.91242291267E+02  0.93450324643E+02  0.11037725831E+03  0.17105183555E+03  0.41800000000E+01 0. -1.
         -5    1    3    3    0  502  0.41985089560E+02  0.95199705498E+02 -0.21312736209E+02  0.10628940115E+03  0.41800000000E+01 0. -1.
        -11    1    1    2    0    0 -0.64144025759E+02 -0.14057714034E+03  0.54612909763E+01  0.15461634495E+03  0.00000000000E+00 0.  1.
         11    1    1    2    0    0 -0.69083355068E+02 -0.48072889805E+02  0.57183137039E+02  0.10175177563E+03  0.00000000000E+00 0. -1.
</event>
<event>
 7    1  0.2384639E-009  0.1596001E+03  0.7561462E-02  0.1189149E+00
          2   -1    0    0  501    0  0.00000000000E+00  0.00000000000E+00  0.71187531630E+03  0.71187531630E+03  0.00000000000E+00 0. -1.
         -2   -1    0    0    0  501 -0.00000000000E+00 -0.00000000000E+00 -0.46239680412E+02  0.46239680412E+02  0.00000000000E+00 0.  1.
         25    2    1    2    0    0  0.29026670819E+02  0.13364833665E+03  0.44532840775E+03  0.48235751311E+03  0.12508778596E+03 0.  0.
          5    1    3    3  502    0  0.44939851754E+01 -0.15688108484E+02  0.63456687478E+01  0.18001460008E+02  0.41800000000E+01 0.  1.
         -5    1    3    3    0  502  0.24532685643E+02  0.14933644514E+03  0.43898273901E+03  0.46435605311E+03  0.41800000000E+01 0.  1.
        -11    1    1    2    0    0 -0.17813683195E+02 -0.13784098610E+03  0.15021753096E+03  0.20465280689E+03  0.00000000000E+00 0.  1.
         11    1    1    2    0    0 -0.11212987624E+02  0.41926494453E+01  0.70089697176E+02  0.71104676717E+02  0.00000000000E+00 0. -1.
</event>
<event>
 7    1  0.2384639E-009  0.1077885E+03  0.7561462E-02  0.1264721E+00
         -1   -1    0    0    0  501 -0.00000000000E+00  0.00000000000E+00  0.16910650308E+02  0.16910650308E+02  0.00000000000E+00 0.  1.
          1   -1    0    0  501    0  0.00000000000E+00 -0.00000000000E+00 -0.12087678330E+04  0.12087678330E+04  0.00000000000E+00 0. -1.
         25    2    1    2    0    0  0.15926030184E+02  0.88331450084E+02 -0.76180059529E+03  0.77720367294E+03  0.12509723711E+03 0.  0.
          5    1    3    3  502    0  0.30316559729E+02  0.44768383580E+02 -0.99629406734E+02  0.11343188726E+03  0.41800000000E+01 0.  1.
         -5    1    3    3    0  502 -0.14390529544E+02  0.43563066504E+02 -0.66217118855E+03  0.66377178567E+03  0.41800000000E+01 0.  1.
        -11    1    1    2    0    0 -0.43616609398E+02 -0.38065512987E+02 -0.12100675140E+03  0.13414181220E+03  0.00000000000E+00 0.  1.
         11    1    1    2    0    0  0.27690579214E+02 -0.50265937097E+02 -0.30904983599E+03  0.31433299817E+03  0.00000000000E+00 0. -1.
</event>
<event>
 7    1  0.2384639E-009  0.1290626E+03  0.7561462E-02  0.1228853E+00
          2   -1    0    0  501    0  0.00000000000E+00  0.00000000000E+00  0.78066981001E+03  0.78066981001E+03  0.00000000000E+00 0. -1.
         -2   -1    0    0    0  501 -0.00000000000E+00 -0.00000000000E+00 -0.22493203466E+02  0.22493203466E+02  0.00000000000E+00 0.  1.
         25    2    1    2    0    0  0.69878371518E+02 -0.28117773096E+02  0.43988505279E+03  0.46348804079E+03  0.12509479732E+03 0.  0.
          5    1    3    3  502    0  0.82462917227E+02 -0.62479718429E+02  0.25977262728E+03  0.27964824014E+03  0.41800000000E+01 0.  1.
         -5    1    3    3    0  502 -0.12584545709E+02  0.34361945334E+02  0.18011242551E+03  0.18383980065E+03  0.41800000000E+01 0.  1.
        -11    1    1    2    0    0 -0.89035835008E+02  0.37265767974E+02  0.27525178437E+03  0.29168418225E+03  0.00000000000E+00 0.  1.
         11    1    1    2    0    0  0.19157463490E+02 -0.91479948782E+01  0.43039769391E+02  0.47990790438E+02  0.00000000000E+00 0. -1.
</event>
<event>
 7    1  0.2384639E-009  0.8281883E+02  0.7561462E-02  0.1321237E+00
          1   -1    0    0  501    0  0.00000000000E+00  0.00000000000E+00  0.99345121271E+03  0.99345121271E+03  0.00000000000E+00 0. -1.
         -1   -1    0    0    0  501 -0.00000000000E+00 -0.00000000000E+00 -0.13809125727E+02  0.13809125727E+02  0.00000000000E+00 0.  1.
         25    2    1    2    0    0 -0.36815329224E+02  0.13349330632E+02  0.63151722787E+03  0.64497769372E+03  0.12509453707E+03 0.  0.
          5    1    3    3  502    0 -0.61316606527E+01 -0.22807724450E+02  0.18960497216E+02  0.30573884471E+02  0.41800000000E+01 0.  1.
         -5    1    3    3    0  502 -0.30683668571E+02  0.36157055082E+02  0.61255673066E+03  0.61440380925E+03  0.41800000000E+01 0.  1.
        -11    1    1    2    0    0  0.53900463464E+02 -0.36630829500E+02  0.29177134075E+03  0.29896085516E+03  0.00000000000E+00 0. -1.
         11    1    1    2    0    0 -0.17085134241E+02  0.23281498868E+02  0.56353518361E+02  0.63321789561E+02  0.00000000000E+00 0.  1.
</event>
<event>
 7    1  0.3239220E-009  0.1476614E+03  0.7561462E-02  0.1203376E+00
          3   -1    0    0  501    0  0.00000000000E+00  0.00000000000E+00  0.20315671617E+03  0.20315671617E+03  0.00000000000E+00 0. -1.
         -3   -1    0    0    0  501 -0.00000000000E+00 -0.00000000000E+00 -0.11659202204E+03  0.11659202204E+03  0.00000000000E+00 0.  1.
         25    2    1    2    0    0  0.37280910978E+02 -0.92728772996E+02  0.90965666001E+02  0.18415002083E+03  0.12509191067E+03 0.  0.
          5    1    3    3  502    0  0.53234007584E+02  0.11289867088E+02  0.26535889577E+02  0.60687284483E+02  0.41800000000E+01 0. -1.
         -5    1    3    3    0  502 -0.15953096606E+02 -0.10401864008E+03  0.64429776424E+02  0.12346273635E+03  0.41800000000E+01 0. -1.
        -11    1    1    2    0    0  0.25611995130E+02  0.58412633541E+02  0.53409866967E+00  0.63783189895E+02  0.00000000000E+00 0.  1.
         11    1    1    2    0    0 -0.62892906108E+02  0.34316139454E+02 -0.49350705402E+01  0.71815527478E+02  0.00000000000E+00 0. -1.
</event>
<event>
 7    1  0.2384639E-009  0.1060173E+03  0.7561462E-02  0.1268128E+00
         -1   -1    0    0    0  501 -0.00000000000E+00  0.00000000000E+00  0.76869968444E+02  0.76869968444E+02  0.00000000000E+00 0.  1.
          1   -1    0    0  501    0  0.00000000000E+00 -0.00000000000E+00 -0.17702769914E+03  0.17702769914E+03  0.00000000000E+00 0. -1.
         25    2    1    2    0    0 -0.18634485600E+02 -0.42075917088E+02 -0.58763793301E+02  0.14566510507E+03  0.12509001791E+03 0.  0.
          5    1    3    3  502    0 -0.51487507032E+02  0.22254719824E+02 -0.44954457442E+02  0.72004246949E+02  0.41800000000E+01 0.  1.
         -5    1    3    3    0  502  0.32853021432E+02 -0.64330636911E+02 -0.13809335860E+02  0.73660858124E+02  0.41800000000E+01 0.  1.
        -11    1    1    2    0    0 -0.24378744613E+02  0.16993927883E+01  0.13267351087E+02  0.27807080566E+02  0.00000000000E+00 0.  1.
         11    1    1    2    0    0  0.43013230212E+02  0.40376524299E+02 -0.54661288483E+02  0.80425481947E+02  0.00000000000E+00 0. -1.
</event>
<event>
 7    1  0.2384639E-009  0.1322123E+03  0.7561462E-02  0.1224209E+00
          1   -1    0    0  501    0  0.00000000000E+00  0.00000000000E+00  0.41912863485E+03  0.41912863485E+03  0.00000000000E+00 0. -1.
         -1   -1    0    0    0  501 -0.00000000000E+00 -0.00000000000E+00 -0.57232647789E+02  0.57232647789E+02  0.00000000000E+00 0.  1.
         25    2    1    2    0    0 -0.58771139775E+02 -0.95037980757E+02  0.21023528741E+03  0.26894732006E+03  0.12509004852E+03 0.  0.
          5    1    3    3  502    0 -0.74159816892E+02 -0.10871375186E+03  0.21009076842E+03  0.24793943143E+03  0.41800000000E+01 0. -1.
         -5    1    3    3    0  502  0.15388677117E+02  0.13675771105E+02  0.14451898884E+00  0.21007888625E+02  0.41800000000E+01 0. -1.
        -11    1    1    2    0    0  0.27772062124E+02  0.43515364091E+02  0.13572233916E+03  0.14520822186E+03  0.00000000000E+00 0. -1.
         11    1    1    2    0    0  0.30999077652E+02  0.51522616666E+02  0.15938360486E+02  0.62205740718E+02  0.00000000000E+00 0.  1.
</event>
<event>
 7    1  0.2384639E-009  0.1262937E+03  0.7561462E-02  0.1233061E+00
          3   -1    0    0  501    0  0.00000000000E+00  0.00000000000E+00  0.21032857690E+03  0.21032857690E+03  0.00000000000E+00 0. -1.
         -3   -1    0    0    0  501 -0.00000000000E+00 -0.00000000000E+00 -0.83871803222E+02  0.83871803222E+02  0.00000000000E+00 0.  1.
         25    2    1    2    0    0 -0.59351358565E+02 -0.41901798997E+02  0.83154952110E+02  0.16685283693E+03  0.12508708410E+03 0.  0.
          5    1    3    3  502    0 -0.29037560057E+02 -0.84377698740E+02  0.68254104679E+02  0.11242273411E+03  0.41800000000E+01 0.  1.
         -5    1    3    3    0  502 -0.30313798508E+02  0.42475899742E+02  0.14900847431E+02  0.54430102820E+02  0.41800000000E+01 0.  1.
        -11    1    1    2    0    0  0.45554984315E+02 -0.18336138776E+02 -0.43676613164E+01  0.49300578562E+02  0.00000000000E+00 0.  1.
         11    1    1    2    0    0  0.13796374249E+02  0.60237937773E+02  0.47669482883E+02  0.78046964630E+02  0.00000000000E+00 0. -1.
</event>
<event>
 7    1  0.2384639E-009  0.7032966E+02  0.7561462E-02  0.1358976E+00
          1   -1    0    0  501    0  0.00000000000E+00  0.00000000000E+00  0.24633045480E+03  0.24633045480E+03  0.00000000000E+00 0. -1.
         -1   -1    0    0    0  501 -0.00000000000E+00 -0.00000000000E+00 -0.13001672386E+03  0.13001672386E+03  0.00000000000E+00 0.  1.
         25    2    1    2    0    0 -0.35290377394E+02  0.11525900273E+02  0.18604276223E+03  0.22724004052E+03  0.12509144464E+03 0.  0.
          5    1    3    3  502    0  0.76500239964E+01  0.67115128369E+01 -0.16646776864E+02  0.19953817972E+02  0.41800000000E+01 0.  1.
         -5    1    3    3    0  502 -0.42940401390E+02  0.48143874361E+01  0.20268953910E+03  0.20728622255E+03  0.41800000000E+01 0.  1.
        -11    1    1    2    0    0  0.84539932117E+01  0.33105575955E+02  0.24087661331E+02  0.41805078506E+02  0.00000000000E+00 0. -1.
         11    1    1    2    0    0  0.26836384182E+02 -0.44631476228E+02 -0.93816692628E+02  0.10730205963E+03  0.00000000000E+00 0.  1.
</event>
<event>
 7    1  0.2384639E-009  0.2271830E+03  0.7561462E-02  0.1128638E+00
          1   -1    0    0  501    0  0.00000000000E+00  0.00000000000E+00  0.11925698215E+04  0.11925698215E+04  0.00000000000E+00 0. -1.
         -1   -1    0    0    0  501 -0.00000000000E+00 -0.00000000000E+00 -0.50662530735E+02  0.50662530735E+02  0.00000000000E+00 0.  1.
         25    2    1    2    0    0  0.21913985770E+03 -0.51447847735E+01  0.52787064336E+03  0.58510552419E+03  0.12510920141E+03 0.  0.
          5    1    3    3  502    0  0.92774038649E+02  0.41525181245E+00  0.90043537577E+02  0.12935418718E+03  0.41800000000E+01 0.  1.
         -5    1    3    3    0  502  0.12636581905E+03 -0.55600365859E+01  0.43782710579E+03  0.45575133702E+03  0.41800000000E+01 0.  1.
        -11    1    1    2    0    0 -0.43126994624E+02  0.36080076462E+02  0.18504971385E+03  0.19340399732E+03  0.00000000000E+00 0.  1.
         11    1    1    2    0    0 -0.17601286307E+03 -0.30935291688E+02  0.42898693359E+03  0.46472283076E+03  0.00000000000E+00 0. -1.
</event>
<event>
 7    1  0.2384639E-009  0.1313278E+03  0.7561462E-02  0.1225499E+00
         -2   -1    0    0    0  501 -0.00000000000E+00  0.00000000000E+00  0.86095106740E+02  0.86095106740E+02  0.00000000000E+00 0.  1.
          2   -1    0    0  501    0  0.00000000000E+00 -0.00000000000E+00 -0.24414949907E+03  0.24414949907E+03  0.00000000000E+00 0. -1.
         25    2    1    2    0    0  0.14130744591E+02  0.95033732626E+02 -0.10784774825E+03  0.19107480242E+03  0.12508938819E+03 0.  0.
          5    1    3    3  502    0 -0.40191081102E+02 -0.11115714193E+01 -0.61417894559E+01  0.40887070926E+02  0.41800000000E+01 0.  1.
         -5    1    3    3    0  502  0.54321825693E+02  0.96145304045E+02 -0.10170595880E+03  0.15018773149E+03  0.41800000000E+01 0.  1.
        -11    1    1    2    0    0 -0.28104713638E+02 -0.17870451530E+02  0.15619291906E+02  0.36785734275E+02  0.00000000000E+00 0.  1.
         11    1    1    2    0    0  0.13973969047E+02 -0.77163281096E+02 -0.65825935982E+02  0.10238406911E+03  0.00000000000E+00 0. -1.
</event>
<event>
 7    1  0.2384639E-009  0.1072966E+03  0.7561462E-02  0.1265660E+00
          2   -1    0    0  501    0  0.00000000000E+00  0.00000000000E+00  0.13987382870E+03  0.13987382870E+03  0.00000000000E+00 0. -1.
         -2   -1    0    0    0  501 -0.00000000000E+00 -0.00000000000E+00 -0.94035540574E+02  0.94035540574E+02  0.00000000000E+00 0.  1.
         25    2    1    2    0    0 -0.27259662207E+02  0.24674991577E+02  0.19229143741E+02  0.13179637020E+03  0.12509427979E+03 0.  0.
          5    1    3    3  502    0 -0.45627620933E+02 -0.37711506708E+02  0.28743414344E+02  0.65937044204E+02  0.41800000000E+01 0. -1.
         -5    1    3    3    0  502  0.18367958727E+02  0.62386498285E+02 -0.95142706026E+01  0.65859326000E+02  0.41800000000E+01 0. -1.
        -11    1    1    2    0    0 -0.22483155849E+02 -0.32713155331E+02  0.32606150221E+02  0.51369289083E+02  0.00000000000E+00 0. -1.
         11    1    1    2    0    0  0.49742818056E+02  0.80381637541E+01 -0.59970058341E+01  0.50743709991E+02  0.00000000000E+00 0.  1.
</event>
<event>
 7    1  0.2384639E-009  0.2066879E+03  0.7561462E-02  0.1144216E+00
         -2   -1    0    0    0  501 -0.00000000000E+00  0.00000000000E+00  0.16160632574E+03  0.16160632574E+03  0.00000000000E+00 0.  1.
          2   -1    0    0  501    0  0.00000000000E+00 -0.00000000000E+00 -0.36236595677E+03  0.36236595677E+03  0.00000000000E+00 0. -1.
         25    2    1    2    0    0 -0.12461887600E+03  0.13851659177E+03 -0.22138532038E+03  0.31523626183E+03  0.12508289348E+03 0.  0.
          5    1    3    3  502    0 -0.10142438416E+02  0.86747778332E+02 -0.14136302126E+03  0.16621980111E+03  0.41800000000E+01 0. -1.
         -5    1    3    3    0  502 -0.11447643759E+03  0.51768813435E+02 -0.80022299117E+02  0.14901646071E+03  0.41800000000E+01 0. -1.
        -11    1    1    2    0    0  0.12404680943E+03 -0.93822982355E+02  0.39098909632E+02  0.16037171721E+03  0.00000000000E+00 0. -1.
         11    1    1    2    0    0  0.57206657232E+00 -0.44693609412E+02 -0.18473220282E+02  0.48364303469E+02  0.00000000000E+00 0.  1.
</event>
<event>
 7    1  0.2384639E-009  0.2375314E+03  0.7561462E-02  0.1121448E+00
          3   -1    0    0  501    0  0.00000000000E+00  0.00000000000E+00  0.32262906283E+03  0.32262906283E+03  0.00000000000E+00 0. -1.
         -3   -1    0    0    0  501 -0.00000000000E+00 -0.00000000000E+00 -0.20087142602E+03  0.20087142602E+03  0.00000000000E+00 0.  1.
         25    2    1    2    0    0 -0.14609679531E+03 -0.17806643134E+03  0.50254997686E+02  0.26688062580E+03  0.12509107107E+03 0.  0.
          5    1    3    3  502    0 -0.66438905820E+02 -0.32646926635E+02  0.67317024635E+02  0.10014491615E+03  0.41800000000E+01 0.  1.
         -5    1    3    3    0  502 -0.79657889491E+02 -0.14541950471E+03 -0.17062026949E+02  0.16673570965E+03  0.41800000000E+01 0.  1.
        -11    1    1    2    0    0  0.33316599025E+02  0.75867639951E+02  0.63171859908E+02  0.10419490605E+03  0.00000000000E+00 0. -1.
         11    1    1    2    0    0  0.11278019629E+03  0.10219879139E+03  0.83307792164E+01  0.15242495701E+03  0.00000000000E+00 0.  1.
</event>
<event>
 7    1  0.2384639E-009  0.1488639E+03  0.7561462E-02  0.1201876E+00
         -4   -1    0    0    0  501 -0.00000000000E+00  0.00000000000E+00  0.16224304135E+03  0.16224304135E+03  0.00000000000E+00 0.  1.
          4   -1    0    0  501    0  0.00000000000E+00 -0.00000000000E+00 -0.15116034480E+03  0.15116034480E+03  0.00000000000E+00 0. -1.
         25    2    1    2    0    0 -0.65318418115E+02  0.81072706792E+02 -0.36967582793E+02  0.16689420713E+03  0.12509114542E+03 0.  0.
          5    1    3    3  502    0 -0.31894300828E+01  0.97337938897E+02 -0.30851970319E+02  0.10224560277E+03  0.41800000000E+01 0.  1.
         -5    1    3    3    0  502 -0.62128988032E+02 -0.16265232106E+02 -0.61156124737E+01  0.64648604357E+02  0.41800000000E+01 0.  1.
        -11    1    1    2    0    0  0.25848808762E+02  0.16479330638E+02 -0.39905569952E+00  0.30657600985E+02  0.00000000000E+00 0.  1.
         11    1    1    2    0    0  0.39469609352E+02 -0.97552037430E+02  0.48449335045E+02  0.11585157804E+03  0.00000000000E+00 0. -1.
</event>
<event>
 7    1  0.3271874E-009  0.2105152E+03  0.7561462E-02  0.1141159E+00
          1   -1    0    0  501    0  0.00000000000E+00  0.00000000000E+00  0.87810708226E+03  0.87810708226E+03  0.00000000000E+00 0. -1.
         -1   -1    0    0    0  501 -0.00000000000E+00 -0.00000000000E+00 -0.62023521566E+02  0.62023521566E+02  0.00000000000E+00 0.  1.
         25    2    1    2    0    0  0.52951434757E+02  0.19322939756E+03  0.51945302154E+03  0.57063180114E+03  0.12509099231E+03 0.  0.
          5    1    3    3  502    0  0.17581612944E+02  0.12305022248E+03  0.44587039849E+03  0.46289129935E+03  0.41800000000E+01 0.  1.
         -5    1    3    3    0  502  0.35369821813E+02  0.70179175080E+02  0.73582623056E+02  0.10774050179E+03  0.41800000000E+01 0.  1.
        -11    1    1    2    0    0  0.70450785096E+01 -0.13217112013E+03  0.20579016210E+03  0.24468025859E+03  0.00000000000E+00 0. -1.
         11    1    1    2    0    0 -0.59996513267E+02 -0.61058277432E+02  0.90840377051E+02  0.12481854409E+03  0.00000000000E+00 0.  1.
</event>
<event>
 7    1  0.2384639E-009  0.1061221E+03  0.7561462E-02  0.1267924E+00
          2   -1    0    0  501    0  0.00000000000E+00  0.00000000000E+00  0.32239890454E+03  0.32239890454E+03  0.00000000000E+00 0. -1.
         -2   -1    0    0    0  501 -0.00000000000E+00 -0.00000000000E+00 -0.46282395745E+02  0.46282395745E+02  0.00000000000E+00 0.  1.
         25    2    1    2    0    0 -0.22803966579E+01  0.54927997750E+02  0.14108469721E+03  0.19640737682E+03  0.12509468709E+03 0.  0.
          5    1    3    3  502    0  0.25976486552E+02 -0.15009739404E+02  0.11105455216E+03  0.11511149416E+03  0.41800000000E+01 0. -1.
         -5    1    3    3    0  502 -0.28256883210E+02  0.69937737155E+02  0.30030145045E+02  0.81295882667E+02  0.41800000000E+01 0. -1.
        -11    1    1    2    0    0  0.40740343621E+02 -0.54373856034E+02  0.77464384734E+02  0.10303893789E+03  0.00000000000E+00 0. -1.
         11    1    1    2    0    0 -0.38459946963E+02 -0.55414171611E+00  0.57567426850E+02  0.69234985575E+02  0.00000000000E+00 0.  1.
</event>
<event>
 7    1  0.2384639E-009  0.1705741E+03  0.7561462E-02  0.1177251E+00
          1   -1    0    0  501    0  0.00000000000E+00  0.00000000000E+00  0.21409683602E+03  0.21409683602E+03  0.00000000000E+00 0. -1.
         -1   -1    0    0    0  501 -0.00000000000E+00 -0.00000000000E+00 -0.18911946431E+03  0.18911946431E+03  0.00000000000E+00 0.  1.
         25    2    1    2    0    0 -0.76024845825E+02 -0.15070158565E+03  0.27441914692E+02  0.21187478777E+03  0.12508845634E+03 0.  0.
          5    1    3    3  502    0 -0.27624123059E+02 -0.78533205446E+02 -0.48463090621E+02  0.96419396829E+02  0.41800000000E+01 0. -1.
         -5    1    3    3    0  502 -0.48400722766E+02 -0.72168380203E+02  0.75905005314E+02  0.11545539094E+03  0.41800000000E+01 0. -1.
        -11    1    1    2    0    0  0.37578271772E+02  0.10230180957E+03  0.40279128574E+02  0.11619033931E+03  0.00000000000E+00 0. -1.
         11    1    1    2    0    0  0.38446574053E+02  0.48399776076E+02 -0.42743671558E+02  0.75151173237E+02  0.00000000000E+00 0.  1.
</event>
<event>
 7    1  0.2384639E-009  0.9736877E+02  0.7561462E-02  0.1285928E+00
          2   -1    0    0  501    0  0.00000000000E+00  0.00000000000E+00  0.10356213688E+04  0.10356213688E+04  0.00000000000E+00 0. -1.
         -2   -1    0    0    0  501 -0.00000000000E+00 -0.00000000000E+00 -0.23863553892E+02  0.23863553892E+02  0.00000000000E+00 0.  1.
         25    2    1    2    0    0 -0.12955871328E+02 -0.91887180921E+02  0.77440623354E+03  0.78991366940E+03  0.12508989544E+03 0.  0.
          5    1    3    3  502    0  0.10238587182E+02 -0.32202235515E+02  0.64072202692E+03  0.64162605996E+03  0.41800000000E+01 0. -1.
         -5    1    3    3    0  502 -0.23194458509E+02 -0.59684945407E+02  0.13368420662E+03  0.14828760944E+03  0.41800000000E+01 0. -1.
        -11    1    1    2    0    0 -0.67380719526E+01  0.47289257156E+02  0.20632707632E+03  0.21178417759E+03  0.00000000000E+00 0. -1.
         11    1    1    2    0    0  0.19693943280E+02  0.44597923765E+02  0.31024505083E+02  0.57787075733E+02  0.00000000000E+00 0.  1.
</event>
<event>
 7    1  0.2384639E-009  0.1757765E+03  0.7561462E-02  0.1171954E+00
         -2   -1    0    0    0  501 -0.00000000000E+00  0.00000000000E+00  0.62081346123E+02  0.62081346123E+02  0.00000000000E+00 0.  1.
          2   -1    0    0  501    0  0.00000000000E+00 -0.00000000000E+00 -0.50325742352E+03  0.50325742352E+03  0.00000000000E+00 0. -1.
         25    2    1    2    0    0 -0.96813660514E+02  0.99220860224E+02 -0.22140695385E+03  0.28963086701E+03  0.12508931188E+03 0.  0.
          5    1    3    3  502    0 -0.12689674315E+03  0.76833669555E+02 -0.18535149113E+03  0.23744229586E+03  0.41800000000E+01 0. -1.
         -5    1    3    3    0  502  0.30083082634E+02  0.22387190669E+02 -0.36055462725E+02  0.52188571154E+02  0.41800000000E+01 0. -1.
        -11    1    1    2    0    0  0.11456212541E+03 -0.87376449693E+02 -0.17986667008E+03  0.23045855060E+03  0.00000000000E+00 0. -1.
         11    1    1    2    0    0 -0.17748464892E+02 -0.11844410531E+02 -0.39902453466E+02  0.45249352033E+02  0.00000000000E+00 0.  1.
</event>
<event>
 7    1  0.2384639E-009  0.1591411E+03  0.7561462E-02  0.1189670E+00
          2   -1    0    0  501    0  0.00000000000E+00  0.00000000000E+00  0.86001823758E+03  0.86001823758E+03  0.00000000000E+00 0. -1.
         -2   -1    0    0    0  501 -0.00000000000E+00 -0.00000000000E+00 -0.41453069059E+02  0.41453069059E+02  0.00000000000E+00 0.  1.
         25    2    1    2    0    0 -0.13940890862E+03 -0.65378249643E+02  0.44950012397E+03  0.49132861433E+03  0.12507712212E+03 0.  0.
          5    1    3    3  502    0 -0.64222096725E+02 -0.49236327112E+02  0.79931637553E+02  0.11382105560E+03  0.41800000000E+01 0.  1.
         -5    1    3    3    0  502 -0.75186811894E+02 -0.16141922531E+02  0.36956848642E+03  0.37750755873E+03  0.41800000000E+01 0.  1.
        -11    1    1    2    0    0  0.11788987846E+03  0.71482377834E+02  0.36088921123E+03  0.38632729203E+03  0.00000000000E+00 0. -1.
         11    1    1    2    0    0  0.21519030161E+02 -0.61041281910E+01  0.81758333142E+01  0.23815400278E+02  0.00000000000E+00 0.  1.
</event>
<event>
 7    1  0.2384639E-009  0.1092683E+03  0.7561462E-02  0.1261931E+00
          2   -1    0    0  501    0  0.00000000000E+00  0.00000000000E+00  0.29560637715E+03  0.29560637715E+03  0.00000000000E+00 0. -1.
         -2   -1    0    0    0  501 -0.00000000000E+00 -0.00000000000E+00 -0.65772712224E+02  0.65772712224E+02  0.00000000000E+00 0.  1.
         25    2    1    2    0    0 -0.34825558332E+02 -0.77519237622E+02  0.11795612352E+03  0.19178955514E+03  0.12509010620E+03 0.  0.
          5    1    3    3  502    0  0.57265039297E+01 -0.28335757337E+02 -0.22905361240E+02  0.37119212878E+02  0.41800000000E+01 0.  1.
         -5    1    3    3    0  502 -0.40552062262E+02 -0.49183480285E+02  0.14086148476E+03  0.15467034226E+03  0.41800000000E+01 0.  1.
        -11    1    1    2    0    0 -0.36713103164E+01  0.85956125102E+02  0.90029826660E+02  0.12452832469E+03  0.00000000000E+00 0.  1.
         11    1    1    2    0    0  0.38496868648E+02 -0.84368874805E+01  0.21847714751E+02  0.45061209548E+02  0.00000000000E+00 0. -1.
</event>
<event>
 7    1  0.2384639E-009  0.1524857E+03  0.7561462E-02  0.1197451E+00
          2   -1    0    0  501    0  0.00000000000E+00  0.00000000000E+00  0.94040286159E+03  0.94040286159E+03  0.00000000000E+00 0. -1.
         -2   -1    0    0    0  501 -0.00000000000E+00 -0.00000000000E+00 -0.28815561894E+02  0.28815561894E+02  0.00000000000E+00 0.  1.
         25    2    1    2    0    0  0.12198088834E+03  0.20784540960E+02  0.50265053076E+03  0.53255674866E+03  0.12509116760E+03 0.  0.
          5    1    3    3  502    0  0.13405483152E+03  0.31757344254E+02  0.31106634002E+03  0.34023369477E+03  0.41800000000E+01 0. -1.
         -5    1    3    3    0  502 -0.12073943176E+02 -0.10972803294E+02  0.19158419074E+03  0.19232305389E+03  0.41800000000E+01 0. -1.
        -11    1    1    2    0    0 -0.45696799138E+02 -0.50795567216E+02  0.22807604741E+03  0.23809046706E+03  0.00000000000E+00 0. -1.
         11    1    1    2    0    0 -0.76284089202E+02  0.30011026255E+02  0.18086072152E+03  0.19857120776E+03  0.00000000000E+00 0.  1.
</event>
<event>
 7    1  0.2384639E-009  0.1080014E+03  0.7561462E-02  0.1264316E+00
          1   -1    0    0  501    0  0.00000000000E+00  0.00000000000E+00  0.35847265979E+03  0.35847265979E+03  0.00000000000E+00 0. -1.
         -1   -1    0    0    0  501 -0.00000000000E+00 -0.00000000000E+00 -0.45170716637E+02  0.45170716637E+02  0.00000000000E+00 0.  1.
         25    2    1    2    0    0 -0.59965695750E+02 -0.14553917162E+02  0.13312327086E+03  0.19281243042E+03  0.12508847632E+03 0.  0.
          5    1    3    3  502    0 -0.53972133369E+02  0.46134239032E+02  0.10164015950E+03  0.12405463964E+03  0.41800000000E+01 0.  1.
         -5    1    3    3    0  502 -0.59935623810E+01 -0.60688156194E+02  0.31483111356E+02  0.68757790779E+02  0.41800000000E+01 0.  1.
        -11    1    1    2    0    0  0.53747483624E+02 -0.13170582809E+02  0.41233996727E+02  0.69010859533E+02  0.00000000000E+00 0.  1.
         11    1    1    2    0    0  0.62182121265E+01  0.27724499971E+02  0.13894467556E+03  0.14182008647E+03  0.00000000000E+00 0. -1.
</event>
<event>
 7    1  0.2384639E-009  0.6878304E+02  0.7561462E-02  0.1364281E+00
          2   -1    0    0  501    0  0.00000000000E+00  0.00000000000E+00  0.21220908074E+03  0.21220908074E+03  0.00000000000E+00 0.  1.
         -2   -1    0    0    0  501 -0.00000000000E+00 -0.00000000000E+00 -0.73905158664E+02  0.73905158664E+02  0.00000000000E+00 0. -1.
         25    2    1    2    0    0  0.66275776321E+01  0.38427745321E+02  0.12672485437E+03  0.18228320528E+03  0.12508941529E+03 0.  0.
          5    1    3    3  502    0 -0.74553093322E+01  0.26221162861E+02 -0.20159973521E+02  0.34161790810E+02  0.41800000000E+01 0. -1.
         -5    1    3    3    0  502  0.14082886964E+02  0.12206582460E+02  0.14688482789E+03  0.14812141447E+03  0.41800000000E+01 0. -1.
        -11    1    1    2    0    0 -0.86480844548E+01  0.25500548744E+02 -0.18981431600E+02  0.32944834141E+02  0.00000000000E+00 0. -1.
         11    1    1    2    0    0  0.20205068226E+01 -0.63928294064E+02  0.30560499303E+02  0.70886199979E+02  0.00000000000E+00 0.  1.
</event>
<event>
 7    1  0.2384639E-009  0.1055514E+03  0.7561462E-02  0.1269037E+00
         -2   -1    0    0    0  501 -0.00000000000E+00  0.00000000000E+00  0.16402186315E+02  0.16402186315E+02  0.00000000000E+00 0.  1.
          2   -1    0    0  501    0  0.00000000000E+00 -0.00000000000E+00 -0.74520195681E+03  0.74520195681E+03  0.00000000000E+00 0. -1.
         25    2    1    2    0    0 -0.84860635029E+01  0.13704820203E+02 -0.39377734702E+03  0.41348316785E+03  0.12509154926E+03 0.  0.
          5    1    3    3  502    0 -0.29461826785E+02 -0.46870637738E+02 -0.24866078888E+03  0.25478327309E+03  0.41800000000E+01 0.  1.
         -5    1    3    3    0  502  0.20975763282E+02  0.60575457941E+02 -0.14511655814E+03  0.15869989476E+03  0.41800000000E+01 0.  1.
        -11    1    1    2    0    0 -0.28434527111E+02  0.24993952662E+02 -0.96167888813E+02  0.10335125950E+03  0.00000000000E+00 0.  1.
         11    1    1    2    0    0  0.36920590614E+02 -0.38698772865E+02 -0.23885453466E+03  0.24476971577E+03  0.00000000000E+00 0. -1.
</event>
<event>
 7    1  0.2384639E-009  0.1165132E+03  0.7561462E-02  0.1248963E+00
          2   -1    0    0  501    0  0.00000000000E+00  0.00000000000E+00  0.30421947318E+02  0.30421947318E+02  0.00000000000E+00 0. -1.
         -2   -1    0    0    0  501 -0.00000000000E+00 -0.00000000000E+00 -0.48025254070E+03  0.48025254070E+03  0.00000000000E+00 0.  1.
         25    2    1    2    0    0  0.51517873840E+02  0.12107745721E+02 -0.22141264872E+03  0.25975230903E+03  0.12508801783E+03 0.  0.
          5    1    3    3  502    0 -0.10935636616E+02  0.57189749465E+02 -0.86785117157E+02  0.10459151281E+03  0.41800000000E+01 0. -1.
         -5    1    3    3    0  502  0.62453510457E+02 -0.45082003744E+02 -0.13462753156E+03  0.15516079622E+03  0.41800000000E+01 0. -1.
        -11    1    1    2    0    0  0.45172245059E+01 -0.36226645458E+02 -0.46943554453E+02  0.59468247520E+02  0.00000000000E+00 0. -1.
         11    1    1    2    0    0 -0.56035098346E+02  0.24118899737E+02 -0.18147439021E+03  0.19145393147E+03  0.00000000000E+00 0.  1.
</event>
<event>
 7    1  0.2384639E-009  0.1183339E+03  0.7561462E-02  0.1245871E+00
          2   -1    0    0  501    0  0.00000000000E+00  0.00000000000E+00  0.88566905899E+03  0.88566905899E+03  0.00000000000E+00 0. -1.
         -2   -1    0    0    0  501 -0.00000000000E+00 -0.00000000000E+00 -0.45552964054E+02  0.45552964054E+02  0.00000000000E+00 0.  1.
         25    2    1    2    0    0 -0.94605186396E+02  0.42847998382E+02  0.74543035772E+03  0.76295576096E+03  0.12509589406E+03 0.  0.
          5    1    3    3  502    0 -0.77676738432E+02  0.11683503398E+02  0.70347899180E+03  0.70786322425E+03  0.41800000000E+01 0. -1.
         -5    1    3    3    0  502 -0.16928447963E+02  0.31164494984E+02  0.41951365916E+02  0.55092536702E+02  0.41800000000E+01 0. -1.
        -11    1    1    2    0    0  0.89285956784E+02 -0.10947831077E+02  0.10106812018E+03  0.13530189208E+03  0.00000000000E+00 0. -1.
         11    1    1    2    0    0  0.53192296116E+01 -0.31900167306E+02 -0.63823829590E+01  0.32964370008E+02  0.00000000000E+00 0.  1.
</event>
<event>
 7    1  0.2384639E-009  0.1406329E+03  0.7561462E-02  0.1212480E+00
         -1   -1    0    0    0  501 -0.00000000000E+00  0.00000000000E+00  0.31992819114E+03  0.31992819114E+03  0.00000000000E+00 0.  1.
          1   -1    0    0  501    0  0.00000000000E+00 -0.00000000000E+00 -0.78242544323E+02  0.78242544323E+02  0.00000000000E+00 0. -1.
         25    2    1    2    0    0 -0.95294077252E+02  0.51108906659E+02  0.71757976895E+02  0.18024982120E+03  0.12509080420E+03 0.  0.
          5    1    3    3  502    0 -0.11312740038E+03  0.17954651467E+02  0.20377689285E+02  0.11641692681E+03  0.41800000000E+01 0. -1.
         -5    1    3    3    0  502  0.17833323133E+02  0.33154255192E+02  0.51380287611E+02  0.63832894391E+02  0.41800000000E+01 0. -1.
        -11    1    1    2    0    0  0.61506461768E+02 -0.67410945402E+02  0.83453495173E+02  0.12365988135E+03  0.00000000000E+00 0. -1.
         11    1    1    2    0    0  0.33787615484E+02  0.16302038743E+02  0.86474174753E+02  0.94261032916E+02  0.00000000000E+00 0.  1.
</event>
<event>
 7    1  0.2384639E-009  0.1041716E+03  0.7561462E-02  0.1271760E+00
         -1   -1    0    0    0  501 -0.00000000000E+00  0.00000000000E+00  0.30756673594E+03  0.30756673594E+03  0.00000000000E+00 0.  1.
          1   -1    0    0  501    0  0.00000000000E+00 -0.00000000000E+00 -0.63762033708E+02  0.63762033708E+02  0.00000000000E+00 0. -1.
         25    2    1    2    0    0 -0.66625136537E+02  0.54902008182E+02  0.12254514744E+03  0.19523739120E+03  0.12508871428E+03 0.  0.
          5    1    3    3  502    0 -0.47272936701E+02 -0.35373467420E+01 -0.10363721684E+02  0.48704440182E+02  0.41800000000E+01 0.  1.
         -5    1    3    3    0  502 -0.19352199836E+02  0.58439354924E+02  0.13290886913E+03  0.14653295102E+03  0.41800000000E+01 0.  1.
        -11    1    1    2    0    0  0.27407362059E+02 -0.53143855926E+02  0.12303336705E+03  0.13679416042E+03  0.00000000000E+00 0.  1.
         11    1    1    2    0    0  0.39217774478E+02 -0.17581522561E+01 -0.17738122614E+01  0.39297218022E+02  0.00000000000E+00 0. -1.
</event>
<event>
 7    1  0.2384650E-009  0.2068303E+03  0.7561462E-02  0.1144101E+00
         -2   -1    0    0    0  501 -0.00000000000E+00  0.00000000000E+00  0.79800251225E+02  0.79800251225E+02  0.00000000000E+00 0. -1.
          2   -1    0    0  501    0  0.00000000000E+00 -0.00000000000E+00 -0.87761471812E+03  0.87761471812E+03  0.00000000000E+00 0.  1.
         25    2    1    2    0    0 -0.22088748823E+02 -0.20170799340E+03 -0.64530331167E+03  0.68792316480E+03  0.12509152323E+03 0.  0.
          5    1    3    3  502    0 -0.36861727554E+01  0.21637156251E+01 -0.17358403682E+03  0.17368695914E+03  0.41800000000E+01 0.  1.
         -5    1    3    3    0  502 -0.18402576068E+02 -0.20387170903E+03 -0.47171927485E+03  0.51423620566E+03  0.41800000000E+01 0.  1.
        -11    1    1    2    0    0  0.11471114222E+02  0.90212835711E+02 -0.12426352289E+03  0.15398495157E+03  0.00000000000E+00 0.  1.
         11    1    1    2    0    0  0.10617634601E+02  0.11149515769E+03 -0.28247632335E+02  0.11550685298E+03  0.00000000000E+00 0. -1.
</event>
<event>
 7    1  0.2581539E-009  0.8300471E+02  0.7561462E-02  0.1320734E+00
          2   -1    0    0  501    0  0.00000000000E+00  0.00000000000E+00  0.70045825643E+03  0.70045825643E+03  0.00000000000E+00 0. -1.
         -2   -1    0    0    0  501 -0.00000000000E+00 -0.00000000000E+00 -0.22246401983E+02  0.22246401983E+02  0.00000000000E+00 0.  1.
         25    2    1    2    0    0  0.20177965994E+02  0.42295435090E+02  0.49340899399E+03  0.51117191113E+03  0.12509289844E+03 0.  0.
          5    1    3    3  502    0  0.39529213700E+02  0.54634090678E+02  0.12556117056E+03  0.14258514141E+03  0.41800000000E+01 0.  1.
         -5    1    3    3    0  502 -0.19351247705E+02 -0.12338655588E+02  0.36784782343E+03  0.36858676972E+03  0.41800000000E+01 0.  1.
        -11    1    1    2    0    0 -0.25845890643E+02  0.59650524725E+01  0.73180439466E+01  0.27516280296E+02  0.00000000000E+00 0.  1.
         11    1    1    2    0    0  0.56679246485E+01 -0.48260487563E+02  0.17748481651E+03  0.18401646698E+03  0.00000000000E+00 0. -1.
</event>
<event>
 7    1  0.2384639E-009  0.1150888E+03  0.7561462E-02  0.1251426E+00
         -1   -1    0    0    0  501 -0.00000000000E+00  0.00000000000E+00  0.34049295284E+03  0.34049295284E+03  0.00000000000E+00 0.  1.
          1   -1    0    0  501    0  0.00000000000E+00 -0.00000000000E+00 -0.44687811835E+02  0.44687811835E+02  0.00000000000E+00 0. -1.
         25    2    1    2    0    0 -0.11142880615E+02 -0.50810188610E+02  0.20553852926E+03  0.24616823050E+03  0.12508745598E+03 0.  0.
          5    1    3    3  502    0 -0.52828340212E+02 -0.64737573571E+02  0.17008039931E+03  0.18954313913E+03  0.41800000000E+01 0. -1.
         -5    1    3    3    0  502  0.41685459597E+02  0.13927384961E+02  0.35458129947E+02  0.56625091373E+02  0.41800000000E+01 0. -1.
        -11    1    1    2    0    0 -0.36525645933E+02  0.38636686119E+02  0.29424422292E+02  0.60767696618E+02  0.00000000000E+00 0.  1.
         11    1    1    2    0    0  0.47668526548E+02  0.12173502491E+02  0.60842189455E+02  0.78244837554E+02  0.00000000000E+00 0. -1.
</event>
<event>
 7    1  0.2384639E-009  0.9116321E+02  0.7561462E-02  0.1300059E+00
         -2   -1    0    0    0  501 -0.00000000000E+00  0.00000000000E+00  0.52260022277E+02  0.52260022277E+02  0.00000000000E+00 0.  1.
          2   -1    0    0  501    0  0.00000000000E+00 -0.00000000000E+00 -0.46884913011E+03  0.46884913011E+03  0.00000000000E+00 0. -1.
         25    2    1    2    0    0 -0.30725037266E+02 -0.14252401377E+02 -0.40186847310E+03  0.42224748574E+03  0.12509001033E+03 0.  0.
          5    1    3    3  502    0 -0.37190662742E+02 -0.57907048597E+02 -0.33499055846E+03  0.34201245347E+03  0.41800000000E+01 0.  1.
         -5    1    3    3    0  502  0.64656254768E+01  0.43654647220E+02 -0.66877914642E+02  0.80235032272E+02  0.41800000000E+01 0.  1.
        -11    1    1    2    0    0 -0.10260974064E+02  0.24705754098E+02  0.28012667126E+02  0.38734627839E+02  0.00000000000E+00 0.  1.
         11    1    1    2    0    0  0.40986011330E+02 -0.10453352721E+02 -0.42733301857E+02  0.60127038805E+02  0.00000000000E+00 0. -1.
</event>
<event>
 7    1  0.2478200E-009  0.2459542E+03  0.7561462E-02  0.1115889E+00
         -2   -1    0    0    0  501 -0.00000000000E+00  0.00000000000E+00  0.40772607261E+02  0.40772607261E+02  0.00000000000E+00 0.  1.
          2   -1    0    0  501    0  0.00000000000E+00 -0.00000000000E+00 -0.16137970024E+04  0.16137970024E+04  0.00000000000E+00 0. -1.
         25    2    1    2    0    0 -0.21460721330E+03 -0.77421559605E+02 -0.94701625739E+03  0.98210922723E+03  0.12509351922E+03 0.  0.
          5    1    3    3  502    0 -0.19820179034E+03 -0.97049856524E+02 -0.70592157058E+03  0.73962514868E+03  0.41800000000E+01 0.  1.
         -5    1    3    3    0  502 -0.16405422963E+02  0.19628296919E+02 -0.24109468681E+03  0.24248407855E+03  0.41800000000E+01 0.  1.
        -11    1    1    2    0    0  0.93734501705E+02  0.81657474351E+02 -0.33479986619E+03  0.35713449893E+03  0.00000000000E+00 0.  1.
         11    1    1    2    0    0  0.12087271160E+03 -0.42359147458E+01 -0.29120827159E+03  0.31532588353E+03  0.00000000000E+00 0. -1.
</event>
<event>
 7    1  0.2384639E-009  0.8427790E+02  0.7561462E-02  0.1317332E+00
          2   -1    0    0  501    0  0.00000000000E+00  0.00000000000E+00  0.28021495743E+03  0.28021495743E+03  0.00000000000E+00 0. -1.
         -2   -1    0    0    0  501 -0.00000000000E+00 -0.00000000000E+00 -0.51746108952E+02  0.51746108952E+02  0.00000000000E+00 0.  1.
         25    2    1    2    0    0 -0.43690193275E+02  0.19416194903E+02  0.95220955516E+02  0.16431700545E+03  0.12508887359E+03 0.  0.
          5    1    3    3  502    0 -0.31102723396E+02 -0.13279870946E+02 -0.22888496100E+02  0.41049848096E+02  0.41800000000E+01 0. -1.
         -5    1    3    3    0  502 -0.12587469879E+02  0.32696065849E+02  0.11810945162E+03  0.12326715735E+03  0.41800000000E+01 0. -1.
        -11    1    1    2    0    0 -0.26758200989E+02 -0.70328897461E+01  0.55401320911E+02  0.61925513458E+02  0.00000000000E+00 0. -1.
         11    1    1    2    0    0  0.70448394264E+02 -0.12383305157E+02  0.77846572054E+02  0.10571854748E+03  0.00000000000E+00 0.  1.
</event>
<event>
 7    1  0.2384639E-009  0.7510095E+02  0.7561462E-02  0.1343559E+00
          1   -1    0    0  501    0  0.00000000000E+00  0.00000000000E+00  0.32131580384E+03  0.32131580384E+03  0.00000000000E+00 0. -1.
         -1   -1    0    0    0  501 -0.00000000000E+00 -0.00000000000E+00 -0.37849515716E+02  0.37849515716E+02  0.00000000000E+00 0.  1.
         25    2    1    2    0    0 -0.11428870482E+02 -0.13369358436E+02  0.15098613971E+03  0.19685741443E+03  0.12508664360E+03 0.  0.
          5    1    3    3  502    0 -0.31922368501E+02 -0.25373213258E+02  0.16428252733E+03  0.16931939861E+03  0.41800000000E+01 0.  1.
         -5    1    3    3    0  502  0.20493498019E+02  0.12003854822E+02 -0.13296387615E+02  0.27538015819E+02  0.41800000000E+01 0.  1.
        -11    1    1    2    0    0  0.38470989027E+02  0.33794287333E+02  0.11084673475E+03  0.12210270046E+03  0.00000000000E+00 0. -1.
         11    1    1    2    0    0 -0.27042118545E+02 -0.20424928896E+02  0.21633413656E+02  0.40205204666E+02  0.00000000000E+00 0.  1.
</event>
<event>
 7    1  0.2384639E-009  0.8583236E+02  0.7561462E-02  0.1313270E+00
         -1   -1    0    0    0  501 -0.00000000000E+00  0.00000000000E+00  0.91800550974E+02  0.91800550974E+02  0.00000000000E+00 0.  1.
          1   -1    0    0  501    0  0.00000000000E+00 -0.00000000000E+00 -0.17433521420E+03  0.17433521420E+03  0.00000000000E+00 0. -1.
         25    2    1    2    0    0 -0.53310598465E+02 -0.11240635008E+02 -0.84186220005E+01  0.13670118790E+03  0.12509184543E+03 0.  0.
          5    1    3    3  502    0 -0.23700328542E+02  0.17781977021E+02  0.53949562281E+02  0.61692235736E+02  0.41800000000E+01 0.  1.
         -5    1    3    3    0  502 -0.29610269924E+02 -0.29022612029E+02 -0.62368184281E+02  0.75008952162E+02  0.41800000000E+01 0.  1.
        -11    1    1    2    0    0  0.74191272661E+02  0.20877384809E+02 -0.73391298968E+02  0.10642599729E+03  0.00000000000E+00 0. -1.
         11    1    1    2    0    0 -0.20880674196E+02 -0.96367498017E+01 -0.72474226036E+00  0.23008579986E+02  0.00000000000E+00 0.  1.
</event>
<event>
 7    1  0.2384639E-009  0.1200695E+03  0.7561462E-02  0.1242982E+00
          1   -1    0    0  501    0  0.00000000000E+00  0.00000000000E+00  0.11528739698E+03  0.11528739698E+03  0.00000000000E+00 0. -1.
         -1   -1    0    0    0  501 -0.00000000000E+00 -0.00000000000E+00 -0.15638784827E+03  0.15638784827E+03  0.00000000000E+00 0.  1.
         25    2    1    2    0    0 -0.79732213710E+02  0.73858371093E+01 -0.32148960782E+02  0.15196331890E+03  0.12509004005E+03 0.  0.
          5    1    3    3  502    0  0.88274355261E+01  0.43396358277E+02  0.12732824007E+02  0.46268398901E+02  0.41800000000E+01 0.  1.
         -5    1    3    3    0  502 -0.88559649236E+02 -0.36010521168E+02 -0.44881784788E+02  0.10569492000E+03  0.41800000000E+01 0.  1.
        -11    1    1    2    0    0  0.15319563436E+02  0.23874749613E+02  0.27378618936E+02  0.39424376568E+02  0.00000000000E+00 0. -1.
         11    1    1    2    0    0  0.64412650274E+02 -0.31260586722E+02 -0.36330109443E+02  0.80287549780E+02  0.00000000000E+00 0.  1.
</event>
<event>
 7    1  0.2384639E-009  0.1142245E+03  0.7561462E-02  0.1252941E+00
         -2   -1    0    0    0  501 -0.00000000000E+00  0.00000000000E+00  0.31596631506E+02  0.31596631506E+02  0.00000000000E+00 0.  1.
          2   -1    0    0  501    0  0.00000000000E+00 -0.00000000000E+00 -0.55084398290E+03  0.55084398290E+03  0.00000000000E+00 0. -1.
         25    2    1    2    0    0  0.30392035383E+02 -0.77081190165E+01 -0.39067256018E+03  0.41140667424E+03  0.12508921383E+03 0.  0.
          5    1    3    3  502    0  0.18727728875E+02 -0.60719496599E+02 -0.29049116232E+03  0.29738892528E+03  0.41800000000E+01 0.  1.
         -5    1    3    3    0  502  0.11664306508E+02  0.53011377583E+02 -0.10018139786E+03  0.11401774896E+03  0.41800000000E+01 0.  1.
        -11    1    1    2    0    0 -0.25993630649E+02 -0.47926286589E+02 -0.81326697003E+02  0.97911334512E+02  0.00000000000E+00 0. -1.
         11    1    1    2    0    0 -0.43984047340E+01  0.55634405605E+02 -0.47248094213E+02  0.73122605657E+02  0.00000000000E+00 0.  1.
</event>
<event>
 7    1  0.2384639E-009  0.2361692E+03  0.7561462E-02  0.1122371E+00
          2   -1    0    0  501    0  0.00000000000E+00  0.00000000000E+00  0.86426416938E+03  0.86426416938E+03  0.00000000000E+00 0. -1.
         -2   -1    0    0    0  501 -0.00000000000E+00 -0.00000000000E+00 -0.68814345184E+02  0.68814345184E+02  0.00000000000E+00 0.  1.
         25    2    1    2    0    0  0.10299849192E+03  0.19115022679E+03  0.39386388588E+03  0.46682288975E+03  0.12509097189E+03 0.  0.
          5    1    3    3  502    0  0.11665679632E+03  0.11803118945E+03  0.32696766619E+03  0.36669537350E+03  0.41800000000E+01 0.  1.
         -5    1    3    3    0  502 -0.13658304402E+02  0.73119037343E+02  0.66896219691E+02  0.10012751625E+03  0.41800000000E+01 0.  1.
        -11    1    1    2    0    0 -0.56695424337E+02 -0.29962258659E+02  0.15802601602E+03  0.17054128480E+03  0.00000000000E+00 0. -1.
         11    1    1    2    0    0 -0.46303067585E+02 -0.16118796813E+03  0.24355992230E+03  0.29571434001E+03  0.00000000000E+00 0.  1.
</event>
<event>
 7    1  0.2384639E-009  0.1871032E+03  0.7561462E-02  0.1161100E+00
         -2   -1    0    0    0  501 -0.00000000000E+00  0.00000000000E+00  0.15569664511E+03  0.15569664511E+03  0.00000000000E+00 0.  1.
          2   -1    0    0  501    0  0.00000000000E+00 -0.00000000000E+00 -0.24449115980E+03  0.24449115980E+03  0.00000000000E+00 0. -1.
         25    2    1    2    0    0 -0.12212617019E+03  0.96978480722E+02 -0.17614765239E+01  0.19992684824E+03  0.12509202484E+03 0.  0.
          5    1    3    3  502    0 -0.14714016146E+03  0.93082185495E+02 -0.36497699133E+01  0.17419906312E+03  0.41800000000E+01 0. -1.
         -5    1    3    3    0  502  0.25013991263E+02  0.38962952272E+01  0.18882933894E+01  0.25727785123E+02  0.41800000000E+01 0. -1.
        -11    1    1    2    0    0  0.15817394914E+02 -0.59655793809E+02 -0.71160645850E+01  0.62126017834E+02  0.00000000000E+00 0.  1.
         11    1    1    2    0    0  0.10630877528E+03 -0.37322686914E+02 -0.79916973581E+02  0.13813493883E+03  0.00000000000E+00 0. -1.
</event>
<event>
 7    1  0.2384639E-009  0.1349749E+03  0.7561462E-02  0.1220255E+00
         -2   -1    0    0    0  501 -0.00000000000E+00  0.00000000000E+00  0.16753061230E+03  0.16753061230E+03  0.00000000000E+00 0.  1.
          2   -1    0    0  501    0  0.00000000000E+00 -0.00000000000E+00 -0.13022188511E+03  0.13022188511E+03  0.00000000000E+00 0. -1.
         25    2    1    2    0    0  0.89056075623E+02  0.17379700448E+02 -0.38701340930E+01  0.15458172389E+03  0.12508993897E+03 0.  0.
          5    1    3    3  502    0  0.22447436853E+02 -0.51546519045E+02  0.11152986118E+02  0.57469927321E+02  0.41800000000E+01 0. -1.
         -5    1    3    3    0  502  0.66608638770E+02  0.68926219493E+02 -0.15023120211E+02  0.97111796571E+02  0.41800000000E+01 0. -1.
        -11    1    1    2    0    0 -0.55035251479E+02 -0.47113252592E+02 -0.11951493109E+02  0.73425987652E+02  0.00000000000E+00 0. -1.
         11    1    1    2    0    0 -0.34020824144E+02  0.29733552144E+02  0.53130354390E+02  0.69744785871E+02  0.00000000000E+00 0.  1.
</event>
<event>
 7    1  0.2580630E-009  0.9575676E+02  0.7561462E-02  0.1289481E+00
         -1   -1    0    0    0  501 -0.00000000000E+00  0.00000000000E+00  0.32846415552E+03  0.32846415552E+03  0.00000000000E+00 0.  1.
          1   -1    0    0  501    0  0.00000000000E+00 -0.00000000000E+00 -0.72072237863E+02  0.72072237863E+02  0.00000000000E+00 0. -1.
         25    2    1    2    0    0 -0.21822150121E+02 -0.84461563399E+02  0.53790350817E+02  0.16171551442E+03  0.12509413989E+03 0.  0.
          5    1    3    3  502    0 -0.19659399901E+02 -0.58853565239E+02 -0.33489625903E+02  0.70634705273E+02  0.41800000000E+01 0.  1.
         -5    1    3    3    0  502 -0.21627502200E+01 -0.25607998160E+02  0.87279976720E+02  0.91080809145E+02  0.41800000000E+01 0.  1.
        -11    1    1    2    0    0 -0.89601946776E+01  0.67593270820E+02  0.18943346054E+03  0.20133099940E+03  0.00000000000E+00 0.  1.
         11    1    1    2    0    0  0.30782344799E+02  0.16868292579E+02  0.13168106296E+02  0.37489879558E+02  0.00000000000E+00 0. -1.
</event>
<event>
 7    1  0.2384639E-009  0.9508513E+02  0.7561462E-02  0.1290984E+00
          4   -1    0    0  501    0  0.00000000000E+00  0.00000000000E+00  0.15914889185E+03  0.15914889185E+03  0.00000000000E+00 0. -1.
         -4   -1    0    0    0  501 -0.00000000000E+00 -0.00000000000E+00 -0.86324976983E+02  0.86324976983E+02  0.00000000000E+00 0.  1.
         25    2    1    2    0    0  0.29970981979E+02 -0.12458435002E+02  0.38111225868E+02  0.13473548783E+03  0.12509082213E+03 0.  0.
          5    1    3    3  502    0  0.27522134942E+02  0.51669889843E+02  0.38912472081E+02  0.70419445550E+02  0.41800000000E+01 0. -1.
         -5    1    3    3    0  502  0.24488470370E+01 -0.64128324845E+02 -0.80124621329E+00  0.64316042281E+02  0.41800000000E+01 0. -1.
        -11    1    1    2    0    0 -0.47615526616E+02  0.13499751215E+02 -0.19895083138E+02  0.53341315983E+02  0.00000000000E+00 0.  1.
         11    1    1    2    0    0  0.17644544636E+02 -0.10413162134E+01  0.54607772138E+02  0.57397065019E+02  0.00000000000E+00 0. -1.
</event>
<event>
 7    1  0.2384639E-009  0.1019096E+03  0.7561462E-02  0.1276331E+00
         -2   -1    0    0    0  501 -0.00000000000E+00  0.00000000000E+00  0.54343517398E+02  0.54343517398E+02  0.00000000000E+00 0. -1.
          2   -1    0    0  501    0  0.00000000000E+00 -0.00000000000E+00 -0.30239541370E+03  0.30239541370E+03  0.00000000000E+00 0.  1.
         25    2    1    2    0    0  0.84694004447E+01 -0.34237135072E+02 -0.66841049981E+02  0.14614380070E+03  0.12508546022E+03 0.  0.
          5    1    3    3  502    0  0.14037639429E+02  0.40222407691E+02  0.41795868386E+01  0.43009751771E+02  0.41800000000E+01 0. -1.
         -5    1    3    3    0  502 -0.55682389843E+01 -0.74459542763E+02 -0.71020636819E+02  0.10313404893E+03  0.41800000000E+01 0. -1.
        -11    1    1    2    0    0 -0.33435954443E+02 -0.10457820129E+02 -0.14158772601E+03  0.14585750995E+03  0.00000000000E+00 0.  1.
         11    1    1    2    0    0  0.24966553999E+02  0.44694955200E+02 -0.39623120315E+02  0.64737620457E+02  0.00000000000E+00 0. -1.
</event>
<event>
 7    1  0.2384639E-009  0.1197906E+03  0.7561462E-02  0.1243443E+00
         -2   -1    0    0    0  501 -0.00000000000E+00  0.00000000000E+00  0.38952575291E+02  0.38952575291E+02  0.00000000000E+00 0. -1.
          2   -1    0    0  501    0  0.00000000000E+00 -0.00000000000E+00 -0.40251739532E+03  0.40251739532E+03  0.00000000000E+00 0.  1.
         25    2    1    2    0    0 -0.20718068173E+01  0.72178848357E+02 -0.18887235778E+03  0.23776594781E+03  0.12508317182E+03 0.  0.
          5    1    3    3  502    0 -0.49517911006E+02  0.74650610034E+02 -0.85424587712E+02  0.12385301641E+03  0.41800000000E+01 0.  1.
         -5    1    3    3    0  502  0.47446104188E+02 -0.24717616766E+01 -0.10344777007E+03  0.11391293140E+03  0.41800000000E+01 0.  1.
        -11    1    1    2    0    0  0.37051944198E+02 -0.32213808066E+02 -0.10647044920E+03  0.11724560781E+03  0.00000000000E+00 0.  1.
         11    1    1    2    0    0 -0.34980137381E+02 -0.39965040291E+02 -0.68222013050E+02  0.86458414982E+02  0.00000000000E+00 0. -1.
</event>
<event>
 7    1  0.2384639E-009  0.1653636E+03  0.7561462E-02  0.1182771E+00
          1   -1    0    0  501    0  0.00000000000E+00  0.00000000000E+00  0.81214626872E+02  0.81214626872E+02  0.00000000000E+00 0. -1.
         -1   -1    0    0    0  501 -0.00000000000E+00 -0.00000000000E+00 -0.35947717744E+03  0.35947717744E+03  0.00000000000E+00 0.  1.
         25    2    1    2    0    0  0.69341526433E+02  0.11308113328E+03 -0.15883995572E+03  0.24181254330E+03  0.12509030567E+03 0.  0.
          5    1    3    3  502    0  0.79905822974E+02  0.13017480277E+03 -0.16001693681E+03  0.22125395429E+03  0.41800000000E+01 0. -1.
         -5    1    3    3    0  502 -0.10564296541E+02 -0.17093669481E+02  0.11769810991E+01  0.20558589014E+02  0.41800000000E+01 0. -1.
        -11    1    1    2    0    0  0.19782327066E+02 -0.14641095914E+02 -0.29918042665E+02  0.38740049439E+02  0.00000000000E+00 0.  1.
         11    1    1    2    0    0 -0.89123853499E+02 -0.98440037371E+02 -0.89504552185E+02  0.16013921157E+03  0.00000000000E+00 0. -1.
</event>
<event>
 7    1  0.2384639E-009  0.1025239E+03  0.7561462E-02  0.1275076E+00
          1   -1    0    0  501    0  0.00000000000E+00  0.00000000000E+00  0.26917004124E+03  0.26917004124E+03  0.00000000000E+00 0. -1.
         -1   -1    0    0    0  501 -0.00000000000E+00 -0.00000000000E+00 -0.50792133129E+02  0.50792133129E+02  0.00000000000E+00 0.  1.
         25    2    1    2    0    0 -0.62019383666E+01  0.32570486583E+02  0.15882764958E+03  0.20487619939E+03  0.12509490065E+03 0.  0.
          5    1    3    3  502    0 -0.25101474051E+02  0.76516653401E+02  0.11001779511E+03  0.13640480156E+03  0.41800000000E+01 0.  1.
         -5    1    3    3    0  502  0.18899535684E+02 -0.43946166819E+02  0.48809854467E+02  0.68471397826E+02  0.41800000000E+01 0.  1.
        -11    1    1    2    0    0 -0.29375491521E+02 -0.27890191391E+02  0.67135657821E+02  0.78409048132E+02  0.00000000000E+00 0. -1.
         11    1    1    2    0    0  0.35577429888E+02 -0.46802951920E+01 -0.75853992939E+01  0.36676926847E+02  0.00000000000E+00 0.  1.
</event>
<event>
 7    1  0.2384639E-009  0.2886158E+03  0.7561462E-02  0.1091074E+00
         -1   -1    0    0    0  501 -0.00000000000E+00  0.00000000000E+00  0.12653407243E+03  0.12653407243E+03  0.00000000000E+00 0.  1.
          1   -1    0    0  501    0  0.00000000000E+00 -0.00000000000E+00 -0.81152663540E+03  0.81152663540E+03  0.00000000000E+00 0. -1.
         25    2    1    2    0    0 -0.21485579533E+03 -0.18696765880E+03 -0.49517877709E+03  0.58478152548E+03  0.12508993975E+03 0.  0.
          5    1    3    3  502    0 -0.99109929523E+02 -0.44312641662E+02 -0.28823436447E+03  0.30803069588E+03  0.41800000000E+01 0.  1.
         -5    1    3    3    0  502 -0.11574586581E+03 -0.14265501714E+03 -0.20694441262E+03  0.27675082960E+03  0.41800000000E+01 0.  1.
        -11    1    1    2    0    0  0.34689873603E+02  0.31750449780E+02 -0.76635039508E+02  0.89913334229E+02  0.00000000000E+00 0.  1.
         11    1    1    2    0    0  0.18016592173E+03  0.15521720902E+03 -0.11317874637E+03  0.26336584813E+03  0.00000000000E+00 0. -1.
</event>
<event>
 7    1  0.2384639E-009  0.1111699E+03  0.7561462E-02  0.1258419E+00
         -1   -1    0    0    0  501 -0.00000000000E+00  0.00000000000E+00  0.31513194389E+03  0.31513194389E+03  0.00000000000E+00 0.  1.
          1   -1    0    0  501    0  0.00000000000E+00 -0.00000000000E+00 -0.64740168212E+02  0.64740168212E+02  0.00000000000E+00 0. -1.
         25    2    1    2    0    0  0.45811684448E+02  0.71758852557E+02  0.83383060196E+02  0.17276660911E+03  0.12509006013E+03 0.  0.
          5    1    3    3  502    0  0.40015686754E+00  0.62746564496E+02  0.10430005789E+03  0.12179189611E+03  0.41800000000E+01 0. -1.
         -5    1    3    3    0  502  0.45411527580E+02  0.90122880605E+01 -0.20916997692E+02  0.50974713003E+02  0.41800000000E+01 0. -1.
        -11    1    1    2    0    0 -0.20585694332E+02  0.13125420412E+02  0.77253574254E+02  0.81019517446E+02  0.00000000000E+00 0.  1.
         11    1    1    2    0    0 -0.25225990116E+02 -0.84884272969E+02  0.89755141231E+02  0.12608598555E+03  0.00000000000E+00 0. -1.
</event>
<event>
 7    1  0.2384639E-009  0.1094031E+03  0.7561462E-02  0.1261679E+00
         -1   -1    0    0    0  501 -0.00000000000E+00  0.00000000000E+00  0.87068808265E+02  0.87068808265E+02  0.00000000000E+00 0.  1.
          1   -1    0    0  501    0  0.00000000000E+00 -0.00000000000E+00 -0.27456316266E+03  0.27456316266E+03  0.00000000000E+00 0. -1.
         25    2    1    2    0    0 -0.68232094428E+02  0.68161504676E+02 -0.40151073624E+02  0.16297585742E+03  0.12508961571E+03 0.  0.
          5    1    3    3  502    0 -0.31303785961E+02  0.76860590310E+02 -0.74518128313E+02  0.11161496856E+03  0.41800000000E+01 0. -1.
         -5    1    3    3    0  502 -0.36928308467E+02 -0.86990856342E+01  0.34367054689E+02  0.51360888866E+02  0.41800000000E+01 0. -1.
        -11    1    1    2    0    0  0.52039191897E+02 -0.42456009143E+02 -0.23519946218E+02  0.71160228188E+02  0.00000000000E+00 0.  1.
         11    1    1    2    0    0  0.16192902532E+02 -0.25705495533E+02 -0.12382333455E+03  0.12749588532E+03  0.00000000000E+00 0. -1.
</event>
<event>
 7    1  0.2384639E-009  0.1247602E+03  0.7561462E-02  0.1235444E+00
         -1   -1    0    0    0  501 -0.00000000000E+00  0.00000000000E+00  0.25791661263E+02  0.25791661263E+02  0.00000000000E+00 0.  1.
          1   -1    0    0  501    0  0.00000000000E+00 -0.00000000000E+00 -0.15895098984E+04  0.15895098984E+04  0.00000000000E+00 0. -1.
         25    2    1    2    0    0 -0.21936416614E+02 -0.60242752351E+02 -0.14498679144E+04  0.14566646581E+04  0.12507822109E+03 0.  0.
          5    1    3    3  502    0 -0.70376605081E+02 -0.58612244055E+02 -0.90759420001E+03  0.91221322397E+03  0.41800000000E+01 0.  1.
         -5    1    3    3    0  502  0.48440188466E+02 -0.16305082961E+01 -0.54227371440E+03  0.54445143415E+03  0.41800000000E+01 0.  1.
        -11    1    1    2    0    0 -0.23841831642E+02 -0.95832263992E+01 -0.17224659158E+02  0.30934770847E+02  0.00000000000E+00 0.  1.
         11    1    1    2    0    0  0.45778248256E+02  0.69825978751E+02 -0.96625663533E+02  0.12770213066E+03  0.00000000000E+00 0. -1.
</event>
<event>
 7    1  0.2384639E-009  0.1342639E+03  0.7561462E-02  0.1221263E+00
          1   -1    0    0  501    0  0.00000000000E+00  0.00000000000E+00  0.74007583649E+02  0.74007583649E+02  0.00000000000E+00 0.  1.
         -1   -1    0    0    0  501 -0.00000000000E+00 -0.00000000000E+00 -0.36205051848E+03  0.36205051848E+03  0.00000000000E+00 0. -1.
         25    2    1    2    0    0  0.32047944866E+02 -0.95710188677E+02 -0.24079096184E+03  0.28950912249E+03  0.12509090180E+03 0.  0.
          5    1    3    3  502    0  0.77061695251E+02 -0.74994871966E+02 -0.13523037707E+03  0.17282205582E+03  0.41800000000E+01 0. -1.
         -5    1    3    3    0  502 -0.45013750385E+02 -0.20715316711E+02 -0.10556058477E+03  0.11668706667E+03  0.41800000000E+01 0. -1.
        -11    1    1    2    0    0 -0.41305628833E+02  0.51492246424E+02  0.16848417009E+02  0.68128375666E+02  0.00000000000E+00 0.  1.
         11    1    1    2    0    0  0.92576839675E+01  0.44217942253E+02 -0.64100389993E+02  0.78420603969E+02  0.00000000000E+00 0. -1.
</event>
<event>
 7    1  0.2384639E-009  0.2136759E+03  0.7561462E-02  0.1138688E+00
         -2   -1    0    0    0  501 -0.00000000000E+00  0.00000000000E+00  0.59801763575E+02  0.59801763575E+02  0.00000000000E+00 0.  1.
          2   -1    0    0  501    0  0.00000000000E+00 -0.00000000000E+00 -0.82810652449E+03  0.82810652449E+03  0.00000000000E+00 0. -1.
         25    2    1    2    0    0  0.24489502972E+02 -0.18894522258E+03 -0.46768354361E+03  0.52026434616E+03  0.12508820900E+03 0.  0.
          5    1    3    3  502    0 -0.30374409650E+02 -0.14558097574E+03 -0.37963200192E+03  0.40774300060E+03  0.41800000000E+01 0. -1.
         -5    1    3    3    0  502  0.54863912622E+02 -0.43364246833E+02 -0.88051541693E+02  0.11252134556E+03  0.41800000000E+01 0. -1.
        -11    1    1    2    0    0 -0.56303408676E+02  0.12518038821E+03 -0.22634571683E+03  0.26471227200E+03  0.00000000000E+00 0. -1.
         11    1    1    2    0    0  0.31813905704E+02  0.63764834369E+02 -0.74275500469E+02  0.10293166990E+03  0.00000000000E+00 0.  1.
</event>
<event>
 7    1  0.2384639E-009  0.1340225E+03  0.7561462E-02  0.1221606E+00
          2   -1    0    0  501    0  0.00000000000E+00  0.00000000000E+00  0.14635273933E+04  0.14635273933E+04  0.00000000000E+00 0. -1.
         -2   -1    0    0    0  501 -0.00000000000E+00 -0.00000000000E+00 -0.17859203952E+02  0.17859203952E+02  0.00000000000E+00 0.  1.
         25    2    1    2    0    0  0.81041209718E+02  0.89182698969E+02  0.80403411534E+03  0.82258117904E+03  0.12509079110E+03 0.  0.
          5    1    3    3  502    0  0.81001549253E+02  0.86744278143E+02  0.37149862810E+03  0.39001861988E+03  0.41800000000E+01 0.  1.
         -5    1    3    3    0  502  0.39660465089E-01  0.24384208256E+01  0.43253548723E+03  0.43256255916E+03  0.41800000000E+01 0.  1.
        -11    1    1    2    0    0 -0.13196382226E+02 -0.73683027346E+02  0.24741855395E+03  0.25849424339E+03  0.00000000000E+00 0.  1.
         11    1    1    2    0    0 -0.67844827492E+02 -0.15499671623E+02  0.39421552009E+03  0.40031117486E+03  0.00000000000E+00 0. -1.
</event>
<event>
 7    1  0.2384639E-009  0.1225773E+03  0.7561462E-02  0.1238905E+00
          1   -1    0    0  501    0  0.00000000000E+00  0.00000000000E+00  0.28713447974E+02  0.28713447974E+02  0.00000000000E+00 0. -1.
         -1   -1    0    0    0  501 -0.00000000000E+00 -0.00000000000E+00 -0.67636990764E+03  0.67636990764E+03  0.00000000000E+00 0.  1.
         25    2    1    2    0    0  0.77593259035E+02 -0.22853560983E+02 -0.27072230527E+03  0.30899799595E+03  0.12508475460E+03 0.  0.
          5    1    3    3  502    0  0.40850454759E+02 -0.64941706860E+02 -0.22140414143E+03  0.23435752855E+03  0.41800000000E+01 0. -1.
         -5    1    3    3    0  502  0.36742804276E+02  0.42088145877E+02 -0.49318163834E+02  0.74640467398E+02  0.41800000000E+01 0. -1.
        -11    1    1    2    0    0 -0.86112023988E+02 -0.18812672270E+01 -0.34054352250E+03  0.35126729219E+03  0.00000000000E+00 0. -1.
         11    1    1    2    0    0  0.85187649528E+01  0.24734828210E+02 -0.36390631897E+02  0.44818067482E+02  0.00000000000E+00 0.  1.
</event>
<event>
 7    1  0.2384639E-009  0.1896509E+03  0.7561462E-02  0.1158777E+00
          1   -1    0    0  501    0  0.00000000000E+00  0.00000000000E+00  0.44880589711E+03  0.44880589711E+03  0.00000000000E+00 0. -1.
         -1   -1    0    0    0  501 -0.00000000000E+00 -0.00000000000E+00 -0.96891445463E+02  0.96891445463E+02  0.00000000000E+00 0.  1.
         25    2    1    2    0    0  0.11440959933E+03 -0.12239102734E+03  0.11195353103E+03  0.23717157225E+03  0.12509053354E+03 0.  0.
          5    1    3    3  502    0  0.13182958402E+03 -0.94920081167E+02  0.12162941414E+03  0.20297794909E+03  0.41800000000E+01 0.  1.
         -5    1    3    3    0  502 -0.17419984696E+02 -0.27470946169E+02 -0.96758831190E+01  0.34193623154E+02  0.41800000000E+01 0.  1.
        -11    1    1    2    0    0 -0.10896725407E+03  0.66092192506E+02  0.11625692303E+03  0.17250423914E+03  0.00000000000E+00 0.  1.
         11    1    1    2    0    0 -0.54423452572E+01  0.56298834830E+02  0.12370399760E+03  0.13602153119E+03  0.00000000000E+00 0. -1.
</event>
<event>
 7    1  0.2470502E-009  0.1403273E+03  0.7561462E-02  0.1212889E+00
         -1   -1    0    0    0  501 -0.00000000000E+00  0.00000000000E+00  0.12103523505E+02  0.12103523505E+02  0.00000000000E+00 0.  1.
          1   -1    0    0  501    0  0.00000000000E+00 -0.00000000000E+00 -0.16531622445E+04  0.16531622445E+04  0.00000000000E+00 0. -1.
         25    2    1    2    0    0 -0.48413228102E+02 -0.75722403371E+02 -0.94382679184E+03  0.95631264654E+03  0.12508853625E+03 0.  0.
          5    1    3    3  502    0  0.13781013741E+02  0.28390590115E+02 -0.15840815360E+03  0.16157523781E+03  0.41800000000E+01 0. -1.
         -5    1    3    3    0  502 -0.62194241843E+02 -0.10411299349E+03 -0.78541863824E+03  0.79473740872E+03  0.41800000000E+01 0. -1.
        -11    1    1    2    0    0 -0.17722725598E+02 -0.90940133014E+01 -0.81556905474E+02  0.83954302516E+02  0.00000000000E+00 0.  1.
         11    1    1    2    0    0  0.66135953701E+02  0.84816416673E+02 -0.61567502372E+03  0.62499881899E+03  0.00000000000E+00 0. -1.
</event>
<event>
 7    1  0.2384639E-009  0.1146474E+03  0.7561462E-02  0.1252198E+00
         -1   -1    0    0    0  501 -0.00000000000E+00  0.00000000000E+00  0.10628456231E+03  0.10628456231E+03  0.00000000000E+00 0.  1.
          1   -1    0    0  501    0  0.00000000000E+00 -0.00000000000E+00 -0.15864200126E+03  0.15864200126E+03  0.00000000000E+00 0. -1.
         25    2    1    2    0    0  0.50172890034E+02 -0.17486718367E+02 -0.30035847470E+02  0.13919010761E+03  0.12509448313E+03 0.  0.
          5    1    3    3  502    0  0.65471367895E+02 -0.54675814172E+02 -0.44438905563E+02  0.96271664559E+02  0.41800000000E+01 0. -1.
         -5    1    3    3    0  502 -0.15298477860E+02  0.37189095805E+02  0.14403058093E+02  0.42918443052E+02  0.41800000000E+01 0. -1.
        -11    1    1    2    0    0 -0.41578562671E+02 -0.32481491994E+02  0.23162882295E+02  0.57622420222E+02  0.00000000000E+00 0.  1.
         11    1    1    2    0    0 -0.85943273630E+01  0.49968210361E+02 -0.45484473773E+02  0.68114035734E+02  0.00000000000E+00 0. -1.
</event>
<event>
 7    1  0.2384639E-009  0.1159322E+03  0.7561462E-02  0.1249963E+00
          2   -1    0    0  501    0  0.00000000000E+00  0.00000000000E+00  0.11109530033E+03  0.11109530033E+03  0.00000000000E+00 0. -1.
         -2   -1    0    0    0  501 -0.00000000000E+00 -0.00000000000E+00 -0.12957197275E+03  0.12957197275E+03  0.00000000000E+00 0.  1.
         25    2    1    2    0    0 -0.16788680331E+02  0.44875769973E+02  0.67544008340E+01  0.13412447336E+03  0.12509219762E+03 0.  0.
          5    1    3    3  502    0  0.46196163320E+02  0.51196049512E+02  0.13286620605E+02  0.70350036803E+02  0.41800000000E+01 0.  1.
         -5    1    3    3    0  502 -0.62984843651E+02 -0.63202795384E+01 -0.65322197710E+01  0.63774436558E+02  0.41800000000E+01 0.  1.
        -11    1    1    2    0    0 -0.34804267190E+02 -0.74212417474E+01  0.50833520510E+01  0.35947911091E+02  0.00000000000E+00 0.  1.
         11    1    1    2    0    0  0.51592947521E+02 -0.37454528226E+02 -0.30314425301E+02  0.70594888624E+02  0.00000000000E+00 0. -1.
</event>
<event>
 7    1  0.2384639E-009  0.1576365E+03  0.7561462E-02  0.1191391E+00
         -1   -1    0    0    0  501 -0.00000000000E+00  0.00000000000E+00  0.10106213391E+03  0.10106213391E+03  0.00000000000E+00 0.  1.
          1   -1    0    0  501    0  0.00000000000E+00 -0.00000000000E+00 -0.31297888974E+03  0.31297888974E+03  0.00000000000E+00 0. -1.
         25    2    1    2    0    0 -0.41319442033E+02  0.13180990266E+03 -0.14911329361E+03  0.23867009279E+03  0.12508993618E+03 0.  0.
          5    1    3    3  502    0  0.75025480867E+01  0.79425337868E+02 -0.78933789784E+01  0.80277334005E+02  0.41800000000E+01 0. -1.
         -5    1    3    3    0  502 -0.48821990120E+02  0.52384564791E+02 -0.14121991463E+03  0.15839275879E+03  0.41800000000E+01 0. -1.
        -11    1    1    2    0    0  0.17075370763E+02 -0.13765985285E+03 -0.51178324722E+02  0.14785474052E+03  0.00000000000E+00 0. -1.
         11    1    1    2    0    0  0.24244071270E+02  0.58499501859E+01 -0.11625137498E+02  0.27516190339E+02  0.00000000000E+00 0.  1.
</event>
<event>
 7    1  0.2384639E-009  0.1462931E+03  0.7561462E-02  0.1205103E+00
         -2   -1    0    0    0  501 -0.00000000000E+00  0.00000000000E+00  0.91339795352E+02  0.91339795352E+02  0.00000000000E+00 0.  1.
          2   -1    0    0  501    0  0.00000000000E+00 -0.00000000000E+00 -0.30410094652E+03  0.30410094652E+03  0.00000000000E+00 0. -1.
         25    2    1    2    0    0 -0.82502185022E+02 -0.87184529893E+02 -0.15827907495E+03  0.23475068345E+03  0.12509142667E+03 0.  0.
          5    1    3    3  502    0 -0.29104258814E+02 -0.10685841167E+03 -0.75086631276E+02  0.13387028282E+03  0.41800000000E+01 0.  1.
         -5    1    3    3    0  502 -0.53397926208E+02  0.19673881773E+02 -0.83192443672E+02  0.10088040063E+03  0.41800000000E+01 0.  1.
        -11    1    1    2    0    0  0.33367879197E+02  0.13203491231E+02 -0.61921328643E+02  0.71568138747E+02  0.00000000000E+00 0. -1.
         11    1    1    2    0    0  0.49134305825E+02  0.73981038663E+02  0.74392524225E+01  0.89121919678E+02  0.00000000000E+00 0.  1.
</event>
<event>
 7    1  0.2384639E-009  0.1025754E+03  0.7561462E-02  0.1274972E+00
         -1   -1    0    0    0  501 -0.00000000000E+00  0.00000000000E+00  0.40038404859E+02  0.40038404859E+02  0.00000000000E+00 0.  1.
          1   -1    0    0  501    0  0.00000000000E+00 -0.00000000000E+00 -0.47500481218E+03  0.47500481218E+03  0.00000000000E+00 0. -1.
         25    2    1    2    0    0  0.72810201421E+02  0.42408400868E+02 -0.23624552313E+03  0.28028405453E+03  0.12508959242E+03 0.  0.
          5    1    3    3  502    0 -0.76946279859E+01 -0.12768248105E+02  0.78555998285E+01  0.17361402829E+02  0.41800000000E+01 0.  1.
         -5    1    3    3    0  502  0.80504829407E+02  0.55176648974E+02 -0.24410112296E+03  0.26292265171E+03  0.41800000000E+01 0.  1.
        -11    1    1    2    0    0 -0.43378133791E+02 -0.44914371469E+02 -0.41938304347E+02  0.75218246637E+02  0.00000000000E+00 0. -1.
         11    1    1    2    0    0 -0.29432067631E+02  0.25059706006E+01 -0.15678257984E+03  0.15954091587E+03  0.00000000000E+00 0.  1.
</event>
<event>
 7    1  0.2384639E-009  0.1344797E+03  0.7561462E-02  0.1220956E+00
         -3   -1    0    0    0  501 -0.00000000000E+00  0.00000000000E+00  0.28577671180E+03  0.28577671180E+03  0.00000000000E+00 0.  1.
          3   -1    0    0  501    0  0.00000000000E+00 -0.00000000000E+00 -0.10222270431E+03  0.10222270431E+03  0.00000000000E+00 0. -1.
         25    2    1    2    0    0 -0.73653215460E+02  0.96629130937E+02  0.15522293538E+03  0.23345724874E+03  0.12508454033E+03 0.  0.
          5    1    3    3  502    0 -0.71580716948E+02  0.59135449852E+02  0.16930255444E+03  0.19313629335E+03  0.41800000000E+01 0. -1.
         -5    1    3    3    0  502 -0.20724985118E+01  0.37493681085E+02 -0.14079619059E+02  0.40320955398E+02  0.41800000000E+01 0. -1.
        -11    1    1    2    0    0  0.51836913183E+02 -0.10316839716E+03  0.47427372783E+02  0.12482042874E+03  0.00000000000E+00 0.  1.
         11    1    1    2    0    0  0.21816302277E+02  0.65392662229E+01 -0.19096300677E+02  0.29721738632E+02  0.00000000000E+00 0. -1.
</event>
<event>
 7    1  0.4044479E-009  0.1501427E+03  0.7561462E-02  0.1200298E+00
          1   -1    0    0  501    0  0.00000000000E+00  0.00000000000E+00  0.16185588802E+04  0.16185588802E+04  0.00000000000E+00 0. -1.
         -1   -1    0    0    0  501 -0.00000000000E+00 -0.00000000000E+00 -0.27067446605E+02  0.27067446605E+02  0.00000000000E+00 0.  1.
         25    2    1    2    0    0 -0.89075016505E+02 -0.11759587018E+03  0.12265323776E+04  0.12416894682E+04  0.12509162565E+03 0.  0.
          5    1    3    3  502    0 -0.51131372875E+01 -0.44153789621E+01  0.57600889841E+03  0.57606367980E+03  0.41800000000E+01 0.  1.
         -5    1    3    3    0  502 -0.83961879217E+02 -0.11318049122E+03  0.65052347918E+03  0.66562578835E+03  0.41800000000E+01 0.  1.
        -11    1    1    2    0    0  0.33857817073E+02  0.72672000903E+02  0.92859625307E+02  0.12268040391E+03  0.00000000000E+00 0.  1.
         11    1    1    2    0    0  0.55217199432E+02  0.44923869275E+02  0.27209943071E+03  0.28125645475E+03  0.00000000000E+00 0. -1.
</event>
<event>
 7    1  0.2384639E-009  0.1005861E+03  0.7561462E-02  0.1279068E+00
          3   -1    0    0  501    0  0.00000000000E+00  0.00000000000E+00  0.69098371664E+02  0.69098371664E+02  0.00000000000E+00 0. -1.
         -3   -1    0    0    0  501 -0.00000000000E+00 -0.00000000000E+00 -0.22781541220E+03  0.22781541220E+03  0.00000000000E+00 0.  1.
         25    2    1    2    0    0  0.88349885590E+01  0.56704053621E+02 -0.55950732259E+02  0.14856724160E+03  0.12509330165E+03 0.  0.
          5    1    3    3  502    0 -0.49815646791E+02  0.96615298511E+01 -0.52576975636E+02  0.73189853062E+02  0.41800000000E+01 0.  1.
         -5    1    3    3    0  502  0.58650635350E+02  0.47042523770E+02 -0.33737566225E+01  0.75377388542E+02  0.41800000000E+01 0.  1.
        -11    1    1    2    0    0  0.15662866118E+02 -0.45301948094E+02 -0.65146619792E+01  0.48373884450E+02  0.00000000000E+00 0.  1.
         11    1    1    2    0    0 -0.24497854677E+02 -0.11402105528E+02 -0.96251646302E+02  0.99972657813E+02  0.00000000000E+00 0. -1.
</event>
<event>
 7    1  0.2384639E-009  0.1023057E+03  0.7561462E-02  0.1275521E+00
         -2   -1    0    0    0  501 -0.00000000000E+00  0.00000000000E+00  0.31285251283E+02  0.31285251283E+02  0.00000000000E+00 0.  1.
          2   -1    0    0  501    0  0.00000000000E+00 -0.00000000000E+00 -0.53691733903E+03  0.53691733903E+03  0.00000000000E+00 0. -1.
         25    2    1    2    0    0 -0.33233203082E+02 -0.64077557011E+02 -0.24206400427E+03  0.28187319913E+03  0.12508852515E+03 0.  0.
          5    1    3    3  502    0 -0.42068282142E+02 -0.13413200080E+02 -0.22219988836E+03  0.22658313505E+03  0.41800000000E+01 0.  1.
         -5    1    3    3    0  502  0.88350790594E+01 -0.50664356931E+02 -0.19864115901E+02  0.55290064079E+02  0.41800000000E+01 0.  1.
        -11    1    1    2    0    0  0.33422829595E+02 -0.97631650614E+01 -0.55200615107E+02  0.65264943410E+02  0.00000000000E+00 0.  1.
         11    1    1    2    0    0 -0.18962651283E+00  0.73840722073E+02 -0.20836746837E+03  0.22106444777E+03  0.00000000000E+00 0. -1.
</event>
<event>
 7    1  0.2384639E-009  0.1464901E+03  0.7561462E-02  0.1204853E+00
         -1   -1    0    0    0  501 -0.00000000000E+00  0.00000000000E+00  0.16975313850E+03  0.16975313850E+03  0.00000000000E+00 0.  1.
          1   -1    0    0  501    0  0.00000000000E+00 -0.00000000000E+00 -0.19992576529E+03  0.19992576529E+03  0.00000000000E+00 0. -1.
         25    2    1    2    0    0  0.90607350086E+02 -0.97994797454E+02 -0.82841985410E+02  0.20080600635E+03  0.12509030907E+03 0.  0.
          5    1    3    3  502    0  0.12003944997E+02 -0.69405888165E+02  0.14876921376E+02  0.72111491436E+02  0.41800000000E+01 0.  1.
         -5    1    3    3    0  502  0.78603405090E+02 -0.28588909290E+02 -0.97718906786E+02  0.12869451492E+03  0.41800000000E+01 0.  1.
        -11    1    1    2    0    0 -0.69191782752E+02  0.47785708472E+02  0.72266903314E+02  0.11087597598E+03  0.00000000000E+00 0.  1.
         11    1    1    2    0    0 -0.21415567334E+02  0.50209088982E+02 -0.19597544690E+02  0.57996921458E+02  0.00000000000E+00 0. -1.
</event>
<event>
 7    1  0.2384639E-009  0.1209803E+03  0.7561462E-02  0.1241489E+00
          1   -1    0    0  501    0  0.00000000000E+00  0.00000000000E+00  0.50939957540E+02  0.50939957540E+02  0.00000000000E+00 0. -1.
         -1   -1    0    0    0  501 -0.00000000000E+00 -0.00000000000E+00 -0.45069369642E+03  0.45069369642E+03  0.00000000000E+00 0.  1.
         25    2    1    2    0    0  0.66788851892E+02  0.56666962130E+02 -0.31440492953E+03  0.34952724907E+03  0.12508774041E+03 0.  0.
          5    1    3    3  502    0  0.71983075728E+02 -0.86321962473E+01 -0.89585559635E+02  0.11532182317E+03  0.41800000000E+01 0.  1.
         -5    1    3    3    0  502 -0.51942238363E+01  0.65299158377E+02 -0.22481936989E+03  0.23420542591E+03  0.41800000000E+01 0.  1.
        -11    1    1    2    0    0 -0.58848905853E+02 -0.14250793197E+02 -0.48165165944E+01  0.60741070611E+02  0.00000000000E+00 0. -1.
         11    1    1    2    0    0 -0.79399460387E+01 -0.42416168933E+02 -0.80532292757E+02  0.91365334272E+02  0.00000000000E+00 0.  1.
</event>
<event>
 7    1  0.2384639E-009  0.1622892E+03  0.7561462E-02  0.1186136E+00
          1   -1    0    0  501    0  0.00000000000E+00  0.00000000000E+00  0.11100414625E+04  0.11100414625E+04  0.00000000000E+00 0. -1.
         -1   -1    0    0    0  501 -0.00000000000E+00 -0.00000000000E+00 -0.81569069625E+02  0.81569069625E+02  0.00000000000E+00 0.  1.
         25    2    1    2    0    0  0.11713217417E+03  0.91923414865E+02  0.99588274431E+03  0.10146922387E+04  0.12509211979E+03 0.  0.
          5    1    3    3  502    0  0.58175277075E+02 -0.10882751957E+01  0.62678924508E+03  0.62949803602E+03  0.41800000000E+01 0. -1.
         -5    1    3    3    0  502  0.58956897094E+02  0.93011690061E+02  0.36909349923E+03  0.38519420268E+03  0.41800000000E+01 0. -1.
        -11    1    1    2    0    0 -0.96527982653E+02 -0.48611258698E+02 -0.15282406320E+02  0.10915245233E+03  0.00000000000E+00 0.  1.
         11    1    1    2    0    0 -0.20604191515E+02 -0.43312156168E+02  0.47872054876E+02  0.67765841085E+02  0.00000000000E+00 0. -1.
</event>
<event>
 7    1  0.2384639E-009  0.1637362E+03  0.7561462E-02  0.1184542E+00
         -2   -1    0    0    0  501 -0.00000000000E+00  0.00000000000E+00  0.71473780269E+02  0.71473780269E+02  0.00000000000E+00 0.  1.
          2   -1    0    0  501    0  0.00000000000E+00 -0.00000000000E+00 -0.41631313450E+03  0.41631313450E+03  0.00000000000E+00 0. -1.
         25    2    1    2    0    0 -0.53479226899E+02 -0.11653489579E+03 -0.12889397698E+03  0.22068558457E+03  0.12509220715E+03 0.  0.
          5    1    3    3  502    0 -0.46108998524E+02  0.77790158295E+01 -0.90662388164E+01  0.47814453028E+02  0.41800000000E+01 0.  1.
         -5    1    3    3    0  502 -0.73702283755E+01 -0.12431391162E+03 -0.11982773817E+03  0.17287113154E+03  0.41800000000E+01 0.  1.
        -11    1    1    2    0    0  0.76224232071E+02  0.67278500666E+02 -0.15645060850E+03  0.18658328732E+03  0.00000000000E+00 0.  1.
         11    1    1    2    0    0 -0.22745005171E+02  0.49256395119E+02 -0.59494768748E+02  0.80518042877E+02  0.00000000000E+00 0. -1.
</event>
<event>
 7    1  0.2450017E-009  0.1389931E+03  0.7561462E-02  0.1214690E+00
          1   -1    0    0  501    0  0.00000000000E+00  0.00000000000E+00  0.50914322461E+03  0.50914322461E+03  0.00000000000E+00 0. -1.
         -1   -1    0    0    0  501 -0.00000000000E+00 -0.00000000000E+00 -0.47073711163E+02  0.47073711163E+02  0.00000000000E+00 0.  1.
         25    2    1    2    0    0  0.66139904288E+02  0.88153151121E+02  0.23559555654E+03  0.28861518603E+03  0.12509194362E+03 0.  0.
          5    1    3    3  502    0  0.29536231909E+02 -0.29928566281E+02  0.48491338858E+02  0.64319440446E+02  0.41800000000E+01 0.  1.
         -5    1    3    3    0  502  0.36603672378E+02  0.11808171740E+03  0.18710421768E+03  0.22429574559E+03  0.41800000000E+01 0.  1.
        -11    1    1    2    0    0 -0.20026703781E+02 -0.13046664098E+02 -0.71998966075E+00  0.23912396231E+02  0.00000000000E+00 0.  1.
         11    1    1    2    0    0 -0.46113200507E+02 -0.75106487023E+02  0.22719394657E+03  0.24368935350E+03  0.00000000000E+00 0. -1.
</event>
<event>
 7    1  0.2384639E-009  0.1425152E+03  0.7561462E-02  0.1209984E+00
          2   -1    0    0  501    0  0.00000000000E+00  0.00000000000E+00  0.91058763941E+03  0.91058763941E+03  0.00000000000E+00 0.  1.
         -2   -1    0    0    0  501 -0.00000000000E+00 -0.00000000000E+00 -0.43447443102E+02  0.43447443102E+02  0.00000000000E+00 0. -1.
         25    2    1    2    0    0 -0.94623597962E+02 -0.86743906173E+02  0.70514027206E+03  0.72756380920E+03  0.12509261621E+03 0.  0.
          5    1    3    3  502    0 -0.15794253024E+02 -0.12389167591E+02  0.44829176933E+03  0.44876044027E+03  0.41800000000E+01 0. -1.
         -5    1    3    3    0  502 -0.78829344937E+02 -0.74354738582E+02  0.25684850273E+03  0.27880336893E+03  0.41800000000E+01 0. -1.
        -11    1    1    2    0    0  0.12840837359E+02  0.71807167478E+02  0.94527038629E+02  0.11940065928E+03  0.00000000000E+00 0.  1.
         11    1    1    2    0    0  0.81782760602E+02  0.14936738695E+02  0.67472885621E+02  0.10707061403E+03  0.00000000000E+00 0. -1.
</event>
<event>
 7    1  0.2384639E-009  0.1208619E+03  0.7561462E-02  0.1241682E+00
         -1   -1    0    0    0  501 -0.00000000000E+00  0.00000000000E+00  0.13971093296E+03  0.13971093296E+03  0.00000000000E+00 0.  1.
          1   -1    0    0  501    0  0.00000000000E+00 -0.00000000000E+00 -0.13352207103E+03  0.13352207103E+03  0.00000000000E+00 0. -1.
         25    2    1    2    0    0  0.27836786702E+02 -0.74707317891E+02  0.15157114674E+02  0.14910817508E+03  0.12508972663E+03 0.  0.
          5    1    3    3  502    0  0.47455535468E+02 -0.28181277060E+01  0.47891934850E+02  0.67609759014E+02  0.41800000000E+01 0. -1.
         -5    1    3    3    0  502 -0.19618748766E+02 -0.71889190185E+02 -0.32734820176E+02  0.81498416062E+02  0.41800000000E+01 0. -1.
        -11    1    1    2    0    0  0.32612601992E+02  0.24629256500E+02  0.12513118996E+02  0.42740615712E+02  0.00000000000E+00 0.  1.
         11    1    1    2    0    0 -0.60449388695E+02  0.50078061391E+02 -0.21481371741E+02  0.81384213200E+02  0.00000000000E+00 0. -1.
</event>
<event>
 7    1  0.2384639E-009  0.1718697E+03  0.7561462E-02  0.1175912E+00
         -4   -1    0    0    0  501 -0.00000000000E+00  0.00000000000E+00  0.58585571041E+03  0.58585571041E+03  0.00000000000E+00 0.  1.
          4   -1    0    0  501    0  0.00000000000E+00 -0.00000000000E+00 -0.55732948992E+02  0.55732948992E+02  0.00000000000E+00 0. -1.
         25    2    1    2    0    0 -0.77942297308E+02 -0.12088513408E+03  0.26368828036E+03  0.32537363850E+03  0.12509307767E+03 0.  0.
          5    1    3    3  502    0  0.17592462009E+02 -0.62225968242E+02  0.42884378918E+02  0.77705264933E+02  0.41800000000E+01 0. -1.
         -5    1    3    3    0  502 -0.95534759317E+02 -0.58659165839E+02  0.22080390144E+03  0.24766837357E+03  0.41800000000E+01 0. -1.
        -11    1    1    2    0    0  0.23678576165E+02  0.10855616205E+03  0.20606761978E+03  0.23411317607E+03  0.00000000000E+00 0.  1.
         11    1    1    2    0    0  0.54263721143E+02  0.12328972028E+02  0.60366861283E+02  0.82101844831E+02  0.00000000000E+00 0. -1.
</event>
<event>
 7    1  0.2384639E-009  0.7651543E+02  0.7561462E-02  0.1339241E+00
          3   -1    0    0  501    0  0.00000000000E+00  0.00000000000E+00  0.29651331044E+02  0.29651331044E+02  0.00000000000E+00 0. -1.
         -3   -1    0    0    0  501 -0.00000000000E+00 -0.00000000000E+00 -0.48024667566E+03  0.48024667566E+03  0.00000000000E+00 0.  1.
         25    2    1    2    0    0 -0.38842575274E+02  0.32455037642E+02 -0.23854326170E+03  0.27406689561E+03  0.12509076882E+03 0.  0.
          5    1    3    3  502    0 -0.36007843600E+02  0.29220802383E+02 -0.25361091259E+03  0.25784954427E+03  0.41800000000E+01 0. -1.
         -5    1    3    3    0  502 -0.28347316744E+01  0.32342352585E+01  0.15067650889E+02  0.16217351346E+02  0.41800000000E+01 0. -1.
        -11    1    1    2    0    0  0.65718625432E+02 -0.12253816886E+02 -0.16475755146E+03  0.17780366846E+03  0.00000000000E+00 0.  1.
         11    1    1    2    0    0 -0.26876050158E+02 -0.20201220756E+02 -0.47294531454E+02  0.58027442625E+02  0.00000000000E+00 0. -1.
</event>
<event>
 7    1  0.2384639E-009  0.1032603E+03  0.7561462E-02  0.1273586E+00
          1   -1    0    0  501    0  0.00000000000E+00  0.00000000000E+00  0.26601400703E+03  0.26601400703E+03  0.00000000000E+00 0. -1.
         -1   -1    0    0    0  501 -0.00000000000E+00 -0.00000000000E+00 -0.52371071597E+02  0.52371071597E+02  0.00000000000E+00 0.  1.
         25    2    1    2    0    0  0.15642764477E+01  0.41160779452E+02  0.87683568028E+02  0.15821835035E+03  0.12509189247E+03 0.  0.
          5    1    3    3  502    0  0.42029942936E+02 -0.98027597069E+01 -0.63133203584E+01  0.43817126960E+02  0.41800000000E+01 0. -1.
         -5    1    3    3    0  502 -0.40465666488E+02  0.50963539159E+02  0.93996888387E+02  0.11440122340E+03  0.41800000000E+01 0. -1.
        -11    1    1    2    0    0  0.77994417128E+01  0.27536159549E+02  0.27067132710E+02  0.39391636763E+02  0.00000000000E+00 0. -1.
         11    1    1    2    0    0 -0.93637181605E+01 -0.68696939001E+02  0.98892234691E+02  0.12077509151E+03  0.00000000000E+00 0.  1.
</event>
<event>
 7    1  0.2384639E-009  0.1612924E+03  0.7561462E-02  0.1187245E+00
         -1   -1    0    0    0  501 -0.00000000000E+00  0.00000000000E+00  0.99362137366E+02  0.99362137366E+02  0.00000000000E+00 0.  1.
          1   -1    0    0  501    0  0.00000000000E+00 -0.00000000000E+00 -0.26316432748E+03  0.26316432748E+03  0.00000000000E+00 0. -1.
         25    2    1    2    0    0  0.89418411844E+02 -0.78983572664E+02 -0.84920498761E+02  0.19259563386E+03  0.12509008732E+03 0.  0.
          5    1    3    3  502    0  0.11609180182E+03 -0.36543475709E+02 -0.68276323274E+02  0.13961325434E+03  0.41800000000E+01 0.  1.
         -5    1    3    3    0  502 -0.26673389979E+02 -0.42440096955E+02 -0.16644175487E+02  0.52982379525E+02  0.41800000000E+01 0.  1.
        -11    1    1    2    0    0 -0.10095214202E+03  0.37897750140E+02 -0.57291739343E+02  0.12210617446E+03  0.00000000000E+00 0. -1.
         11    1    1    2    0    0  0.11533730171E+02  0.41085822524E+02 -0.21589952011E+02  0.47824656528E+02  0.00000000000E+00 0.  1.
</event>
<event>
 7    1  0.2384639E-009  0.1474743E+03  0.7561462E-02  0.1203611E+00
         -1   -1    0    0    0  501 -0.00000000000E+00  0.00000000000E+00  0.46374331803E+02  0.46374331803E+02  0.00000000000E+00 0.  1.
          1   -1    0    0  501    0  0.00000000000E+00 -0.00000000000E+00 -0.52126194039E+03  0.52126194039E+03  0.00000000000E+00 0. -1.
         25    2    1    2    0    0  0.51199023875E+00  0.11134858190E+03 -0.26723998325E+03  0.31537863190E+03  0.12509078297E+03 0.  0.
          5    1    3    3  502    0  0.24588914586E+02 -0.13183923049E+02 -0.12663568952E+02  0.30923598207E+02  0.41800000000E+01 0.  1.
         -5    1    3    3    0  502 -0.24076924347E+02  0.12453250495E+03 -0.25457641430E+03  0.28445503369E+03  0.41800000000E+01 0.  1.
        -11    1    1    2    0    0 -0.19644022895E+02  0.63044817320E+01 -0.53914769736E+02  0.57727259775E+02  0.00000000000E+00 0. -1.
         11    1    1    2    0    0  0.19132032656E+02 -0.11765306363E+03 -0.15373285560E+03  0.19453038052E+03  0.00000000000E+00 0.  1.
</event>
<event>
 7    1  0.2384639E-009  0.1175315E+03  0.7561462E-02  0.1247226E+00
         -2   -1    0    0    0  501 -0.00000000000E+00  0.00000000000E+00  0.69455230894E+02  0.69455230894E+02  0.00000000000E+00 0. -1.
          2   -1    0    0  501    0  0.00000000000E+00 -0.00000000000E+00 -0.33019704853E+03  0.33019704853E+03  0.00000000000E+00 0.  1.
         25    2    1    2    0    0  0.91079775244E+02  0.41919501391E+02 -0.97195485742E+02  0.18747293348E+03  0.12508544394E+03 0.  0.
          5    1    3    3  502    0  0.16235533457E+02  0.98303788808E+00  0.29930233630E+02  0.34319822191E+02  0.41800000000E+01 0. -1.
         -5    1    3    3    0  502  0.74844241787E+02  0.40936463503E+02 -0.12712571937E+03  0.15315311129E+03  0.41800000000E+01 0. -1.
        -11    1    1    2    0    0  0.39462048531E+01  0.19379372858E+02 -0.12143713445E+02  0.23207809059E+02  0.00000000000E+00 0. -1.
         11    1    1    2    0    0 -0.95025980097E+02 -0.61298874248E+02 -0.15140261844E+03  0.18897153688E+03  0.00000000000E+00 0.  1.
</event>
<event>
 7    1  0.2384639E-009  0.1054252E+03  0.7561462E-02  0.1269284E+00
          1   -1    0    0  501    0  0.00000000000E+00  0.00000000000E+00  0.16404155430E+03  0.16404155430E+03  0.00000000000E+00 0. -1.
         -1   -1    0    0    0  501 -0.00000000000E+00 -0.00000000000E+00 -0.97368628544E+02  0.97368628544E+02  0.00000000000E+00 0.  1.
         25    2    1    2    0    0  0.49699083072E+02 -0.40356486297E+02  0.32904811942E+02  0.14432141476E+03  0.12508916526E+03 0.  0.
          5    1    3    3  502    0  0.13566343862E+02 -0.79936589346E+02 -0.20489951446E+00  0.81187550683E+02  0.41800000000E+01 0.  1.
         -5    1    3    3    0  502  0.36132739210E+02  0.39580103050E+02  0.33109711457E+02  0.63133864075E+02  0.41800000000E+01 0.  1.
        -11    1    1    2    0    0 -0.41410318372E+01  0.28544743858E+02  0.57537755431E+02  0.64362596643E+02  0.00000000000E+00 0. -1.
         11    1    1    2    0    0 -0.45558051235E+02  0.11811742439E+02 -0.23769641621E+02  0.52726171439E+02  0.00000000000E+00 0.  1.
</event>
<event>
 7    1  0.2384639E-009  0.2038357E+03  0.7561462E-02  0.1146543E+00
          2   -1    0    0  501    0  0.00000000000E+00  0.00000000000E+00  0.21915154544E+03  0.21915154544E+03  0.00000000000E+00 0. -1.
         -2   -1    0    0    0  501 -0.00000000000E+00 -0.00000000000E+00 -0.30694519036E+03  0.30694519036E+03  0.00000000000E+00 0.  1.
         25    2    1    2    0    0 -0.24215165263E+02 -0.17978971499E+03 -0.19629481790E+03  0.29511574356E+03  0.12510367989E+03 0.  0.
          5    1    3    3  502    0  0.31034845796E+02 -0.23501476486E+02 -0.90012159467E+02  0.98158760702E+02  0.41800000000E+01 0. -1.
         -5    1    3    3    0  502 -0.55250011059E+02 -0.15628823850E+03 -0.10628265843E+03  0.19695698286E+03  0.41800000000E+01 0. -1.
        -11    1    1    2    0    0 -0.34564210027E+02  0.74068340173E+02  0.31538187207E+02  0.87609707699E+02  0.00000000000E+00 0.  1.
         11    1    1    2    0    0  0.58779375290E+02  0.10572137481E+03  0.76962985770E+02  0.14337128454E+03  0.00000000000E+00 0. -1.
</event>
<event>
 7    1  0.2384639E-009  0.6574930E+02  0.7561462E-02  0.1375175E+00
          1   -1    0    0  501    0  0.00000000000E+00  0.00000000000E+00  0.23023044276E+03  0.23023044276E+03  0.00000000000E+00 0. -1.
         -1   -1    0    0    0  501 -0.00000000000E+00 -0.00000000000E+00 -0.61060185942E+02  0.61060185942E+02  0.00000000000E+00 0.  1.
         25    2    1    2    0    0 -0.11697229499E+02  0.18189209281E+02  0.41091606613E+02  0.13342946553E+03  0.12508888690E+03 0.  0.
          5    1    3    3  502    0  0.21020903826E+02 -0.23360120671E+02  0.67200219018E+02  0.74302863144E+02  0.41800000000E+01 0.  1.
         -5    1    3    3    0  502 -0.32718133326E+02  0.41549329952E+02 -0.26108612405E+02  0.59126602384E+02  0.41800000000E+01 0.  1.
        -11    1    1    2    0    0  0.20929151840E+02 -0.26880071008E+02  0.13775917893E+03  0.14190898137E+03  0.00000000000E+00 0. -1.
         11    1    1    2    0    0 -0.92319223407E+01  0.86908617270E+01 -0.96805287294E+01  0.15952181799E+02  0.00000000000E+00 0.  1.
</event>
<event>
 7    1  0.2384639E-009  0.9335918E+02  0.7561462E-02  0.1294915E+00
          2   -1    0    0  501    0  0.00000000000E+00  0.00000000000E+00  0.40233147067E+03  0.40233147067E+03  0.00000000000E+00 0.  1.
         -2   -1    0    0    0  501 -0.00000000000E+00 -0.00000000000E+00 -0.36049127781E+02  0.36049127781E+02  0.00000000000E+00 0. -1.
         25    2    1    2    0    0  0.40534553442E+02 -0.32805175933E+02  0.18694411821E+03  0.23090518238E+03  0.12509944174E+03 0.  0.
          5    1    3    3  502    0  0.66718962262E+02  0.17074868288E+02  0.58021532996E+02  0.90149552098E+02  0.41800000000E+01 0. -1.
         -5    1    3    3    0  502 -0.26184408820E+02 -0.49880044221E+02  0.12892258522E+03  0.14075563028E+03  0.41800000000E+01 0. -1.
        -11    1    1    2    0    0 -0.26173058031E+02  0.37843673482E+02  0.18545108575E+03  0.19107401130E+03  0.00000000000E+00 0.  1.
         11    1    1    2    0    0 -0.14361495411E+02 -0.50384975485E+01 -0.61128610723E+01  0.16401404772E+02  0.00000000000E+00 0. -1.
</event>
<event>
 7    1  0.2384639E-009  0.5939492E+02  0.7561462E-02  0.1400389E+00
         -4   -1    0    0    0  501 -0.00000000000E+00  0.00000000000E+00  0.88192748167E+02  0.88192748167E+02  0.00000000000E+00 0.  1.
          4   -1    0    0  501    0  0.00000000000E+00 -0.00000000000E+00 -0.12607628969E+03  0.12607628969E+03  0.00000000000E+00 0. -1.
         25    2    1    2    0    0 -0.10730094859E+02  0.41161318919E+01 -0.29947872060E+02  0.12913604684E+03  0.12508863288E+03 0.  0.
          5    1    3    3  502    0  0.23320486503E+02 -0.98143717276E+01 -0.70024840414E+02  0.74572901634E+02  0.41800000000E+01 0.  1.
         -5    1    3    3    0  502 -0.34050581363E+02  0.13930503619E+02  0.40076968354E+02  0.54563145205E+02  0.41800000000E+01 0.  1.
        -11    1    1    2    0    0 -0.14983335922E+02  0.17133692684E+02  0.28011376533E+02  0.36092949390E+02  0.00000000000E+00 0.  1.
         11    1    1    2    0    0  0.25713430782E+02 -0.21249824576E+02 -0.35947045996E+02  0.49040041628E+02  0.00000000000E+00 0. -1.
</event>
<event>
 7    1  0.2384639E-009  0.1050080E+03  0.7561462E-02  0.1270104E+00
          1   -1    0    0  501    0  0.00000000000E+00  0.00000000000E+00  0.70710440835E+02  0.70710440835E+02  0.00000000000E+00 0. -1.
         -1   -1    0    0    0  501 -0.00000000000E+00 -0.00000000000E+00 -0.23332932762E+03  0.23332932762E+03  0.00000000000E+00 0.  1.
         25    2    1    2    0    0  0.93332041513E+01 -0.37152235681E+02 -0.15990774530E+03  0.20660205527E+03  0.12508607005E+03 0.  0.
          5    1    3    3  502    0 -0.72880209753E+01 -0.74437929039E+02 -0.52096022838E+02  0.91244662994E+02  0.41800000000E+01 0. -1.
         -5    1    3    3    0  502  0.16621225127E+02  0.37285693357E+02 -0.10781172246E+03  0.11535739228E+03  0.41800000000E+01 0. -1.
        -11    1    1    2    0    0  0.42549803697E+01  0.63914019225E+02 -0.13647935623E+02  0.65493303919E+02  0.00000000000E+00 0.  1.
         11    1    1    2    0    0 -0.13588184521E+02 -0.26761783544E+02  0.10936794137E+02  0.31944409261E+02  0.00000000000E+00 0. -1.
</event>
<event>
 7    1  0.2384639E-009  0.1119302E+03  0.7561462E-02  0.1257037E+00
          1   -1    0    0  501    0  0.00000000000E+00  0.00000000000E+00  0.41935591946E+02  0.41935591946E+02  0.00000000000E+00 0. -1.
         -1   -1    0    0    0  501 -0.00000000000E+00 -0.00000000000E+00 -0.35000286088E+03  0.35000286088E+03  0.00000000000E+00 0.  1.
         25    2    1    2    0    0 -0.34223940786E+02 -0.30146393965E+02 -0.21156546273E+03  0.24997474540E+03  0.12508934857E+03 0.  0.
          5    1    3    3  502    0  0.41973340276E+02 -0.93523207692E+01 -0.12717155505E+03  0.13431047618E+03  0.41800000000E+01 0.  1.
         -5    1    3    3    0  502 -0.76197281062E+02 -0.20794073196E+02 -0.84393907680E+02  0.11566426922E+03  0.41800000000E+01 0.  1.
        -11    1    1    2    0    0  0.41889002671E+02 -0.23052038291E+02 -0.29951134814E+02  0.56419460214E+02  0.00000000000E+00 0.  1.
         11    1    1    2    0    0 -0.76650618853E+01  0.53198432256E+02 -0.66550671390E+02  0.85544247210E+02  0.00000000000E+00 0. -1.
</event>
<event>
 7    1  0.2384639E-009  0.8123903E+02  0.7561462E-02  0.1325572E+00
          4   -1    0    0  501    0  0.00000000000E+00  0.00000000000E+00  0.43394640892E+02  0.43394640892E+02  0.00000000000E+00 0. -1.
         -4   -1    0    0    0  501 -0.00000000000E+00 -0.00000000000E+00 -0.35121646776E+03  0.35121646776E+03  0.00000000000E+00 0.  1.
         25    2    1    2    0    0 -0.62426422939E+00  0.81770988043E+01 -0.26630365955E+03  0.29433364588E+03  0.12508957332E+03 0.  0.
          5    1    3    3  502    0 -0.40614572070E+02  0.19793046949E+02 -0.24141076504E+03  0.24563781885E+03  0.41800000000E+01 0. -1.
         -5    1    3    3    0  502  0.39990307841E+02 -0.11615948144E+02 -0.24892894511E+02  0.48695827025E+02  0.41800000000E+01 0. -1.
        -11    1    1    2    0    0  0.39783832265E+01  0.33351528763E+02 -0.47511228309E+02  0.58184781682E+02  0.00000000000E+00 0.  1.
         11    1    1    2    0    0 -0.33541189971E+01 -0.41528627567E+02  0.59930609915E+01  0.42092681097E+02  0.00000000000E+00 0. -1.
</event>
<event>
 7    1  0.2384639E-009  0.8767034E+02  0.7561462E-02  0.1308593E+00
          2   -1    0    0  501    0  0.00000000000E+00  0.00000000000E+00  0.14112752586E+03  0.14112752586E+03  0.00000000000E+00 0. -1.
         -2   -1    0    0    0  501 -0.00000000000E+00 -0.00000000000E+00 -0.10072447104E+03  0.10072447104E+03  0.00000000000E+00 0.  1.
         25    2    1    2    0    0  0.39237512109E+02 -0.16265049358E+02 -0.24750940280E+01  0.13212853062E+03  0.12509072039E+03 0.  0.
          5    1    3    3  502    0 -0.11245088782E+02 -0.53127017956E+02  0.29340282119E+02  0.61864825333E+02  0.41800000000E+01 0. -1.
         -5    1    3    3    0  502  0.50482600891E+02  0.36861968599E+02 -0.31815376147E+02  0.70263705290E+02  0.41800000000E+01 0. -1.
        -11    1    1    2    0    0 -0.26974882651E+02 -0.10374875682E+02  0.66213075257E+02  0.72245786551E+02  0.00000000000E+00 0. -1.
         11    1    1    2    0    0 -0.12262629458E+02  0.26639925040E+02 -0.23334926408E+02  0.37477679729E+02  0.00000000000E+00 0.  1.
</event>
<event>
 7    1  0.2384639E-009  0.8857484E+02  0.7561462E-02  0.1306340E+00
          2   -1    0    0  501    0  0.00000000000E+00  0.00000000000E+00  0.33494055054E+03  0.33494055054E+03  0.00000000000E+00 0. -1.
         -2   -1    0    0    0  501 -0.00000000000E+00 -0.00000000000E+00 -0.63351477663E+02  0.63351477663E+02  0.00000000000E+00 0.  1.
         25    2    1    2    0    0  0.41750528615E+01 -0.38774532248E+02  0.24867367001E+02  0.13336850974E+03  0.12509147866E+03 0.  0.
          5    1    3    3  502    0 -0.35279201800E+02 -0.85739278162E+01 -0.38269774500E+02  0.52916749316E+02  0.41800000000E+01 0. -1.
         -5    1    3    3    0  502  0.39454254662E+02 -0.30200604432E+02  0.63137141501E+02  0.80451760428E+02  0.41800000000E+01 0. -1.
        -11    1    1    2    0    0 -0.26160241003E+02 -0.16722890435E+02  0.13198061344E+03  0.13558353734E+03  0.00000000000E+00 0. -1.
         11    1    1    2    0    0  0.21985188142E+02  0.55497422684E+02  0.11474109243E+03  0.12933998111E+03  0.00000000000E+00 0.  1.
</event>
<event>
 7    1  0.2384639E-009  0.1361863E+03  0.7561462E-02  0.1218555E+00
         -1   -1    0    0    0  501 -0.00000000000E+00  0.00000000000E+00  0.26466391028E+03  0.26466391028E+03  0.00000000000E+00 0.  1.
          1   -1    0    0  501    0  0.00000000000E+00 -0.00000000000E+00 -0.17742118628E+03  0.17742118628E+03  0.00000000000E+00 0. -1.
         25    2    1    2    0    0 -0.68584025125E+01 -0.10781219058E+03  0.20061240177E+03  0.25992977343E+03  0.12509054820E+03 0.  0.
          5    1    3    3  502    0 -0.64301940650E+02 -0.46531013144E+02  0.78940082313E+02  0.11202180034E+03  0.41800000000E+01 0.  1.
         -5    1    3    3    0  502  0.57443538138E+02 -0.61281177432E+02  0.12167231946E+03  0.14790797309E+03  0.41800000000E+01 0.  1.
        -11    1    1    2    0    0  0.89488449882E+01  0.41816512712E+02 -0.10770516516E+03  0.11588401600E+03  0.00000000000E+00 0. -1.
         11    1    1    2    0    0 -0.20904424756E+01  0.65995677865E+02 -0.56645126146E+01  0.66271307138E+02  0.00000000000E+00 0.  1.
</event>
<event>
 7    1  0.2384639E-009  0.1483713E+03  0.7561462E-02  0.1202489E+00
         -1   -1    0    0    0  501 -0.00000000000E+00  0.00000000000E+00  0.84824561380E+02  0.84824561380E+02  0.00000000000E+00 0.  1.
          1   -1    0    0  501    0  0.00000000000E+00 -0.00000000000E+00 -0.27386900444E+03  0.27386900444E+03  0.00000000000E+00 0. -1.
         25    2    1    2    0    0  0.83764916716E+02 -0.64588998973E+02 -0.12043819983E+03  0.20333179293E+03  0.12510059144E+03 0.  0.
          5    1    3    3  502    0  0.45563485618E+02 -0.96919866325E+02 -0.53896814545E+02  0.11996595654E+03  0.41800000000E+01 0.  1.
         -5    1    3    3    0  502  0.38201431099E+02  0.32330867352E+02 -0.66541385290E+02  0.83365836396E+02  0.41800000000E+01 0.  1.
        -11    1    1    2    0    0 -0.84506561805E+02  0.10392514553E+02 -0.43911655904E+02  0.95799774901E+02  0.00000000000E+00 0.  1.
         11    1    1    2    0    0  0.74164508841E+00  0.54196484420E+02 -0.24694587322E+02  0.59561997985E+02  0.00000000000E+00 0. -1.
</event>
<event>
 7    1  0.2384639E-009  0.1129609E+03  0.7561462E-02  0.1255183E+00
         -1   -1    0    0    0  501 -0.00000000000E+00  0.00000000000E+00  0.44652335033E+02  0.44652335033E+02  0.00000000000E+00 0.  1.
          1   -1    0    0  501    0  0.00000000000E+00 -0.00000000000E+00 -0.37411584200E+03  0.37411584200E+03  0.00000000000E+00 0. -1.
         25    2    1    2    0    0  0.15472989468E+02 -0.36520203781E+02 -0.87751103381E+02  0.15786351447E+03  0.12508994511E+03 0.  0.
          5    1    3    3  502    0  0.29646722159E+02  0.39924879789E+02 -0.52375739483E+02  0.72343725695E+02  0.41800000000E+01 0.  1.
         -5    1    3    3    0  502 -0.14173732691E+02 -0.76445083570E+02 -0.35375363898E+02  0.85519788771E+02  0.41800000000E+01 0.  1.
        -11    1    1    2    0    0 -0.22781258379E+02  0.64936478511E+02 -0.17351422787E+03  0.18666258128E+03  0.00000000000E+00 0. -1.
         11    1    1    2    0    0  0.73082689107E+01 -0.28416274729E+02 -0.68198175716E+02  0.74242081294E+02  0.00000000000E+00 0.  1.
</event>
<event>
 7    1  0.2384639E-009  0.1222109E+03  0.7561462E-02  0.1239494E+00
         -2   -1    0    0    0  501 -0.00000000000E+00  0.00000000000E+00  0.39680301843E+02  0.39680301843E+02  0.00000000000E+00 0.  1.
          2   -1    0    0  501    0  0.00000000000E+00 -0.00000000000E+00 -0.46695822225E+03  0.46695822225E+03  0.00000000000E+00 0. -1.
         25    2    1    2    0    0 -0.69670486104E+02 -0.42910325182E+02 -0.24649743017E+03  0.28827617532E+03  0.12508755948E+03 0.  0.
          5    1    3    3  502    0  0.24295326461E+02  0.20639844820E+02 -0.84980685494E+02  0.90859536588E+02  0.41800000000E+01 0.  1.
         -5    1    3    3    0  502 -0.93965812565E+02 -0.63550170002E+02 -0.16151674468E+03  0.19741663874E+03  0.41800000000E+01 0.  1.
        -11    1    1    2    0    0  0.24020305162E+02 -0.12405660232E+02 -0.36715896925E+01  0.27282889083E+02  0.00000000000E+00 0.  1.
         11    1    1    2    0    0  0.45650180943E+02  0.55315985414E+02 -0.17710890054E+03  0.19107945969E+03  0.00000000000E+00 0. -1.
</event>
<event>
 7    1  0.2384639E-009  0.1250443E+03  0.7561462E-02  0.1235000E+00
          1   -1    0    0  501    0  0.00000000000E+00  0.00000000000E+00  0.25744243026E+03  0.25744243026E+03  0.00000000000E+00 0. -1.
         -1   -1    0    0    0  501 -0.00000000000E+00 -0.00000000000E+00 -0.61849573076E+02  0.61849573076E+02  0.00000000000E+00 0.  1.
         25    2    1    2    0    0 -0.15589975859E+02  0.59541595862E+02  0.89148287754E+02  0.16547445571E+03  0.12508448864E+03 0.  0.
          5    1    3    3  502    0  0.14271588907E+02 -0.36123859962E+02  0.26716785879E+02  0.47327270745E+02  0.41800000000E+01 0. -1.
         -5    1    3    3    0  502 -0.29861564766E+02  0.95665455824E+02  0.62431501876E+02  0.11814718496E+03  0.41800000000E+01 0. -1.
        -11    1    1    2    0    0  0.46602326516E+02 -0.64228406963E+02  0.70902972046E+02  0.10641567809E+03  0.00000000000E+00 0. -1.
         11    1    1    2    0    0 -0.31012350657E+02  0.46868111006E+01  0.35541597385E+02  0.47401869544E+02  0.00000000000E+00 0.  1.
</event>
<event>
 7    1  0.2384639E-009  0.1789188E+03  0.7561462E-02  0.1168854E+00
          2   -1    0    0  501    0  0.00000000000E+00  0.00000000000E+00  0.36219546355E+03  0.36219546355E+03  0.00000000000E+00 0. -1.
         -2   -1    0    0    0  501 -0.00000000000E+00 -0.00000000000E+00 -0.94552865948E+02  0.94552865948E+02  0.00000000000E+00 0.  1.
         25    2    1    2    0    0 -0.92607302348E+01 -0.14924994599E+03  0.14199482317E+03  0.24118377969E+03  0.12508308549E+03 0.  0.
          5    1    3    3  502    0 -0.51948681061E+02 -0.38167741322E+02  0.91121019504E+02  0.11169581253E+03  0.41800000000E+01 0.  1.
         -5    1    3    3    0  502  0.42687950827E+02 -0.11108220467E+03  0.50873803671E+02  0.12948796716E+03  0.41800000000E+01 0.  1.
        -11    1    1    2    0    0  0.49354771818E+02  0.89546844391E+02  0.62341268970E+02  0.11975376678E+03  0.00000000000E+00 0.  1.
         11    1    1    2    0    0 -0.40094041583E+02  0.59703101596E+02  0.63306505455E+02  0.95810783024E+02  0.00000000000E+00 0. -1.
</event>
<event>
 7    1  0.2384639E-009  0.7789978E+02  0.7561462E-02  0.1335119E+00
          1   -1    0    0  501    0  0.00000000000E+00  0.00000000000E+00  0.52931155948E+03  0.52931155948E+03  0.00000000000E+00 0. -1.
         -1   -1    0    0    0  501 -0.00000000000E+00 -0.00000000000E+00 -0.31061808308E+02  0.31061808308E+02  0.00000000000E+00 0.  1.
         25    2    1    2    0    0  0.54726807440E+01  0.46176674006E+02  0.38799754496E+03  0.41030546285E+03  0.12508494109E+03 0.  0.
          5    1    3    3  502    0  0.11986633903E+02 -0.11593681888E+02  0.32117305648E+03  0.32163286129E+03  0.41800000000E+01 0. -1.
         -5    1    3    3    0  502 -0.65139531589E+01  0.57770355894E+02  0.66824488483E+02  0.88672601557E+02  0.41800000000E+01 0. -1.
        -11    1    1    2    0    0 -0.35443577786E+02 -0.21144434645E+02  0.99808833588E+01  0.42461186457E+02  0.00000000000E+00 0.  1.
         11    1    1    2    0    0  0.29970897042E+02 -0.25032239361E+02  0.10027132285E+03  0.10760671848E+03  0.00000000000E+00 0. -1.
</event>
<event>
 7    1  0.2384639E-009  0.8816223E+02  0.7561462E-02  0.1307364E+00
         -1   -1    0    0    0  501 -0.00000000000E+00  0.00000000000E+00  0.38266791023E+02  0.38266791023E+02  0.00000000000E+00 0.  1.
          1   -1    0    0  501    0  0.00000000000E+00 -0.00000000000E+00 -0.49963286166E+03  0.49963286166E+03  0.00000000000E+00 0. -1.
         25    2    1    2    0    0 -0.17622957213E+02  0.19726501369E+02 -0.41238865791E+03  0.43175400617E+03  0.12508962064E+03 0.  0.
          5    1    3    3  502    0 -0.23822059528E+02  0.52670789002E+02 -0.86518813642E+02  0.10413779356E+03  0.41800000000E+01 0. -1.
         -5    1    3    3    0  502  0.61991023153E+01 -0.32944287633E+02 -0.32586984427E+03  0.32761621261E+03  0.41800000000E+01 0. -1.
        -11    1    1    2    0    0 -0.56145211326E+01 -0.47806958157E+02 -0.50368324322E+02  0.69670626456E+02  0.00000000000E+00 0. -1.
         11    1    1    2    0    0  0.23237478346E+02  0.28080456788E+02  0.13909115957E+01  0.36475020059E+02  0.00000000000E+00 0.  1.
</event>
<event>
 7    1  0.2384639E-009  0.1057423E+03  0.7561462E-02  0.1268664E+00
          1   -1    0    0  501    0  0.00000000000E+00  0.00000000000E+00  0.38478311999E+02  0.38478311999E+02  0.00000000000E+00 0. -1.
         -1   -1    0    0    0  501 -0.00000000000E+00 -0.00000000000E+00 -0.35181836936E+03  0.35181836936E+03  0.00000000000E+00 0.  1.
         25    2    1    2    0    0 -0.31626857356E+02  0.17530196806E+02 -0.22066876787E+03  0.25622242736E+03  0.12509061222E+03 0.  0.
          5    1    3    3  502    0 -0.71278309769E+02 -0.21023791739E+02 -0.11751836002E+03  0.13910655846E+03  0.41800000000E+01 0. -1.
         -5    1    3    3    0  502  0.39651452413E+02  0.38553988545E+02 -0.10315040785E+03  0.11711586891E+03  0.41800000000E+01 0. -1.
        -11    1    1    2    0    0  0.54547878550E+02 -0.33786865121E+01 -0.22850241701E+02  0.59236982728E+02  0.00000000000E+00 0.  1.
         11    1    1    2    0    0 -0.22921021194E+02 -0.14151510294E+02 -0.69821047788E+02  0.74837271265E+02  0.00000000000E+00 0. -1.
</event>
<event>
 7    1  0.2384639E-009  0.7171091E+02  0.7561462E-02  0.1354370E+00
          1   -1    0    0  501    0  0.00000000000E+00  0.00000000000E+00  0.36776297114E+03  0.36776297114E+03  0.00000000000E+00 0. -1.
         -1   -1    0    0    0  501 -0.00000000000E+00 -0.00000000000E+00 -0.44071000555E+02  0.44071000555E+02  0.00000000000E+00 0.  1.
         25    2    1    2    0    0 -0.60560506676E+01 -0.59851667799E+02  0.22195716231E+03  0.26178510344E+03  0.12509020983E+03 0.  0.
          5    1    3    3  502    0  0.25267089389E+02 -0.32946242710E+02  0.21583599976E+03  0.21983296365E+03  0.41800000000E+01 0. -1.
         -5    1    3    3    0  502 -0.31323140057E+02 -0.26905425089E+02  0.61211625512E+01  0.41952139793E+02  0.41800000000E+01 0. -1.
        -11    1    1    2    0    0  0.36473517756E+01  0.26388722123E+02 -0.13616411953E+02  0.29917795786E+02  0.00000000000E+00 0.  1.
         11    1    1    2    0    0  0.24086988920E+01  0.33462945677E+02  0.11535122023E+03  0.12013107246E+03  0.00000000000E+00 0. -1.
</event>
<event>
 7    1  0.2384639E-009  0.1120612E+03  0.7561462E-02  0.1256800E+00
         -1   -1    0    0    0  501 -0.00000000000E+00  0.00000000000E+00  0.39057273032E+03  0.39057273032E+03  0.00000000000E+00 0.  1.
          1   -1    0    0  501    0  0.00000000000E+00 -0.00000000000E+00 -0.35488163354E+02  0.35488163354E+02  0.00000000000E+00 0. -1.
         25    2    1    2    0    0 -0.36633907672E+02  0.15017971470E+02  0.24773774919E+03  0.28033719153E+03  0.12508943170E+03 0.  0.
          5    1    3    3  502    0 -0.60091431343E+02  0.55076266241E+02  0.18478359008E+03  0.20200698698E+03  0.41800000000E+01 0.  1.
         -5    1    3    3    0  502  0.23457523671E+02 -0.40058294771E+02  0.62954159111E+02  0.78330204558E+02  0.41800000000E+01 0.  1.
        -11    1    1    2    0    0  0.59718702891E+02 -0.31510748196E+02  0.89841903020E+02  0.11238691323E+03  0.00000000000E+00 0.  1.
         11    1    1    2    0    0 -0.23084795219E+02  0.16492776726E+02  0.17504914758E+02  0.33336788915E+02  0.00000000000E+00 0. -1.
</event>
<event>
 7    1  0.2384639E-009  0.1624726E+03  0.7561462E-02  0.1185933E+00
          1   -1    0    0  501    0  0.00000000000E+00  0.00000000000E+00  0.22656328502E+03  0.22656328502E+03  0.00000000000E+00 0. -1.
         -1   -1    0    0    0  501 -0.00000000000E+00 -0.00000000000E+00 -0.14957890521E+03  0.14957890521E+03  0.00000000000E+00 0.  1.
         25    2    1    2    0    0 -0.22513938378E+02  0.14662612589E+03  0.35799868992E+02  0.19731914420E+03  0.12508843206E+03 0.  0.
          5    1    3    3  502    0 -0.22834733250E+02  0.15598296597E+03 -0.24489345949E+01  0.15771994293E+03  0.41800000000E+01 0.  1.
         -5    1    3    3    0  502  0.32079487199E+00 -0.93568400880E+01  0.38248803587E+02  0.39599201275E+02  0.41800000000E+01 0.  1.
        -11    1    1    2    0    0  0.30269465259E+02 -0.40396635537E+02  0.51127049898E+02  0.71847782993E+02  0.00000000000E+00 0. -1.
         11    1    1    2    0    0 -0.77555268817E+01 -0.10622949035E+03 -0.99425390825E+01  0.10697526303E+03  0.00000000000E+00 0.  1.
</event>
<event>
 7    1  0.2384639E-009  0.8058817E+02  0.7561462E-02  0.1327391E+00
         -1   -1    0    0    0  501 -0.00000000000E+00  0.00000000000E+00  0.29438763035E+03  0.29438763035E+03  0.00000000000E+00 0.  1.
          1   -1    0    0  501    0  0.00000000000E+00 -0.00000000000E+00 -0.52780477128E+02  0.52780477128E+02  0.00000000000E+00 0. -1.
         25    2    1    2    0    0  0.53847933406E+02  0.13792917443E+02  0.17442033742E+03  0.22171950020E+03  0.12508892101E+03 0.  0.
          5    1    3    3  502    0  0.36042342139E+02  0.43239817527E+02  0.17812758044E+03  0.18685727055E+03  0.41800000000E+01 0. -1.
         -5    1    3    3    0  502  0.17805591266E+02 -0.29446900084E+02 -0.37072430168E+01  0.34862229643E+02  0.41800000000E+01 0. -1.
        -11    1    1    2    0    0 -0.38385850546E+02 -0.29205854191E+02  0.84693003215E+02  0.97464661467E+02  0.00000000000E+00 0.  1.
         11    1    1    2    0    0 -0.15462082860E+02  0.15412936748E+02 -0.17506187414E+02  0.27983945814E+02  0.00000000000E+00 0. -1.
</event>
<event>
 7    1  0.2384639E-009  0.1242092E+03  0.7561462E-02  0.1236310E+00
          2   -1    0    0  501    0  0.00000000000E+00  0.00000000000E+00  0.10771589089E+04  0.10771589089E+04  0.00000000000E+00 0. -1.
         -2   -1    0    0    0  501 -0.00000000000E+00 -0.00000000000E+00 -0.18796941197E+02  0.18796941197E+02  0.00000000000E+00 0.  1.
         25    2    1    2    0    0  0.73803446707E+02  0.12042153742E+02  0.78240863652E+03  0.79586666651E+03  0.12509402124E+03 0.  0.
          5    1    3    3  502    0 -0.29541635444E+02 -0.18677482541E+02  0.26503877189E+03  0.26736600305E+03  0.41800000000E+01 0.  1.
         -5    1    3    3    0  502  0.10334508215E+03  0.30719636283E+02  0.51736986463E+03  0.52850066347E+03  0.41800000000E+01 0.  1.
        -11    1    1    2    0    0 -0.52885130581E+02 -0.42863127209E+02  0.23530818786E+03  0.24495719623E+03  0.00000000000E+00 0. -1.
         11    1    1    2    0    0 -0.20918316126E+02  0.30820973468E+02  0.40645143354E+02  0.55131987387E+02  0.00000000000E+00 0.  1.
</event>
<event>
 7    1  0.2384639E-009  0.1018323E+03  0.7561462E-02  0.1276489E+00
         -1   -1    0    0    0  501 -0.00000000000E+00  0.00000000000E+00  0.35341805700E+02  0.35341805700E+02  0.00000000000E+00 0.  1.
          1   -1    0    0  501    0  0.00000000000E+00 -0.00000000000E+00 -0.39656326282E+03  0.39656326282E+03  0.00000000000E+00 0. -1.
         25    2    1    2    0    0 -0.26761901433E+02 -0.43113242364E+02 -0.21134836078E+03  0.25077984354E+03  0.12508976490E+03 0.  0.
          5    1    3    3  502    0 -0.58801464697E+02 -0.19166911645E+02 -0.37736454910E+02  0.72570622029E+02  0.41800000000E+01 0.  1.
         -5    1    3    3    0  502  0.32039563264E+02 -0.23946330719E+02 -0.17361190587E+03  0.17820922151E+03  0.41800000000E+01 0.  1.
        -11    1    1    2    0    0  0.14502286635E+02 -0.26804017538E+02 -0.50957730581E+02  0.59375600879E+02  0.00000000000E+00 0.  1.
         11    1    1    2    0    0  0.12259614798E+02  0.69917259902E+02 -0.98915365751E+02  0.12174962410E+03  0.00000000000E+00 0. -1.
</event>
<event>
 7    1  0.2384639E-009  0.2487233E+03  0.7561462E-02  0.1114114E+00
          2   -1    0    0  501    0  0.00000000000E+00  0.00000000000E+00  0.11947037111E+04  0.11947037111E+04  0.00000000000E+00 0. -1.
         -2   -1    0    0    0  501 -0.00000000000E+00 -0.00000000000E+00 -0.60728550831E+02  0.60728550831E+02  0.00000000000E+00 0.  1.
         25    2    1    2    0    0  0.43576278627E+02 -0.24266442335E+03  0.56957754500E+03  0.63312836673E+03  0.12509210433E+03 0.  0.
          5    1    3    3  502    0 -0.91495177687E+00 -0.12426904135E+03  0.14975464188E+03  0.19464726286E+03  0.41800000000E+01 0. -1.
         -5    1    3    3    0  502  0.44491230404E+02 -0.11839538200E+03  0.41982290312E+03  0.43848110387E+03  0.41800000000E+01 0. -1.
        -11    1    1    2    0    0 -0.35740216450E+02  0.19403026317E+03  0.51930560520E+03  0.55552085262E+03  0.00000000000E+00 0. -1.
         11    1    1    2    0    0 -0.78360621775E+01  0.48634160181E+02  0.45092010111E+02  0.66783042629E+02  0.00000000000E+00 0.  1.
</event>
<event>
 7    1  0.2384639E-009  0.9228409E+02  0.7561462E-02  0.1297413E+00
         -1   -1    0    0    0  501 -0.00000000000E+00  0.00000000000E+00  0.89521538271E+02  0.89521538271E+02  0.00000000000E+00 0.  1.
          1   -1    0    0  501    0  0.00000000000E+00 -0.00000000000E+00 -0.14945618352E+03  0.14945618352E+03  0.00000000000E+00 0. -1.
         25    2    1    2    0    0 -0.14051803165E+02  0.16665981332E+02 -0.71899640696E+02  0.14591893851E+03  0.12509024813E+03 0.  0.
          5    1    3    3  502    0 -0.66026324161E+02 -0.21641121093E+01 -0.59734051664E+02  0.89161584730E+02  0.41800000000E+01 0.  1.
         -5    1    3    3    0  502  0.51974520995E+02  0.18830093442E+02 -0.12165589031E+02  0.56757353781E+02  0.41800000000E+01 0.  1.
        -11    1    1    2    0    0  0.12883816795E+02  0.21331636193E+02 -0.28282975147E+02  0.37695598165E+02  0.00000000000E+00 0. -1.
         11    1    1    2    0    0  0.11679863707E+01 -0.37997617525E+02  0.40247970591E+02  0.55363185118E+02  0.00000000000E+00 0.  1.
</event>
<event>
 7    1  0.2384639E-009  0.9738450E+02  0.7561462E-02  0.1285894E+00
          1   -1    0    0  501    0  0.00000000000E+00  0.00000000000E+00  0.42152061639E+02  0.42152061639E+02  0.00000000000E+00 0. -1.
         -1   -1    0    0    0  501 -0.00000000000E+00 -0.00000000000E+00 -0.35141178570E+03  0.35141178570E+03  0.00000000000E+00 0.  1.
         25    2    1    2    0    0 -0.31497390365E+02 -0.43760409226E+01 -0.25118106961E+03  0.28240309161E+03  0.12509332949E+03 0.  0.
          5    1    3    3  502    0 -0.64556863475E+02 -0.13081502053E+02 -0.23547490169E+03  0.24454982323E+03  0.41800000000E+01 0. -1.
         -5    1    3    3    0  502  0.33059473110E+02  0.87054611304E+01 -0.15706167925E+02  0.37853268375E+02  0.41800000000E+01 0. -1.
        -11    1    1    2    0    0 -0.29452724622E+02 -0.11045374864E+02 -0.24593944626E+02  0.39929004568E+02  0.00000000000E+00 0.  1.
         11    1    1    2    0    0  0.60950114986E+02  0.15421415786E+02 -0.33484709819E+02  0.71231751160E+02  0.00000000000E+00 0. -1.
</event>
<event>
 7    1  0.2384639E-009  0.1066883E+03  0.7561462E-02  0.1266828E+00
          1   -1    0    0  501    0  0.00000000000E+00  0.00000000000E+00  0.30329087784E+03  0.30329087784E+03  0.00000000000E+00 0. -1.
         -1   -1    0    0    0  501 -0.00000000000E+00 -0.00000000000E+00 -0.43874960246E+02  0.43874960246E+02  0.00000000000E+00 0.  1.
         25    2    1    2    0    0  0.11616523743E+02  0.35390331384E+02  0.17064163479E+03  0.21483569047E+03  0.12509351380E+03 0.  0.
          5    1    3    3  502    0  0.10828367721E+02 -0.39430605190E+02  0.11314166440E+03  0.12037663725E+03  0.41800000000E+01 0. -1.
         -5    1    3    3    0  502  0.78815602151E+00  0.74820936574E+02  0.57499970395E+02  0.94459053220E+02  0.41800000000E+01 0. -1.
        -11    1    1    2    0    0 -0.39370470278E+02  0.13072534143E+02  0.46300411529E+02  0.62166334833E+02  0.00000000000E+00 0.  1.
         11    1    1    2    0    0  0.27753946535E+02 -0.48462865526E+02  0.42473871269E+02  0.70163812780E+02  0.00000000000E+00 0. -1.
</event>
<event>
 7    1  0.2384639E-009  0.8907015E+02  0.7561462E-02  0.1305119E+00
         -2   -1    0    0    0  501 -0.00000000000E+00  0.00000000000E+00  0.10385659601E+02  0.10385659601E+02  0.00000000000E+00 0.  1.
          2   -1    0    0  501    0  0.00000000000E+00 -0.00000000000E+00 -0.19046398597E+04  0.19046398597E+04  0.00000000000E+00 0. -1.
         25    2    1    2    0    0 -0.57956696973E+02 -0.75261286451E+01 -0.15334981054E+04  0.15397014000E+04  0.12509332744E+03 0.  0.
          5    1    3    3  502    0  0.41213237006E+01  0.11284161706E+02 -0.14399870651E+02  0.19213180092E+02  0.41800000000E+01 0.  1.
         -5    1    3    3    0  502 -0.62078020674E+02 -0.18810290352E+02 -0.15190982348E+04  0.15204882199E+04  0.41800000000E+01 0.  1.
        -11    1    1    2    0    0 -0.21063337999E+02  0.29431065611E+01 -0.12058075336E+03  0.12244200327E+03  0.00000000000E+00 0.  1.
         11    1    1    2    0    0  0.79020034972E+02  0.45830220841E+01 -0.24017534129E+03  0.25288211598E+03  0.00000000000E+00 0. -1.
</event>
<event>
 7    1  0.2384639E-009  0.8176582E+02  0.7561462E-02  0.1324114E+00
          1   -1    0    0  501    0  0.00000000000E+00  0.00000000000E+00  0.37880979995E+02  0.37880979995E+02  0.00000000000E+00 0. -1.
         -1   -1    0    0    0  501 -0.00000000000E+00 -0.00000000000E+00 -0.33119339613E+03  0.33119339613E+03  0.00000000000E+00 0.  1.
         25    2    1    2    0    0  0.62440621947E+00  0.22693028794E+02 -0.13466577620E+03  0.18519288123E+03  0.12508464550E+03 0.  0.
          5    1    3    3  502    0 -0.28631845237E+01 -0.24550644507E+02  0.14272599727E+02  0.28846342477E+02  0.41800000000E+01 0.  1.
         -5    1    3    3    0  502  0.34875907432E+01  0.47243673302E+02 -0.14893837593E+03  0.15634653876E+03  0.41800000000E+01 0.  1.
        -11    1    1    2    0    0 -0.44266540043E+02 -0.90473401571E+01 -0.98133949933E+02  0.10803542503E+03  0.00000000000E+00 0.  1.
         11    1    1    2    0    0  0.43642133823E+02 -0.13645688637E+02 -0.60512689999E+02  0.75846069865E+02  0.00000000000E+00 0. -1.
</event>
<event>
 7    1  0.2384639E-009  0.1542116E+03  0.7561462E-02  0.1195391E+00
          2   -1    0    0  501    0  0.00000000000E+00  0.00000000000E+00  0.18853726484E+03  0.18853726484E+03  0.00000000000E+00 0.  1.
         -2   -1    0    0    0  501 -0.00000000000E+00 -0.00000000000E+00 -0.15329645162E+03  0.15329645162E+03  0.00000000000E+00 0. -1.
         25    2    1    2    0    0  0.12162350646E+03  0.50981543038E+02  0.16273641248E+02  0.18249314676E+03  0.12509005620E+03 0.  0.
          5    1    3    3  502    0  0.10168835740E+02 -0.33646075410E+02 -0.15954818064E+02  0.38826437260E+02  0.41800000000E+01 0.  1.
         -5    1    3    3    0  502  0.11145467072E+03  0.84627618449E+02  0.32228459312E+02  0.14366670950E+03  0.41800000000E+01 0.  1.
        -11    1    1    2    0    0 -0.28909278765E+02 -0.20442642825E+02  0.46003368010E+02  0.58051338595E+02  0.00000000000E+00 0.  1.
         11    1    1    2    0    0 -0.92714227691E+02 -0.30538900213E+02 -0.27036196033E+02  0.10128923111E+03  0.00000000000E+00 0. -1.
</event>
<event>
 7    1  0.2384639E-009  0.1058763E+03  0.7561462E-02  0.1268403E+00
          1   -1    0    0  501    0  0.00000000000E+00  0.00000000000E+00  0.60499163948E+03  0.60499163948E+03  0.00000000000E+00 0. -1.
         -1   -1    0    0    0  501 -0.00000000000E+00 -0.00000000000E+00 -0.21110636458E+02  0.21110636458E+02  0.00000000000E+00 0.  1.
         25    2    1    2    0    0 -0.55330077711E+01  0.14786841636E+02  0.41286099666E+03  0.43168369506E+03  0.12508934867E+03 0.  0.
          5    1    3    3  502    0 -0.56093275562E+02  0.35002976982E+02  0.16350204665E+03  0.17641444277E+03  0.41800000000E+01 0.  1.
         -5    1    3    3    0  502  0.50560267791E+02 -0.20216135346E+02  0.24935895002E+03  0.25526925228E+03  0.41800000000E+01 0.  1.
        -11    1    1    2    0    0 -0.32164296620E+02  0.21401456168E+02  0.90829739411E+02  0.98704639529E+02  0.00000000000E+00 0. -1.
         11    1    1    2    0    0  0.37697304391E+02 -0.36188297804E+02  0.80190266943E+02  0.95713941349E+02  0.00000000000E+00 0.  1.
</event>
<event>
 7    1  0.2384639E-009  0.1178119E+03  0.7561462E-02  0.1246751E+00
          2   -1    0    0  501    0  0.00000000000E+00  0.00000000000E+00  0.87716216675E+03  0.87716216675E+03  0.00000000000E+00 0. -1.
         -2   -1    0    0    0  501 -0.00000000000E+00 -0.00000000000E+00 -0.23667436867E+02  0.23667436867E+02  0.00000000000E+00 0.  1.
         25    2    1    2    0    0  0.90640819750E+02  0.23277658230E+02  0.54027420743E+03  0.56240645473E+03  0.12508874259E+03 0.  0.
          5    1    3    3  502    0  0.56556945574E+02 -0.33862810717E+02  0.12090011572E+03  0.13776678999E+03  0.41800000000E+01 0. -1.
         -5    1    3    3    0  502  0.34083874177E+02  0.57140468947E+02  0.41937409171E+03  0.42463966474E+03  0.41800000000E+01 0. -1.
        -11    1    1    2    0    0 -0.82722078458E+02 -0.34118531646E+02  0.31241149323E+03  0.32497377982E+03  0.00000000000E+00 0. -1.
         11    1    1    2    0    0 -0.79187412925E+01  0.10840873415E+02  0.80902921525E+00  0.13449369068E+02  0.00000000000E+00 0.  1.
</event>
<event>
 7    1  0.2384639E-009  0.1322028E+03  0.7561462E-02  0.1224223E+00
          2   -1    0    0  501    0  0.00000000000E+00  0.00000000000E+00  0.13499339208E+03  0.13499339208E+03  0.00000000000E+00 0. -1.
         -2   -1    0    0    0  501 -0.00000000000E+00 -0.00000000000E+00 -0.20266160345E+03  0.20266160345E+03  0.00000000000E+00 0.  1.
         25    2    1    2    0    0  0.34424674523E+01 -0.94674896716E+02 -0.12366070252E+03  0.19978595296E+03  0.12508905229E+03 0.  0.
          5    1    3    3  502    0  0.50464673331E+02 -0.96475331557E+02 -0.94803546248E+02  0.14442768999E+03  0.41800000000E+01 0.  1.
         -5    1    3    3    0  502 -0.47022205879E+02  0.18004348405E+01 -0.28857156268E+02  0.55358262971E+02  0.41800000000E+01 0.  1.
        -11    1    1    2    0    0 -0.24148311227E+02  0.22096131737E+02 -0.13375078314E+02  0.35359195307E+02  0.00000000000E+00 0.  1.
         11    1    1    2    0    0  0.20705843775E+02  0.72578764979E+02  0.69367569459E+02  0.10250984726E+03  0.00000000000E+00 0. -1.
</event>
<event>
 7    1  0.2384639E-009  0.1743182E+03  0.7561462E-02  0.1173418E+00
          1   -1    0    0  501    0  0.00000000000E+00  0.00000000000E+00  0.20139284962E+03  0.20139284962E+03  0.00000000000E+00 0. -1.
         -1   -1    0    0    0  501 -0.00000000000E+00 -0.00000000000E+00 -0.15926911990E+03  0.15926911990E+03  0.00000000000E+00 0.  1.
         25    2    1    2    0    0  0.18678575815E+02 -0.13471136555E+03  0.62999378110E+02  0.19522424142E+03  0.12509013388E+03 0.  0.
          5    1    3    3  502    0  0.17341122126E+02 -0.15901941001E+03  0.52837374403E+02  0.16851453294E+03  0.41800000000E+01 0. -1.
         -5    1    3    3    0  502  0.13374536893E+01  0.24308044462E+02  0.10162003707E+02  0.26709708483E+02  0.41800000000E+01 0. -1.
        -11    1    1    2    0    0  0.37257997788E+02  0.48690152981E+02 -0.11734273359E+02  0.62422612632E+02  0.00000000000E+00 0.  1.
         11    1    1    2    0    0 -0.55936573603E+02  0.86021212569E+02 -0.91413750295E+01  0.10301511547E+03  0.00000000000E+00 0. -1.
</event>
<event>
 7    1  0.2384639E-009  0.1522634E+03  0.7561462E-02  0.1197719E+00
         -1   -1    0    0    0  501 -0.00000000000E+00  0.00000000000E+00  0.19941498968E+03  0.19941498968E+03  0.00000000000E+00 0.  1.
          1   -1    0    0  501    0  0.00000000000E+00 -0.00000000000E+00 -0.17319335387E+03  0.17319335387E+03  0.00000000000E+00 0. -1.
         25    2    1    2    0    0  0.80862327023E+02  0.12656693418E+03  0.15836100233E+02  0.19610299816E+03  0.12509076328E+03 0.  0.
          5    1    3    3  502    0  0.59565457966E+02  0.69390870228E+02 -0.51583262678E+02  0.10507826627E+03  0.41800000000E+01 0. -1.
         -5    1    3    3    0  502  0.21296869057E+02  0.57176063953E+02  0.67419362912E+02  0.91024731893E+02  0.41800000000E+01 0. -1.
        -11    1    1    2    0    0 -0.61268833499E+02 -0.76174488643E+02 -0.37085796329E+02  0.10455514797E+03  0.00000000000E+00 0. -1.
         11    1    1    2    0    0 -0.19593493524E+02 -0.50392445539E+02  0.47471331908E+02  0.71950197421E+02  0.00000000000E+00 0.  1.
</event>
<event>
 7    1  0.2384639E-009  0.1764990E+03  0.7561462E-02  0.1171235E+00
          1   -1    0    0  501    0  0.00000000000E+00  0.00000000000E+00  0.23034022196E+03  0.23034022196E+03  0.00000000000E+00 0. -1.
         -1   -1    0    0    0  501 -0.00000000000E+00 -0.00000000000E+00 -0.15175040001E+03  0.15175040001E+03  0.00000000000E+00 0.  1.
         25    2    1    2    0    0 -0.14775431830E+03  0.34398660936E+02  0.67097612982E+02  0.20775969969E+03  0.12508955471E+03 0.  0.
          5    1    3    3  502    0 -0.39969435095E+02 -0.46132215234E+02  0.12211260437E+02  0.62388494979E+02  0.41800000000E+01 0. -1.
         -5    1    3    3    0  502 -0.10778488320E+03  0.80530876170E+02  0.54886352546E+02  0.14537120471E+03  0.41800000000E+01 0. -1.
        -11    1    1    2    0    0  0.12797429926E+03 -0.43855458941E+02  0.37435447052E+02  0.14036429477E+03  0.00000000000E+00 0. -1.
         11    1    1    2    0    0  0.19780019035E+02  0.94567980054E+01 -0.25943238084E+02  0.33966627502E+02  0.00000000000E+00 0.  1.
</event>
<event>
 7    1  0.2427050E-009  0.2162960E+03  0.7561462E-02  0.1136675E+00
          2   -1    0    0  501    0  0.00000000000E+00  0.00000000000E+00  0.70030184654E+03  0.70030184654E+03  0.00000000000E+00 0. -1.
         -2   -1    0    0    0  501 -0.00000000000E+00 -0.00000000000E+00 -0.96310406528E+02  0.96310406528E+02  0.00000000000E+00 0.  1.
         25    2    1    2    0    0  0.15526545416E+03  0.13178121735E+03  0.12877399190E+03  0.27148506370E+03  0.12509096018E+03 0.  0.
          5    1    3    3  502    0  0.27977167518E+02 -0.15141617160E+02  0.54699042178E+02  0.63414888534E+02  0.41800000000E+01 0. -1.
         -5    1    3    3    0  502  0.12728828664E+03  0.14692283451E+03  0.74074949721E+02  0.20807017516E+03  0.41800000000E+01 0. -1.
        -11    1    1    2    0    0 -0.63257958948E+02 -0.74302408386E+02  0.12552619660E+03  0.15899447568E+03  0.00000000000E+00 0.  1.
         11    1    1    2    0    0 -0.92007495209E+02 -0.57478808963E+02  0.34969125151E+03  0.36613271369E+03  0.00000000000E+00 0. -1.
</event>
<event>
 7    1  0.2384639E-009  0.1156430E+03  0.7561462E-02  0.1250463E+00
         -2   -1    0    0    0  501 -0.00000000000E+00  0.00000000000E+00  0.20647730568E+03  0.20647730568E+03  0.00000000000E+00 0. -1.
          2   -1    0    0  501    0  0.00000000000E+00 -0.00000000000E+00 -0.89901146696E+02  0.89901146696E+02  0.00000000000E+00 0.  1.
         25    2    1    2    0    0  0.70113719801E+02 -0.20153702457E+02  0.23348177056E+02  0.14667866997E+03  0.12508952564E+03 0.  0.
          5    1    3    3  502    0 -0.31829767576E+02  0.16870909880E+02  0.62615170221E+01  0.36802726795E+02  0.41800000000E+01 0. -1.
         -5    1    3    3    0  502  0.10194348738E+03 -0.37024612337E+02  0.17086660034E+02  0.10987594317E+03  0.41800000000E+01 0. -1.
        -11    1    1    2    0    0 -0.73382674118E+01 -0.13416860090E+02 -0.14171642328E+02  0.20849406456E+02  0.00000000000E+00 0.  1.
         11    1    1    2    0    0 -0.62775452389E+02  0.33570562547E+02  0.10739962425E+03  0.12885037595E+03  0.00000000000E+00 0. -1.
</event>
<event>
 7    1  0.2384639E-009  0.1221578E+03  0.7561462E-02  0.1239579E+00
         -2   -1    0    0    0  501 -0.00000000000E+00  0.00000000000E+00  0.12496637812E+03  0.12496637812E+03  0.00000000000E+00 0.  1.
          2   -1    0    0  501    0  0.00000000000E+00 -0.00000000000E+00 -0.14075626767E+03  0.14075626767E+03  0.00000000000E+00 0. -1.
         25    2    1    2    0    0 -0.16228006877E+02  0.67007995355E+02 -0.44021291282E+02  0.14947308774E+03  0.12510359797E+03 0.  0.
          5    1    3    3  502    0 -0.48036153032E+02 -0.17706213625E+02 -0.79848033518E+01  0.51982799882E+02  0.41800000000E+01 0.  1.
         -5    1    3    3    0  502  0.31808146155E+02  0.84714208980E+02 -0.36036487930E+02  0.97490287861E+02  0.41800000000E+01 0.  1.
        -11    1    1    2    0    0 -0.23981652439E+02  0.27335882195E+00  0.29296375641E+02  0.37861220325E+02  0.00000000000E+00 0.  1.
         11    1    1    2    0    0  0.40209659316E+02 -0.67281354177E+02 -0.10649739068E+01  0.78388337727E+02  0.00000000000E+00 0. -1.
</event>
<event>
 7    1  0.2384639E-009  0.1119879E+03  0.7561462E-02  0.1256932E+00
          2   -1    0    0  501    0  0.00000000000E+00  0.00000000000E+00  0.13080977375E+03  0.13080977375E+03  0.00000000000E+00 0. -1.
         -2   -1    0    0    0  501 -0.00000000000E+00 -0.00000000000E+00 -0.12012894586E+03  0.12012894586E+03  0.00000000000E+00 0.  1.
         25    2    1    2    0    0  0.56968617223E+01  0.66111742871E+02  0.25156848439E+02  0.14381348902E+03  0.12508491445E+03 0.  0.
          5    1    3    3  502    0 -0.50103778644E+02  0.68485684488E+02  0.85113611532E+01  0.85384971060E+02  0.41800000000E+01 0.  1.
         -5    1    3    3    0  502  0.55800640366E+02 -0.23739416173E+01  0.16645487286E+02  0.58428517960E+02  0.41800000000E+01 0.  1.
        -11    1    1    2    0    0  0.86491889191E+01 -0.67992168819E+02  0.18603396926E+02  0.71019925843E+02  0.00000000000E+00 0. -1.
         11    1    1    2    0    0 -0.14346050641E+02  0.18804259474E+01 -0.33079417469E+02  0.36105304746E+02  0.00000000000E+00 0.  1.
</event>
<event>
 7    1  0.2384639E-009  0.1743201E+03  0.7561462E-02  0.1173416E+00
         -1   -1    0    0    0  501 -0.00000000000E+00  0.00000000000E+00  0.95928691445E+02  0.95928691445E+02  0.00000000000E+00 0.  1.
          1   -1    0    0  501    0  0.00000000000E+00 -0.00000000000E+00 -0.34282556234E+03  0.34282556234E+03  0.00000000000E+00 0. -1.
         25    2    1    2    0    0 -0.14081513030E+03 -0.21546263990E+02 -0.15089799017E+03  0.24230366255E+03  0.12509084314E+03 0.  0.
          5    1    3    3  502    0 -0.15742814247E+03 -0.36727207619E+02 -0.11045404974E+03  0.19583175771E+03  0.41800000000E+01 0. -1.
         -5    1    3    3    0  502  0.16613012173E+02  0.15180943629E+02 -0.40443940428E+02  0.46471904849E+02  0.41800000000E+01 0. -1.
        -11    1    1    2    0    0  0.16752169110E+02 -0.26208284804E+02  0.21927206913E+01  0.31182004205E+02  0.00000000000E+00 0.  1.
         11    1    1    2    0    0  0.12406296119E+03  0.47754548793E+02 -0.98191601418E+02  0.16526858703E+03  0.00000000000E+00 0. -1.
</event>
<event>
 7    1  0.2384639E-009  0.2345647E+03  0.7561462E-02  0.1123468E+00
          2   -1    0    0  501    0  0.00000000000E+00  0.00000000000E+00  0.15981805060E+04  0.15981805060E+04  0.00000000000E+00 0.  1.
         -2   -1    0    0    0  501 -0.00000000000E+00 -0.00000000000E+00 -0.42474383136E+02  0.42474383136E+02  0.00000000000E+00 0. -1.
         25    2    1    2    0    0  0.99941785571E+02 -0.18511503630E+03  0.45828800771E+03  0.51954874764E+03  0.12508823284E+03 0.  0.
          5    1    3    3  502    0  0.12269663794E+03 -0.18119552471E+03  0.38835532479E+03  0.44578426826E+03  0.41800000000E+01 0. -1.
         -5    1    3    3    0  502 -0.22754852366E+02 -0.39195115871E+01  0.69932682923E+02  0.73764479379E+02  0.41800000000E+01 0. -1.
        -11    1    1    2    0    0 -0.16712325288E+02  0.11989863639E+03  0.50346344428E+03  0.51781311740E+03  0.00000000000E+00 0.  1.
         11    1    1    2    0    0 -0.83229460283E+02  0.65216399908E+02  0.59395467085E+03  0.60329302408E+03  0.00000000000E+00 0. -1.
</event>
<event>
 7    1  0.2384639E-009  0.7797288E+02  0.7561462E-02  0.1334905E+00
          2   -1    0    0  501    0  0.00000000000E+00  0.00000000000E+00  0.25433158096E+03  0.25433158096E+03  0.00000000000E+00 0.  1.
         -2   -1    0    0    0  501 -0.00000000000E+00 -0.00000000000E+00 -0.53007455546E+02  0.53007455546E+02  0.00000000000E+00 0. -1.
         25    2    1    2    0    0 -0.10325119404E+02  0.32318067843E+02  0.15011763310E+03  0.19832630723E+03  0.12508778826E+03 0.  0.
          5    1    3    3  502    0  0.13779619545E+02  0.68363189009E+02  0.41407416294E+02  0.81212376214E+02  0.41800000000E+01 0. -1.
         -5    1    3    3    0  502 -0.24104738949E+02 -0.36045121166E+02  0.10871021681E+03  0.11711393102E+03  0.41800000000E+01 0. -1.
        -11    1    1    2    0    0  0.18945862570E+02 -0.23519899229E+02  0.75751628285E+02  0.81550233329E+02  0.00000000000E+00 0.  1.
         11    1    1    2    0    0 -0.86207431660E+01 -0.87981686135E+01 -0.24545135973E+02  0.27462495946E+02  0.00000000000E+00 0. -1.
</event>
<event>
 7    1  0.2384639E-009  0.8228525E+02  0.7561462E-02  0.1322689E+00
         -2   -1    0    0    0  501 -0.00000000000E+00  0.00000000000E+00  0.27584721080E+02  0.27584721080E+02  0.00000000000E+00 0.  1.
          2   -1    0    0  501    0  0.00000000000E+00 -0.00000000000E+00 -0.49965403380E+03  0.49965403380E+03  0.00000000000E+00 0. -1.
         25    2    1    2    0    0 -0.97293347705E+01 -0.15928932219E+02 -0.36220904743E+03  0.38365525108E+03  0.12509023466E+03 0.  0.
          5    1    3    3  502    0  0.39128755126E+02  0.94980231713E+01 -0.28964163170E+03  0.29245686713E+03  0.41800000000E+01 0.  1.
         -5    1    3    3    0  502 -0.48858089897E+02 -0.25426955390E+02 -0.72567415737E+02  0.91198383952E+02  0.41800000000E+01 0.  1.
        -11    1    1    2    0    0  0.22534024695E+02  0.37510052689E+02 -0.16266183192E+02  0.46683777026E+02  0.00000000000E+00 0.  1.
         11    1    1    2    0    0 -0.12804689925E+02 -0.21581120470E+02 -0.93594082093E+02  0.96899726767E+02  0.00000000000E+00 0. -1.
</event>
<event>
 7    1  0.2384639E-009  0.1195953E+03  0.7561462E-02  0.1243766E+00
         -1   -1    0    0    0  501 -0.00000000000E+00  0.00000000000E+00  0.29175794689E+02  0.29175794689E+02  0.00000000000E+00 0.  1.
          1   -1    0    0  501    0  0.00000000000E+00 -0.00000000000E+00 -0.51838042288E+03  0.51838042288E+03  0.00000000000E+00 0. -1.
         25    2    1    2    0    0  0.30134598830E+02 -0.49066062990E+02 -0.25026724270E+03  0.28565094238E+03  0.12508875061E+03 0.  0.
          5    1    3    3  502    0  0.25714729558E+02  0.39764637951E+02 -0.70338139516E+02  0.84896407569E+02  0.41800000000E+01 0. -1.
         -5    1    3    3    0  502  0.44198692714E+01 -0.88830700941E+02 -0.17992910319E+03  0.20075453481E+03  0.41800000000E+01 0. -1.
        -11    1    1    2    0    0 -0.21819144963E+02 -0.22045188829E+02 -0.40953858518E+02  0.51373961936E+02  0.00000000000E+00 0.  1.
         11    1    1    2    0    0 -0.83154538670E+01  0.71111251819E+02 -0.19798352697E+03  0.21053131325E+03  0.00000000000E+00 0. -1.
</event>
<event>
 7    1  0.2384639E-009  0.1065947E+03  0.7561462E-02  0.1267009E+00
         -2   -1    0    0    0  501 -0.00000000000E+00  0.00000000000E+00  0.66579020610E+03  0.66579020610E+03  0.00000000000E+00 0.  1.
          2   -1    0    0  501    0  0.00000000000E+00 -0.00000000000E+00 -0.23448243943E+02  0.23448243943E+02  0.00000000000E+00 0. -1.
         25    2    1    2    0    0 -0.19416942167E+02  0.40165515639E+02  0.48927293664E+03  0.50697576169E+03  0.12508449194E+03 0.  0.
          5    1    3    3  502    0 -0.57624487956E+02  0.49008914550E+02  0.42397761785E+03  0.43069356642E+03  0.41800000000E+01 0. -1.
         -5    1    3    3    0  502  0.38207545789E+02 -0.88433989114E+01  0.65295318786E+02  0.76282195268E+02  0.41800000000E+01 0. -1.
        -11    1    1    2    0    0  0.34109744623E+02  0.17599833306E+02  0.72613700343E+02  0.82133904620E+02  0.00000000000E+00 0. -1.
         11    1    1    2    0    0 -0.14692802456E+02 -0.57765348945E+02  0.80455325173E+02  0.10012878373E+03  0.00000000000E+00 0.  1.
</event>
<event>
 7    1  0.2384639E-009  0.1370091E+03  0.7561462E-02  0.1217411E+00
          3   -1    0    0  501    0  0.00000000000E+00  0.00000000000E+00  0.17048331032E+03  0.17048331032E+03  0.00000000000E+00 0. -1.
         -3   -1    0    0    0  501 -0.00000000000E+00 -0.00000000000E+00 -0.13887209874E+03  0.13887209874E+03  0.00000000000E+00 0.  1.
         25    2    1    2    0    0  0.80572618448E+02  0.71043593861E+02  0.27867705291E+02  0.16722191879E+03  0.12508965606E+03 0.  0.
          5    1    3    3  502    0  0.30779586700E+02 -0.25173658619E+02  0.41880989080E+02  0.57901517183E+02  0.41800000000E+01 0. -1.
         -5    1    3    3    0  502  0.49793031747E+02  0.96217252480E+02 -0.14013283789E+02  0.10932040161E+03  0.41800000000E+01 0. -1.
        -11    1    1    2    0    0 -0.89354393403E+02 -0.49041706908E+02  0.30503303603E+02  0.10639430515E+03  0.00000000000E+00 0. -1.
         11    1    1    2    0    0  0.87817749558E+01 -0.22001886952E+02 -0.26759797315E+02  0.35739185122E+02  0.00000000000E+00 0.  1.
</event>
<event>
 7    1  0.2384639E-009  0.8554300E+02  0.7561462E-02  0.1314019E+00
         -2   -1    0    0    0  501 -0.00000000000E+00  0.00000000000E+00  0.11291496818E+03  0.11291496818E+03  0.00000000000E+00 0.  1.
          2   -1    0    0  501    0  0.00000000000E+00 -0.00000000000E+00 -0.12175186991E+03  0.12175186991E+03  0.00000000000E+00 0. -1.
         25    2    1    2    0    0 -0.18233856814E+02  0.27653689781E+02  0.19122517662E+02  0.13080817197E+03  0.12509159476E+03 0.  0.
          5    1    3    3  502    0  0.15578454952E+02 -0.11313348342E+02  0.61079370966E+02  0.64178205545E+02  0.41800000000E+01 0. -1.
         -5    1    3    3    0  502 -0.33812311766E+02  0.38967038123E+02 -0.41956853304E+02  0.66629966428E+02  0.41800000000E+01 0. -1.
        -11    1    1    2    0    0 -0.67264525070E+01  0.33187058287E+02 -0.13940767705E+02  0.36619270955E+02  0.00000000000E+00 0. -1.
         11    1    1    2    0    0  0.24960309321E+02 -0.60840748068E+02 -0.14018651690E+02  0.67239395165E+02  0.00000000000E+00 0.  1.
</event>
<event>
 7    1  0.2384639E-009  0.1600192E+03  0.7561462E-02  0.1188675E+00
         -3   -1    0    0    0  501 -0.00000000000E+00  0.00000000000E+00  0.47859507256E+03  0.47859507256E+03  0.00000000000E+00 0.  1.
          3   -1    0    0  501    0  0.00000000000E+00 -0.00000000000E+00 -0.75359096467E+02  0.75359096467E+02  0.00000000000E+00 0. -1.
         25    2    1    2    0    0  0.63215666425E+02 -0.14019148277E+03  0.23994283799E+03  0.31124006861E+03  0.12509173629E+03 0.  0.
          5    1    3    3  502    0  0.19614704491E+02 -0.46782710978E+01  0.12920838182E+03  0.13083921883E+03  0.41800000000E+01 0. -1.
         -5    1    3    3    0  502  0.43600961934E+02 -0.13551321167E+03  0.11073445617E+03  0.18040084978E+03  0.41800000000E+01 0. -1.
        -11    1    1    2    0    0 -0.58643057383E+02  0.95249815070E+02  0.16281796914E+03  0.19753791161E+03  0.00000000000E+00 0.  1.
         11    1    1    2    0    0 -0.45726090420E+01  0.44941667698E+02  0.47516896685E+00  0.45176188800E+02  0.00000000000E+00 0. -1.
</event>
<event>
 7    1  0.2384639E-009  0.1210586E+03  0.7561462E-02  0.1241361E+00
         -1   -1    0    0    0  501 -0.00000000000E+00  0.00000000000E+00  0.13276123282E+02  0.13276123282E+02  0.00000000000E+00 0. -1.
          1   -1    0    0  501    0  0.00000000000E+00 -0.00000000000E+00 -0.11484777173E+04  0.11484777173E+04  0.00000000000E+00 0.  1.
         25    2    1    2    0    0 -0.67771338389E+01  0.56360706648E+02 -0.55207216548E+03  0.56890597697E+03  0.12509147025E+03 0.  0.
          5    1    3    3  502    0 -0.15643485858E+02  0.94882562115E+02 -0.35198309539E+03  0.36490682521E+03  0.41800000000E+01 0. -1.
         -5    1    3    3    0  502  0.88663520191E+01 -0.38521855467E+02 -0.20008907009E+03  0.20399915176E+03  0.41800000000E+01 0. -1.
        -11    1    1    2    0    0 -0.37982757705E+02 -0.55279378034E+01 -0.17749596614E+03  0.18159863980E+03  0.00000000000E+00 0. -1.
         11    1    1    2    0    0  0.44759891544E+02 -0.50832768844E+02 -0.40563346237E+03  0.41124922380E+03  0.00000000000E+00 0.  1.
</event>
<event>
 7    1  0.2384639E-009  0.7993109E+02  0.7561462E-02  0.1329247E+00
         -1   -1    0    0    0  501 -0.00000000000E+00  0.00000000000E+00  0.22029017960E+03  0.22029017960E+03  0.00000000000E+00 0.  1.
          1   -1    0    0  501    0  0.00000000000E+00 -0.00000000000E+00 -0.69639838086E+02  0.69639838086E+02  0.00000000000E+00 0. -1.
         25    2    1    2    0    0 -0.37139439241E+02 -0.37797688195E+02  0.59707420509E+02  0.14839360509E+03  0.12509069825E+03 0.  0.
          5    1    3    3  502    0 -0.32543059402E+01 -0.13225614962E+02  0.93411414354E+02  0.94491651112E+02  0.41800000000E+01 0.  1.
         -5    1    3    3    0  502 -0.33885133301E+02 -0.24572073233E+02 -0.33703993846E+02  0.53901953980E+02  0.41800000000E+01 0.  1.
        -11    1    1    2    0    0 -0.28094414132E+02 -0.12414077952E+00  0.75872871400E+01  0.29101175965E+02  0.00000000000E+00 0. -1.
         11    1    1    2    0    0  0.65233853373E+02  0.37921828974E+02  0.83355633868E+02  0.11243523663E+03  0.00000000000E+00 0.  1.
</event>
<event>
 7    1  0.2384639E-009  0.2742114E+03  0.7561462E-02  0.1098893E+00
         -2   -1    0    0    0  501 -0.00000000000E+00  0.00000000000E+00  0.95967946282E+02  0.95967946282E+02  0.00000000000E+00 0.  1.
          2   -1    0    0  501    0  0.00000000000E+00 -0.00000000000E+00 -0.88708619379E+03  0.88708619379E+03  0.00000000000E+00 0. -1.
         25    2    1    2    0    0 -0.20560670313E+03 -0.16065850635E+03 -0.52531898089E+03  0.59974370947E+03  0.12508882175E+03 0.  0.
          5    1    3    3  502    0 -0.55494460170E+01  0.11060575745E+02 -0.13037786431E+01  0.13126497083E+02  0.41800000000E+01 0. -1.
         -5    1    3    3    0  502 -0.20005725712E+03 -0.17171908210E+03 -0.52401520224E+03  0.58661721238E+03  0.41800000000E+01 0. -1.
        -11    1    1    2    0    0  0.15184884500E+03  0.72134047786E+02 -0.19696795815E+03  0.25895514884E+03  0.00000000000E+00 0. -1.
         11    1    1    2    0    0  0.53757858139E+02  0.88524458567E+02 -0.68831308480E+02  0.12435528177E+03  0.00000000000E+00 0.  1.
</event>
<event>
 7    1  0.2384639E-009  0.2246208E+03  0.7561462E-02  0.1130484E+00
         -1   -1    0    0    0  501 -0.00000000000E+00  0.00000000000E+00  0.33854242867E+03  0.33854242867E+03  0.00000000000E+00 0.  1.
          1   -1    0    0  501    0  0.00000000000E+00 -0.00000000000E+00 -0.18401569472E+03  0.18401569472E+03  0.00000000000E+00 0. -1.
         25    2    1    2    0    0 -0.17434028784E+03  0.10867112713E+03  0.17506339374E+03  0.29748695149E+03  0.12508934664E+03 0.  0.
          5    1    3    3  502    0 -0.13602682427E+03  0.31243635747E+02  0.15515802451E+03  0.20873654846E+03  0.41800000000E+01 0.  1.
         -5    1    3    3    0  502 -0.38313463569E+02  0.77427491386E+02  0.19905369234E+02  0.88750403026E+02  0.41800000000E+01 0.  1.
        -11    1    1    2    0    0  0.18455509979E+03 -0.10450235692E+03 -0.24157693296E+02  0.21345941442E+03  0.00000000000E+00 0. -1.
         11    1    1    2    0    0 -0.10214811948E+02 -0.41687702111E+01  0.36210335093E+01  0.11611757485E+02  0.00000000000E+00 0.  1.
</event>
<event>
 7    1  0.2384639E-009  0.1327939E+03  0.7561462E-02  0.1223368E+00
         -3   -1    0    0    0  501 -0.00000000000E+00  0.00000000000E+00  0.28083782622E+03  0.28083782622E+03  0.00000000000E+00 0.  1.
          3   -1    0    0  501    0  0.00000000000E+00 -0.00000000000E+00 -0.99158471049E+02  0.99158471049E+02  0.00000000000E+00 0. -1.
         25    2    1    2    0    0 -0.29163660989E+02  0.10876440104E+03  0.16137748247E+03  0.23317428152E+03  0.12508932671E+03 0.  0.
          5    1    3    3  502    0  0.10820684988E+02  0.63231508078E+02  0.15998423770E+03  0.17241734121E+03  0.41800000000E+01 0. -1.
         -5    1    3    3    0  502 -0.39984345976E+02  0.45532892965E+02  0.13932447692E+01  0.60756940311E+02  0.41800000000E+01 0. -1.
        -11    1    1    2    0    0 -0.26553747940E+02 -0.63311669855E+02  0.28731475853E+02  0.74424235126E+02  0.00000000000E+00 0.  1.
         11    1    1    2    0    0  0.55717408929E+02 -0.45452731188E+02 -0.84296031488E+01  0.72397780625E+02  0.00000000000E+00 0. -1.
</event>
<event>
 7    1  0.2384639E-009  0.1836175E+03  0.7561462E-02  0.1164347E+00
         -2   -1    0    0    0  501 -0.00000000000E+00  0.00000000000E+00  0.60674286785E+02  0.60674286785E+02  0.00000000000E+00 0.  1.
          2   -1    0    0  501    0  0.00000000000E+00 -0.00000000000E+00 -0.65148769175E+03  0.65148769175E+03  0.00000000000E+00 0. -1.
         25    2    1    2    0    0 -0.40316123763E+02 -0.15390486820E+03 -0.38421486569E+03  0.43425933455E+03  0.12509199949E+03 0.  0.
          5    1    3    3  502    0 -0.30335428420E+02  0.13445334097E+02 -0.47475730534E+02  0.58072649467E+02  0.41800000000E+01 0.  1.
         -5    1    3    3    0  502 -0.99806953436E+01 -0.16735020230E+03 -0.33673913516E+03  0.37618668508E+03  0.41800000000E+01 0.  1.
        -11    1    1    2    0    0 -0.10873329899E+02  0.20547282149E+02  0.38404000050E+01  0.23562019842E+02  0.00000000000E+00 0.  1.
         11    1    1    2    0    0  0.51189453662E+02  0.13335758605E+03 -0.21043893928E+03  0.25434062414E+03  0.00000000000E+00 0. -1.
</event>
<event>
 7    1  0.2384639E-009  0.1203090E+03  0.7561462E-02  0.1242588E+00
         -4   -1    0    0    0  501 -0.00000000000E+00  0.00000000000E+00  0.62443900573E+03  0.62443900573E+03  0.00000000000E+00 0.  1.
          4   -1    0    0  501    0  0.00000000000E+00 -0.00000000000E+00 -0.68722785132E+02  0.68722785132E+02  0.00000000000E+00 0. -1.
         25    2    1    2    0    0 -0.71993864205E+02 -0.41734426601E+01  0.56064133746E+03  0.57893587090E+03  0.12508996458E+03 0.  0.
          5    1    3    3  502    0  0.87773695224E+00  0.51531355243E+02  0.17258595468E+03  0.18016557704E+03  0.41800000000E+01 0. -1.
         -5    1    3    3    0  502 -0.72871601158E+02 -0.55704797904E+02  0.38805538277E+03  0.39877029386E+03  0.41800000000E+01 0. -1.
        -11    1    1    2    0    0  0.65346234935E+02 -0.22877393753E+02  0.24749247850E+02  0.73525715462E+02  0.00000000000E+00 0.  1.
         11    1    1    2    0    0  0.66476292705E+01  0.27050836413E+02 -0.29674364710E+02  0.40700204502E+02  0.00000000000E+00 0. -1.
</event>
<event>
 7    1  0.2384639E-009  0.7813602E+02  0.7561462E-02  0.1334426E+00
         -1   -1    0    0    0  501 -0.00000000000E+00  0.00000000000E+00  0.38908349063E+02  0.38908349063E+02  0.00000000000E+00 0.  1.
          1   -1    0    0  501    0  0.00000000000E+00 -0.00000000000E+00 -0.38731981740E+03  0.38731981740E+03  0.00000000000E+00 0. -1.
         25    2    1    2    0    0 -0.37775986801E+02  0.30880138362E+02 -0.24616658731E+03  0.28040239083E+03  0.12508758513E+03 0.  0.
          5    1    3    3  502    0 -0.16647786620E+02  0.28845461774E+02 -0.25487942906E+03  0.25708015331E+03  0.41800000000E+01 0.  1.
         -5    1    3    3    0  502 -0.21128200180E+02  0.20346765880E+01  0.87128417575E+01  0.23322237525E+02  0.41800000000E+01 0.  1.
        -11    1    1    2    0    0 -0.88505241000E+01  0.26034149711E+02 -0.13759634631E+02  0.30747947463E+02  0.00000000000E+00 0.  1.
         11    1    1    2    0    0  0.46626510901E+02 -0.56914288073E+02 -0.88485246405E+02  0.11507782817E+03  0.00000000000E+00 0. -1.
</event>
<event>
 7    1  0.2384639E-009  0.1233395E+03  0.7561462E-02  0.1237687E+00
          2   -1    0    0  501    0  0.00000000000E+00  0.00000000000E+00  0.72119054928E+03  0.72119054928E+03  0.00000000000E+00 0. -1.
         -2   -1    0    0    0  501 -0.00000000000E+00 -0.00000000000E+00 -0.22864505553E+02  0.22864505553E+02  0.00000000000E+00 0.  1.
         25    2    1    2    0    0  0.66720322665E+02  0.69064586201E+01  0.33584656178E+03  0.36461073661E+03  0.12509506612E+03 0.  0.
          5    1    3    3  502    0  0.12836728475E+02 -0.56679631270E+02  0.14832902604E+03  0.15936227460E+03  0.41800000000E+01 0. -1.
         -5    1    3    3    0  502  0.53883594191E+02  0.63586089890E+02  0.18751753573E+03  0.20524846201E+03  0.41800000000E+01 0. -1.
        -11    1    1    2    0    0 -0.13149734956E+02 -0.39924337037E+02  0.83837498404E+02  0.93784830094E+02  0.00000000000E+00 0.  1.
         11    1    1    2    0    0 -0.53570587709E+02  0.33017878417E+02  0.27864198354E+03  0.28565948812E+03  0.00000000000E+00 0. -1.
</event>
<event>
 7    1  0.2384639E-009  0.7714334E+02  0.7561462E-02  0.1337359E+00
          2   -1    0    0  501    0  0.00000000000E+00  0.00000000000E+00  0.14158063950E+03  0.14158063950E+03  0.00000000000E+00 0. -1.
         -2   -1    0    0    0  501 -0.00000000000E+00 -0.00000000000E+00 -0.12870341353E+03  0.12870341353E+03  0.00000000000E+00 0.  1.
         25    2    1    2    0    0  0.50894644052E+02  0.22776436520E+02  0.67649676786E+02  0.15275427889E+03  0.12509340548E+03 0.  0.
          5    1    3    3  502    0  0.52297339550E+02  0.13195872191E+02 -0.24936889951E+02  0.59568982258E+02  0.41800000000E+01 0. -1.
         -5    1    3    3    0  502 -0.14026954976E+01  0.95805643288E+01  0.92586566737E+02  0.93185296628E+02  0.41800000000E+01 0. -1.
        -11    1    1    2    0    0 -0.30012904785E+02 -0.48176390653E+02 -0.38202649075E+01  0.56888781793E+02  0.00000000000E+00 0. -1.
         11    1    1    2    0    0 -0.20881739267E+02  0.25399954133E+02 -0.50952185908E+02  0.60640992353E+02  0.00000000000E+00 0.  1.
</event>
<event>
 7    1  0.2384639E-009  0.1243272E+03  0.7561462E-02  0.1236124E+00
          2   -1    0    0  501    0  0.00000000000E+00  0.00000000000E+00  0.92266183357E+03  0.92266183357E+03  0.00000000000E+00 0. -1.
         -2   -1    0    0    0  501 -0.00000000000E+00 -0.00000000000E+00 -0.23687135399E+02  0.23687135399E+02  0.00000000000E+00 0.  1.
         25    2    1    2    0    0 -0.29253651113E+02 -0.95373579855E+02  0.46019321632E+03  0.48721280953E+03  0.12508648845E+03 0.  0.
          5    1    3    3  502    0  0.21368516450E+02 -0.40348296974E+02  0.41390508567E+02  0.61767670859E+02  0.41800000000E+01 0.  1.
         -5    1    3    3    0  502 -0.50622167562E+02 -0.55025282881E+02  0.41880270775E+03  0.42544513868E+03  0.41800000000E+01 0.  1.
        -11    1    1    2    0    0  0.52493705753E+02  0.34641760652E+02  0.29038115138E+03  0.29711421003E+03  0.00000000000E+00 0.  1.
         11    1    1    2    0    0 -0.23240054640E+02  0.60731819203E+02  0.14840033047E+03  0.16202194940E+03  0.00000000000E+00 0. -1.
</event>
<event>
 7    1  0.2384639E-009  0.9800766E+02  0.7561462E-02  0.1284542E+00
          1   -1    0    0  501    0  0.00000000000E+00  0.00000000000E+00  0.73181486973E+03  0.73181486973E+03  0.00000000000E+00 0. -1.
         -1   -1    0    0    0  501 -0.00000000000E+00 -0.00000000000E+00 -0.17374982851E+02  0.17374982851E+02  0.00000000000E+00 0.  1.
         25    2    1    2    0    0 -0.15972408897E+02  0.76056696694E+01  0.51102497736E+03  0.52641229269E+03  0.12510160011E+03 0.  0.
          5    1    3    3  502    0 -0.40296396299E+02  0.51555416133E+02  0.17997493320E+03  0.19154688582E+03  0.41800000000E+01 0.  1.
         -5    1    3    3    0  502  0.24323987402E+02 -0.43949746463E+02  0.33105004416E+03  0.33486540687E+03  0.41800000000E+01 0.  1.
        -11    1    1    2    0    0 -0.19848957618E+02  0.24780718714E+02  0.33592698767E+02  0.46222662720E+02  0.00000000000E+00 0.  1.
         11    1    1    2    0    0  0.35821366515E+02 -0.32386388383E+02  0.16982221075E+03  0.17655489717E+03  0.00000000000E+00 0. -1.
</event>
<event>
 7    1  0.2384639E-009  0.1913812E+03  0.7561462E-02  0.1157221E+00
         -2   -1    0    0    0  501 -0.00000000000E+00  0.00000000000E+00  0.90291767010E+02  0.90291767010E+02  0.00000000000E+00 0.  1.
          2   -1    0    0  501    0  0.00000000000E+00 -0.00000000000E+00 -0.43600783112E+03  0.43600783112E+03  0.00000000000E+00 0. -1.
         25    2    1    2    0    0  0.13401518412E+03 -0.85174574727E+02 -0.12117054158E+03  0.23567666574E+03  0.12508562216E+03 0.  0.
          5    1    3    3  502    0 -0.56477943441E+01  0.23698835248E+02 -0.19102600734E+02  0.31239624323E+02  0.41800000000E+01 0.  1.
         -5    1    3    3    0  502  0.13966297846E+03 -0.10887340997E+03 -0.10206794085E+03  0.20443704141E+03  0.41800000000E+01 0.  1.
        -11    1    1    2    0    0  0.71902569724E+01  0.27423913102E+02 -0.17060707813E+02  0.33088344719E+02  0.00000000000E+00 0.  1.
         11    1    1    2    0    0 -0.14120544109E+03  0.57750661625E+02 -0.20748481472E+03  0.25753458768E+03  0.00000000000E+00 0. -1.
</event>
<event>
 7    1  0.2384639E-009  0.1050593E+03  0.7561462E-02  0.1270003E+00
         -2   -1    0    0    0  501 -0.00000000000E+00  0.00000000000E+00  0.66557811865E+02  0.66557811865E+02  0.00000000000E+00 0.  1.
          2   -1    0    0  501    0  0.00000000000E+00 -0.00000000000E+00 -0.23410335751E+03  0.23410335751E+03  0.00000000000E+00 0. -1.
         25    2    1    2    0    0  0.29188291610E+02 -0.48011562815E+02 -0.76885990720E+02  0.15721352600E+03  0.12509025005E+03 0.  0.
          5    1    3    3  502    0 -0.33709054829E+02  0.23151785097E+02 -0.14903444820E+02  0.43725171219E+02  0.41800000000E+01 0. -1.
         -5    1    3    3    0  502  0.62897346440E+02 -0.71163347912E+02 -0.61982545901E+02  0.11348835478E+03  0.41800000000E+01 0. -1.
        -11    1    1    2    0    0 -0.35019191639E+02  0.11335928814E+02  0.83147622433E+01  0.37735690484E+02  0.00000000000E+00 0.  1.
         11    1    1    2    0    0  0.58309000290E+01  0.36675634001E+02 -0.98974317166E+02  0.10571195289E+03  0.00000000000E+00 0. -1.
</event>
<event>
 7    1  0.2384639E-009  0.9315869E+02  0.7561462E-02  0.1295378E+00
          1   -1    0    0  501    0  0.00000000000E+00  0.00000000000E+00  0.27722683133E+03  0.27722683133E+03  0.00000000000E+00 0. -1.
         -1   -1    0    0    0  501 -0.00000000000E+00 -0.00000000000E+00 -0.49047680639E+02  0.49047680639E+02  0.00000000000E+00 0.  1.
         25    2    1    2    0    0 -0.31405480152E+02 -0.13749353083E+01  0.84760558554E+02  0.15433871316E+03  0.12509153233E+03 0.  0.
          5    1    3    3  502    0  0.23212081642E+02  0.21706809853E+02 -0.17154497190E+02  0.36355680464E+02  0.41800000000E+01 0. -1.
         -5    1    3    3    0  502 -0.54617561794E+02 -0.23081745161E+02  0.10191505574E+03  0.11798303269E+03  0.41800000000E+01 0. -1.
        -11    1    1    2    0    0  0.34741167173E+02  0.41747185429E+02  0.80915527597E+02  0.97453059439E+02  0.00000000000E+00 0.  1.
         11    1    1    2    0    0 -0.33356870214E+01 -0.40372250121E+02  0.62503064539E+02  0.74482739373E+02  0.00000000000E+00 0. -1.
</event>
<event>
 7    1  0.2384639E-009  0.1872159E+03  0.7561462E-02  0.1160997E+00
         -2   -1    0    0    0  501 -0.00000000000E+00  0.00000000000E+00  0.13519291496E+02  0.13519291496E+02  0.00000000000E+00 0.  1.
          2   -1    0    0  501    0  0.00000000000E+00 -0.00000000000E+00 -0.31634508857E+04  0.31634508857E+04  0.00000000000E+00 0. -1.
         25    2    1    2    0    0  0.14276079687E+03  0.55583646319E+02 -0.23071582125E+04  0.23156200106E+04  0.12508728614E+03 0.  0.
          5    1    3    3  502    0  0.10583271019E+03 -0.24907424911E+02 -0.12054861739E+04  0.12103864384E+04  0.41800000000E+01 0.  1.
         -5    1    3    3    0  502  0.36928086686E+02  0.80491071230E+02 -0.11016720386E+04  0.11052335722E+04  0.41800000000E+01 0.  1.
        -11    1    1    2    0    0 -0.11044883437E+03 -0.80078381924E+02 -0.60972750477E+03  0.62480326691E+03  0.00000000000E+00 0. -1.
         11    1    1    2    0    0 -0.32311962497E+02  0.24494735604E+02 -0.23304587693E+03  0.23654689967E+03  0.00000000000E+00 0.  1.
</event>
<event>
 7    1  0.2384639E-009  0.1117130E+03  0.7561462E-02  0.1257430E+00
         -2   -1    0    0    0  501 -0.00000000000E+00  0.00000000000E+00  0.15996241802E+03  0.15996241802E+03  0.00000000000E+00 0.  1.
          2   -1    0    0  501    0  0.00000000000E+00 -0.00000000000E+00 -0.11744212658E+03  0.11744212658E+03  0.00000000000E+00 0. -1.
         25    2    1    2    0    0 -0.25228713119E+02  0.79975491948E+02  0.13269394845E+02  0.15117446880E+03  0.12508027782E+03 0.  0.
          5    1    3    3  502    0  0.58254881506E+01  0.76850206260E+02  0.57946515073E+02  0.96515084435E+02  0.41800000000E+01 0. -1.
         -5    1    3    3    0  502 -0.31054201270E+02  0.31252856879E+01 -0.44677120228E+02  0.54659384364E+02  0.41800000000E+01 0. -1.
        -11    1    1    2    0    0 -0.25019712990E+02 -0.66969005926E+01 -0.11669701830E+02  0.28408035068E+02  0.00000000000E+00 0.  1.
         11    1    1    2    0    0  0.50248426109E+02 -0.73278591355E+02  0.40920598426E+02  0.97822040732E+02  0.00000000000E+00 0. -1.
</event>
<event>
 7    1  0.2384639E-009  0.3293654E+03  0.7561462E-02  0.1071418E+00
         -1   -1    0    0    0  501 -0.00000000000E+00  0.00000000000E+00  0.24134279696E+03  0.24134279696E+03  0.00000000000E+00 0.  1.
          1   -1    0    0  501    0  0.00000000000E+00 -0.00000000000E+00 -0.48634461453E+03  0.48634461453E+03  0.00000000000E+00 0. -1.
         25    2    1    2    0    0  0.30071633957E+03  0.10186526274E+03 -0.19550700952E+03  0.39328852211E+03  0.12508406059E+03 0.  0.
          5    1    3    3  502    0  0.95691217895E+02  0.96622930064E+02 -0.81718947408E+02  0.15870809230E+03  0.41800000000E+01 0. -1.
         -5    1    3    3    0  502  0.20502512168E+03  0.52423326786E+01 -0.11378806211E+03  0.23458042981E+03  0.41800000000E+01 0. -1.
        -11    1    1    2    0    0 -0.95879621140E+02 -0.35045376362E+02  0.27285297672E+02  0.10566724953E+03  0.00000000000E+00 0.  1.
         11    1    1    2    0    0 -0.20483671843E+03 -0.66819886380E+02 -0.76780105730E+02  0.22873163985E+03  0.00000000000E+00 0. -1.
</event>
<event>
 7    1  0.2384639E-009  0.1786800E+03  0.7561462E-02  0.1169087E+00
         -2   -1    0    0    0  501 -0.00000000000E+00  0.00000000000E+00  0.34801653912E+02  0.34801653912E+02  0.00000000000E+00 0.  1.
          2   -1    0    0  501    0  0.00000000000E+00 -0.00000000000E+00 -0.10761361834E+04  0.10761361834E+04  0.00000000000E+00 0. -1.
         25    2    1    2    0    0  0.87594101972E+02  0.13245513978E+03 -0.51053320037E+03  0.54909827783E+03  0.12509068423E+03 0.  0.
          5    1    3    3  502    0  0.29814860656E+02 -0.18153863824E+02 -0.50077258435E+02  0.61185724642E+02  0.41800000000E+01 0.  1.
         -5    1    3    3    0  502  0.57779241316E+02  0.15060900361E+03 -0.46045594194E+03  0.48791255319E+03  0.41800000000E+01 0.  1.
        -11    1    1    2    0    0 -0.17280019084E+01 -0.16295307372E+02 -0.58867704889E+01  0.17411981500E+02  0.00000000000E+00 0.  1.
         11    1    1    2    0    0 -0.85866100063E+02 -0.11615983241E+03 -0.52491455859E+03  0.54442757794E+03  0.00000000000E+00 0. -1.
</event>
<event>
 7    1  0.2384639E-009  0.1464563E+03  0.7561462E-02  0.1204896E+00
          1   -1    0    0  501    0  0.00000000000E+00  0.00000000000E+00  0.11710614316E+04  0.11710614316E+04  0.00000000000E+00 0. -1.
         -1   -1    0    0    0  501 -0.00000000000E+00 -0.00000000000E+00 -0.27399471281E+02  0.27399471281E+02  0.00000000000E+00 0.  1.
         25    2    1    2    0    0 -0.97802012252E+01 -0.13476544607E+03  0.77446761745E+03  0.79605580280E+03  0.12508945963E+03 0.  0.
          5    1    3    3  502    0  0.24850360179E+02 -0.16553078310E+02  0.34176265676E+02  0.45574492188E+02  0.41800000000E+01 0.  1.
         -5    1    3    3    0  502 -0.34630561404E+02 -0.11821236776E+03  0.74029135177E+03  0.75048131062E+03  0.41800000000E+01 0.  1.
        -11    1    1    2    0    0 -0.12549632081E+02  0.32556027124E+02  0.25707847585E+02  0.43339146218E+02  0.00000000000E+00 0.  1.
         11    1    1    2    0    0  0.22329833306E+02  0.10220941895E+03  0.34348649528E+03  0.35906595385E+03  0.00000000000E+00 0. -1.
</event>
<event>
 7    1  0.2384639E-009  0.6436015E+02  0.7561462E-02  0.1380395E+00
         -2   -1    0    0    0  501 -0.00000000000E+00  0.00000000000E+00  0.26078411994E+02  0.26078411994E+02  0.00000000000E+00 0.  1.
          2   -1    0    0  501    0  0.00000000000E+00 -0.00000000000E+00 -0.44867534804E+03  0.44867534804E+03  0.00000000000E+00 0. -1.
         25    2    1    2    0    0 -0.20661218232E+02  0.24987086566E+01 -0.23327628876E+03  0.26551600846E+03  0.12509114425E+03 0.  0.
          5    1    3    3  502    0 -0.29889073341E+02 -0.11215037955E+02 -0.24351103403E+03  0.24563027068E+03  0.41800000000E+01 0. -1.
         -5    1    3    3    0  502  0.92278551087E+01  0.13713746612E+02  0.10234745275E+02  0.19885737776E+02  0.41800000000E+01 0. -1.
        -11    1    1    2    0    0  0.17970265954E+02 -0.38964766107E+02 -0.53502009957E+02  0.68583150451E+02  0.00000000000E+00 0.  1.
         11    1    1    2    0    0  0.26909522774E+01  0.36466057451E+02 -0.13581863733E+03  0.14065460112E+03  0.00000000000E+00 0. -1.
</event>
<event>
 7    1  0.2384639E-009  0.1139384E+03  0.7561462E-02  0.1253446E+00
         -2   -1    0    0    0  501 -0.00000000000E+00  0.00000000000E+00  0.34820477515E+02  0.34820477515E+02  0.00000000000E+00 0.  1.
          2   -1    0    0  501    0  0.00000000000E+00 -0.00000000000E+00 -0.67238042601E+03  0.67238042601E+03  0.00000000000E+00 0. -1.
         25    2    1    2    0    0  0.99499371510E+02  0.10713401655E+02 -0.43876042270E+03  0.46708850538E+03  0.12508421732E+03 0.  0.
          5    1    3    3  502    0  0.36768947598E+02  0.41688562277E+02 -0.60000806832E+02  0.81899090060E+02  0.41800000000E+01 0.  1.
         -5    1    3    3    0  502  0.62730423912E+02 -0.30975160622E+02 -0.37875961587E+03  0.38518941532E+03  0.41800000000E+01 0.  1.
        -11    1    1    2    0    0 -0.91724505439E+01 -0.71845867745E+01  0.81921789455E+01  0.14243030997E+02  0.00000000000E+00 0.  1.
         11    1    1    2    0    0 -0.90326920966E+02 -0.35288148805E+01 -0.20699170473E+03  0.22586936714E+03  0.00000000000E+00 0. -1.
</event>
<event>
 7    1  0.2384639E-009  0.1166779E+03  0.7561462E-02  0.1248680E+00
         -1   -1    0    0    0  501 -0.00000000000E+00  0.00000000000E+00  0.11448432886E+03  0.11448432886E+03  0.00000000000E+00 0.  1.
          1   -1    0    0  501    0  0.00000000000E+00 -0.00000000000E+00 -0.14937588465E+03  0.14937588465E+03  0.00000000000E+00 0. -1.
         25    2    1    2    0    0 -0.64318891349E+02  0.51592043378E+01 -0.53534938763E+02  0.15058648932E+03  0.12508702540E+03 0.  0.
          5    1    3    3  502    0  0.28327151601E+02  0.38957194396E+01 -0.50024315387E+02  0.57771175146E+02  0.41800000000E+01 0. -1.
         -5    1    3    3    0  502 -0.92646042950E+02  0.12634848983E+01 -0.35106233763E+01  0.92815314172E+02  0.41800000000E+01 0. -1.
        -11    1    1    2    0    0  0.63657695126E+02 -0.41093241551E+02  0.13638768792E+02  0.76986834355E+02  0.00000000000E+00 0. -1.
         11    1    1    2    0    0  0.66119622310E+00  0.35934037213E+02  0.50046141905E+01  0.36286889838E+02  0.00000000000E+00 0.  1.
</event>
<event>
 7    1  0.2384639E-009  0.7029029E+02  0.7561462E-02  0.1359109E+00
          2   -1    0    0  501    0  0.00000000000E+00  0.00000000000E+00  0.13886029317E+04  0.13886029317E+04  0.00000000000E+00 0.  1.
         -2   -1    0    0    0  501 -0.00000000000E+00 -0.00000000000E+00 -0.11834268981E+02  0.11834268981E+02  0.00000000000E+00 0. -1.
         25    2    1    2    0    0  0.35360162478E+02  0.12660524815E+02  0.10631911362E+04  0.10711838241E+04  0.12509501619E+03 0.  0.
          5    1    3    3  502    0 -0.53020243882E+01 -0.19291580419E+02  0.27858698651E+02  0.34552221755E+02  0.41800000000E+01 0. -1.
         -5    1    3    3    0  502  0.40662186867E+02  0.31952105234E+02  0.10353324375E+04  0.10366316024E+04  0.41800000000E+01 0. -1.
        -11    1    1    2    0    0 -0.50342376563E+02 -0.16161721192E+02  0.30857893127E+03  0.31307589005E+03  0.00000000000E+00 0.  1.
         11    1    1    2    0    0  0.14982214085E+02  0.35011963767E+01  0.49985953018E+01  0.16177486515E+02  0.00000000000E+00 0. -1.
</event>
<event>
 7    1  0.2384639E-009  0.3427138E+03  0.7561462E-02  0.1065646E+00
         -2   -1    0    0    0  501 -0.00000000000E+00  0.00000000000E+00  0.67247478498E+02  0.67247478498E+02  0.00000000000E+00 0.  1.
          2   -1    0    0  501    0  0.00000000000E+00 -0.00000000000E+00 -0.17872427383E+04  0.17872427383E+04  0.00000000000E+00 0. -1.
         25    2    1    2    0    0 -0.32836576489E+03 -0.19919693980E+02 -0.90066630889E+03  0.96698919540E+03  0.12508970494E+03 0.  0.
          5    1    3    3  502    0 -0.33674424676E+03 -0.24331733490E+02 -0.89098255473E+03  0.95281483312E+03  0.41800000000E+01 0. -1.
         -5    1    3    3    0  502  0.83784818783E+01  0.44120395103E+01 -0.96837541643E+01  0.14174362276E+02  0.41800000000E+01 0. -1.
        -11    1    1    2    0    0  0.50429695803E+02 -0.24330707933E+02 -0.19065079328E+03  0.19870295052E+03  0.00000000000E+00 0.  1.
         11    1    1    2    0    0  0.27793606908E+03  0.44250401912E+02 -0.62867815761E+03  0.68879807086E+03  0.00000000000E+00 0. -1.
</event>
<event>
 7    1  0.2384639E-009  0.9009155E+02  0.7561462E-02  0.1302630E+00
         -2   -1    0    0    0  501 -0.00000000000E+00  0.00000000000E+00  0.42705466309E+02  0.42705466309E+02  0.00000000000E+00 0.  1.
          2   -1    0    0  501    0  0.00000000000E+00 -0.00000000000E+00 -0.29061643032E+03  0.29061643032E+03  0.00000000000E+00 0. -1.
         25    2    1    2    0    0  0.25689521497E+02  0.17618288274E+01 -0.15903437848E+03  0.20396646476E+03  0.12508928673E+03 0.  0.
          5    1    3    3  502    0  0.32084595113E+02  0.56577155714E+02 -0.11893193011E+03  0.13561958632E+03  0.41800000000E+01 0. -1.
         -5    1    3    3    0  502 -0.63950736161E+01 -0.54815326887E+02 -0.40102448368E+02  0.68346878446E+02  0.41800000000E+01 0. -1.
        -11    1    1    2    0    0  0.15442667114E+02 -0.90356451476E+01  0.11064390197E+02  0.21036624759E+02  0.00000000000E+00 0.  1.
         11    1    1    2    0    0 -0.41132188612E+02  0.72738163201E+01 -0.99940975726E+02  0.10831880711E+03  0.00000000000E+00 0. -1.
</event>
<event>
 7    1  0.2384639E-009  0.1396204E+03  0.7561462E-02  0.1213841E+00
          1   -1    0    0  501    0  0.00000000000E+00  0.00000000000E+00  0.85492086972E+03  0.85492086972E+03  0.00000000000E+00 0. -1.
         -1   -1    0    0    0  501 -0.00000000000E+00 -0.00000000000E+00 -0.26501962395E+02  0.26501962395E+02  0.00000000000E+00 0.  1.
         25    2    1    2    0    0 -0.74473447667E+02 -0.64743778432E+02  0.56336400780E+03  0.58546169340E+03  0.12509331678E+03 0.  0.
          5    1    3    3  502    0 -0.25121460446E+01  0.35373879657E+02  0.14079571682E+03  0.14525332532E+03  0.41800000000E+01 0. -1.
         -5    1    3    3    0  502 -0.71961301622E+02 -0.10011765809E+03  0.42256829098E+03  0.44020836809E+03  0.41800000000E+01 0. -1.
        -11    1    1    2    0    0  0.69912959446E+02  0.78825959861E+02  0.25963239510E+03  0.28019695650E+03  0.00000000000E+00 0.  1.
         11    1    1    2    0    0  0.45604882204E+01 -0.14082181429E+02  0.54225044226E+01  0.15764182212E+02  0.00000000000E+00 0. -1.
</event>
<event>
 7    1  0.2384639E-009  0.3466817E+03  0.7561462E-02  0.1063985E+00
          1   -1    0    0  501    0  0.00000000000E+00  0.00000000000E+00  0.18897293622E+03  0.18897293622E+03  0.00000000000E+00 0. -1.
         -1   -1    0    0    0  501 -0.00000000000E+00 -0.00000000000E+00 -0.80640912149E+03  0.80640912149E+03  0.00000000000E+00 0.  1.
         25    2    1    2    0    0  0.91355859162E+01  0.34140887894E+03 -0.11423487783E+03  0.38123610544E+03  0.12509148345E+03 0.  0.
          5    1    3    3  502    0  0.47733932904E+01  0.22134938863E+02 -0.50646681733E+02  0.55635416531E+02  0.41800000000E+01 0.  1.
         -5    1    3    3    0  502  0.43621926258E+01  0.31927394007E+03 -0.63588196093E+02  0.32560068891E+03  0.41800000000E+01 0.  1.
        -11    1    1    2    0    0  0.34756660382E+02 -0.19810998524E+03 -0.26435957436E+03  0.33217702547E+03  0.00000000000E+00 0. -1.
         11    1    1    2    0    0 -0.43892246298E+02 -0.14329889369E+03 -0.23884173308E+03  0.28196892680E+03  0.00000000000E+00 0.  1.
</event>
<event>
 7    1  0.2384639E-009  0.1194786E+03  0.7561462E-02  0.1243960E+00
          4   -1    0    0  501    0  0.00000000000E+00  0.00000000000E+00  0.13293577998E+03  0.13293577998E+03  0.00000000000E+00 0. -1.
         -4   -1    0    0    0  501 -0.00000000000E+00 -0.00000000000E+00 -0.12643291469E+03  0.12643291469E+03  0.00000000000E+00 0.  1.
         25    2    1    2    0    0  0.61076496514E+02 -0.36163768510E+02 -0.72997188694E+01  0.14401147532E+03  0.12509141677E+03 0.  0.
          5    1    3    3  502    0 -0.18713479481E+00  0.40243410450E+02  0.15573260991E+02  0.43353961318E+02  0.41800000000E+01 0.  1.
         -5    1    3    3    0  502  0.61263631309E+02 -0.76407178959E+02 -0.22872979861E+02  0.10065751400E+03  0.41800000000E+01 0.  1.
        -11    1    1    2    0    0 -0.52253839723E+02  0.57312372510E+02 -0.14541277018E+02  0.78908938314E+02  0.00000000000E+00 0.  1.
         11    1    1    2    0    0 -0.88226567913E+01 -0.21148604001E+02  0.28343861175E+02  0.36448281034E+02  0.00000000000E+00 0. -1.
</event>
<event>
 7    1  0.2384639E-009  0.1171850E+03  0.7561462E-02  0.1247815E+00
          1   -1    0    0  501    0  0.00000000000E+00  0.00000000000E+00  0.41293274097E+02  0.41293274097E+02  0.00000000000E+00 0. -1.
         -1   -1    0    0    0  501 -0.00000000000E+00 -0.00000000000E+00 -0.41444104781E+03  0.41444104781E+03  0.00000000000E+00 0.  1.
         25    2    1    2    0    0 -0.62901007387E+02 -0.60377001373E+01 -0.14357523334E+03  0.20063463970E+03  0.12508964972E+03 0.  0.
          5    1    3    3  502    0 -0.33530673649E+02  0.49859890458E+02 -0.23021295158E+02  0.64480750481E+02  0.41800000000E+01 0.  1.
         -5    1    3    3    0  502 -0.29370333738E+02 -0.55897590595E+02 -0.12055393819E+03  0.13615388922E+03  0.41800000000E+01 0.  1.
        -11    1    1    2    0    0  0.30506466599E+02 -0.42613259519E+02 -0.11900936957E+03  0.13003755010E+03  0.00000000000E+00 0.  1.
         11    1    1    2    0    0  0.32394540788E+02  0.48650959656E+02 -0.11056317080E+03  0.12506213210E+03  0.00000000000E+00 0. -1.
</event>
<event>
 7    1  0.2500575E-009  0.1552861E+03  0.7561462E-02  0.1194124E+00
         -1   -1    0    0    0  501 -0.00000000000E+00  0.00000000000E+00  0.56775955817E+02  0.56775955817E+02  0.00000000000E+00 0.  1.
          1   -1    0    0  501    0  0.00000000000E+00 -0.00000000000E+00 -0.50146338235E+03  0.50146338235E+03  0.00000000000E+00 0. -1.
         25    2    1    2    0    0  0.11275118517E+03  0.54543170944E+01 -0.13345347749E+03  0.21494271837E+03  0.12509181506E+03 0.  0.
          5    1    3    3  502    0 -0.18299556994E+02 -0.25231207986E+02 -0.12183818580E+02  0.33725442589E+02  0.41800000000E+01 0.  1.
         -5    1    3    3    0  502  0.13105074217E+03  0.30685525081E+02 -0.12126965891E+03  0.18121727579E+03  0.41800000000E+01 0.  1.
        -11    1    1    2    0    0 -0.42924869165E+02  0.41987710297E+02 -0.14209157261E+03  0.15425798914E+03  0.00000000000E+00 0.  1.
         11    1    1    2    0    0 -0.69826316006E+02 -0.47442027392E+02 -0.16914237644E+03  0.18903863064E+03  0.00000000000E+00 0. -1.
</event>
<event>
 7    1  0.2384639E-009  0.1980337E+03  0.7561462E-02  0.1151409E+00
         -2   -1    0    0    0  501 -0.00000000000E+00  0.00000000000E+00  0.12170355615E+03  0.12170355615E+03  0.00000000000E+00 0.  1.
          2   -1    0    0  501    0  0.00000000000E+00 -0.00000000000E+00 -0.33984956998E+03  0.33984956998E+03  0.00000000000E+00 0. -1.
         25    2    1    2    0    0  0.55185957818E+02 -0.15777094429E+03 -0.70566682151E+02  0.22036577058E+03  0.12507699792E+03 0.  0.
          5    1    3    3  502    0  0.85338451603E+02 -0.55100214435E+02 -0.35225323486E+02  0.10759637897E+03  0.41800000000E+01 0. -1.
         -5    1    3    3    0  502 -0.30152493786E+02 -0.10267072986E+03 -0.35341358666E+02  0.11276939161E+03  0.41800000000E+01 0. -1.
        -11    1    1    2    0    0  0.22890144332E+02  0.35820055702E+02 -0.54219853105E+02  0.68897224681E+02  0.00000000000E+00 0. -1.
         11    1    1    2    0    0 -0.78076102150E+02  0.12195088859E+03 -0.93359478572E+02  0.17229013087E+03  0.00000000000E+00 0.  1.
</event>
<event>
 7    1  0.2384639E-009  0.1045238E+03  0.7561462E-02  0.1271061E+00
         -2   -1    0    0    0  501 -0.00000000000E+00  0.00000000000E+00  0.60685022771E+02  0.60685022771E+02  0.00000000000E+00 0. -1.
          2   -1    0    0  501    0  0.00000000000E+00 -0.00000000000E+00 -0.29146883841E+03  0.29146883841E+03  0.00000000000E+00 0.  1.
         25    2    1    2    0    0  0.16723805577E+02 -0.37686039569E+01 -0.22747744077E+03  0.26016709112E+03  0.12508813370E+03 0.  0.
          5    1    3    3  502    0  0.48701414841E+02  0.40514055001E+02 -0.75657752584E+02  0.98766312001E+02  0.41800000000E+01 0. -1.
         -5    1    3    3    0  502 -0.31977609263E+02 -0.44282658958E+02 -0.15181968819E+03  0.16140077912E+03  0.41800000000E+01 0. -1.
        -11    1    1    2    0    0  0.34783854477E+02 -0.12185583547E+02 -0.84727924258E+01  0.37817895105E+02  0.00000000000E+00 0.  1.
         11    1    1    2    0    0 -0.51507660054E+02  0.15954187504E+02  0.51664175634E+01  0.54168874952E+02  0.00000000000E+00 0. -1.
</event>
<event>
 7    1  0.2384639E-009  0.2738360E+03  0.7561462E-02  0.1099104E+00
          2   -1    0    0  501    0  0.00000000000E+00  0.00000000000E+00  0.31048807621E+03  0.31048807621E+03  0.00000000000E+00 0. -1.
         -2   -1    0    0    0  501 -0.00000000000E+00 -0.00000000000E+00 -0.30835613038E+03  0.30835613038E+03  0.00000000000E+00 0.  1.
         25    2    1    2    0    0  0.12278621266E+03  0.23928850415E+03 -0.10560294779E+03  0.31485314800E+03  0.12508029414E+03 0.  0.
          5    1    3    3  502    0 -0.90376987083E+01  0.26575524844E+02  0.20099550573E+02  0.34776469802E+02  0.41800000000E+01 0.  1.
         -5    1    3    3    0  502  0.13182391137E+03  0.21271297931E+03 -0.12570249836E+03  0.28007667819E+03  0.41800000000E+01 0.  1.
        -11    1    1    2    0    0 -0.10791926433E+03 -0.20619851417E+03  0.53599216315E+02  0.23882477018E+03  0.00000000000E+00 0.  1.
         11    1    1    2    0    0 -0.14866948332E+02 -0.33089989978E+02  0.54135677297E+02  0.65166288415E+02  0.00000000000E+00 0. -1.
</event>
<event>
 7    1  0.2384639E-009  0.1122543E+03  0.7561462E-02  0.1256451E+00
         -2   -1    0    0    0  501 -0.00000000000E+00  0.00000000000E+00  0.12327485099E+03  0.12327485099E+03  0.00000000000E+00 0.  1.
          2   -1    0    0  501    0  0.00000000000E+00 -0.00000000000E+00 -0.16425131667E+03  0.16425131667E+03  0.00000000000E+00 0. -1.
         25    2    1    2    0    0 -0.27984345472E+02  0.44409840248E+02 -0.96859535072E+02  0.16668808656E+03  0.12509113144E+03 0.  0.
          5    1    3    3  502    0  0.25045351429E+02  0.71390451700E+02 -0.49244248464E+02  0.90367774283E+02  0.41800000000E+01 0. -1.
         -5    1    3    3    0  502 -0.53029696901E+02 -0.26980611452E+02 -0.47615286608E+02  0.76320312280E+02  0.41800000000E+01 0. -1.
        -11    1    1    2    0    0 -0.12431327665E+02 -0.46977394415E+02 -0.37666903790E+01  0.48740142079E+02  0.00000000000E+00 0. -1.
         11    1    1    2    0    0  0.40415673136E+02  0.25675541661E+01  0.59649759773E+02  0.72097939016E+02  0.00000000000E+00 0.  1.
</event>
<event>
 7    1  0.2384639E-009  0.1087612E+03  0.7561462E-02  0.1262881E+00
         -1   -1    0    0    0  501 -0.00000000000E+00  0.00000000000E+00  0.30890232547E+02  0.30890232547E+02  0.00000000000E+00 0.  1.
          1   -1    0    0  501    0  0.00000000000E+00 -0.00000000000E+00 -0.40597710350E+03  0.40597710350E+03  0.00000000000E+00 0. -1.
         25    2    1    2    0    0  0.48885522556E+01 -0.18657683907E+02 -0.19126392271E+03  0.22934632667E+03  0.12508334148E+03 0.  0.
          5    1    3    3  502    0  0.12126456667E+02 -0.71706332038E+02 -0.10840309994E+03  0.13060456915E+03  0.41800000000E+01 0. -1.
         -5    1    3    3    0  502 -0.72379044111E+01  0.53048648131E+02 -0.82860822766E+02  0.98741757520E+02  0.41800000000E+01 0. -1.
        -11    1    1    2    0    0 -0.15810150108E+02  0.52806272295E+02 -0.75941279447E+02  0.93837845053E+02  0.00000000000E+00 0.  1.
         11    1    1    2    0    0  0.10921597853E+02 -0.34148588388E+02 -0.10788166880E+03  0.11368316432E+03  0.00000000000E+00 0. -1.
</event>
<event>
 7    1  0.2384639E-009  0.2020978E+03  0.7561462E-02  0.1147981E+00
          2   -1    0    0  501    0  0.00000000000E+00  0.00000000000E+00  0.10585207973E+04  0.10585207973E+04  0.00000000000E+00 0.  1.
         -2   -1    0    0    0  501 -0.00000000000E+00 -0.00000000000E+00 -0.44264637924E+02  0.44264637924E+02  0.00000000000E+00 0. -1.
         25    2    1    2    0    0  0.11200043114E+03 -0.15024111133E+03  0.56028696151E+03  0.60389601499E+03  0.12510967019E+03 0.  0.
          5    1    3    3  502    0  0.96848731872E+02 -0.15370663071E+03  0.36292256467E+03  0.40587641658E+03  0.41800000000E+01 0.  1.
         -5    1    3    3    0  502  0.15151699270E+02  0.34655193766E+01  0.19736439684E+03  0.19801959841E+03  0.41800000000E+01 0.  1.
        -11    1    1    2    0    0 -0.11654747841E+03  0.93397850952E+02  0.34369041721E+03  0.37473934430E+03  0.00000000000E+00 0.  1.
         11    1    1    2    0    0  0.45470472683E+01  0.56843260381E+02  0.11027878064E+03  0.12415007591E+03  0.00000000000E+00 0. -1.
</event>
<event>
 7    1  0.2478232E-009  0.9078953E+02  0.7561462E-02  0.1300951E+00
         -2   -1    0    0    0  501 -0.00000000000E+00  0.00000000000E+00  0.48017341662E+02  0.48017341662E+02  0.00000000000E+00 0. -1.
          2   -1    0    0  501    0  0.00000000000E+00 -0.00000000000E+00 -0.35681762609E+03  0.35681762609E+03  0.00000000000E+00 0.  1.
         25    2    1    2    0    0 -0.13575149133E+02 -0.18655495653E+02 -0.63907921659E+02  0.14235287117E+03  0.12509118789E+03 0.  0.
          5    1    3    3  502    0 -0.36328891325E+02  0.28070813111E+02  0.14380439942E+02  0.48291079369E+02  0.41800000000E+01 0.  1.
         -5    1    3    3    0  502  0.22753742193E+02 -0.46726308764E+02 -0.78288361601E+02  0.94061791800E+02  0.41800000000E+01 0.  1.
        -11    1    1    2    0    0  0.45548962687E+02 -0.14451772437E+01 -0.19296316313E+03  0.19827147769E+03  0.00000000000E+00 0.  1.
         11    1    1    2    0    0 -0.31973813554E+02  0.20100672897E+02 -0.51929199645E+02  0.64210618903E+02  0.00000000000E+00 0. -1.
</event>
<event>
 7    1  0.2384639E-009  0.8267797E+02  0.7561462E-02  0.1321619E+00
          3   -1    0    0  501    0  0.00000000000E+00  0.00000000000E+00  0.39992554265E+03  0.39992554265E+03  0.00000000000E+00 0. -1.
         -3   -1    0    0    0  501 -0.00000000000E+00 -0.00000000000E+00 -0.39267016290E+02  0.39267016290E+02  0.00000000000E+00 0.  1.
         25    2    1    2    0    0  0.50763340750E+02  0.12949373753E+01  0.28228719453E+03  0.31290932951E+03  0.12509034604E+03 0.  0.
          5    1    3    3  502    0  0.14116314677E+02  0.41204082380E+02  0.25942715055E+02  0.50867903527E+02  0.41800000000E+01 0. -1.
         -5    1    3    3    0  502  0.36647026073E+02 -0.39909145005E+02  0.25634447947E+03  0.26204142598E+03  0.41800000000E+01 0. -1.
        -11    1    1    2    0    0 -0.32339488905E+02 -0.22326037008E+02 -0.38043438751E+01  0.39481229761E+02  0.00000000000E+00 0.  1.
         11    1    1    2    0    0 -0.18423851845E+02  0.21031099633E+02  0.82175675703E+02  0.86801999665E+02  0.00000000000E+00 0. -1.
</event>
<event>
 7    1  0.2384639E-009  0.1003434E+03  0.7561462E-02  0.1279575E+00
         -2   -1    0    0    0  501 -0.00000000000E+00  0.00000000000E+00  0.56026983421E+02  0.56026983421E+02  0.00000000000E+00 0. -1.
          2   -1    0    0  501    0  0.00000000000E+00 -0.00000000000E+00 -0.20290084557E+03  0.20290084557E+03  0.00000000000E+00 0.  1.
         25    2    1    2    0    0 -0.18438696385E+02 -0.10218630336E+02 -0.70397675580E+02  0.14508227740E+03  0.12509447853E+03 0.  0.
          5    1    3    3  502    0 -0.55577569161E+02  0.28459632740E+02 -0.86182615593E+01  0.63170908826E+02  0.41800000000E+01 0.  1.
         -5    1    3    3    0  502  0.37138872775E+02 -0.38678263077E+02 -0.61779414021E+02  0.81911368579E+02  0.41800000000E+01 0.  1.
        -11    1    1    2    0    0 -0.21866375924E+02 -0.23261405488E+02 -0.28033893458E+02  0.42486828121E+02  0.00000000000E+00 0. -1.
         11    1    1    2    0    0  0.40305072309E+02  0.33480035825E+02 -0.48442293108E+02  0.71358723463E+02  0.00000000000E+00 0.  1.
</event>
<event>
 7    1  0.2384639E-009  0.8086730E+02  0.7561462E-02  0.1326608E+00
         -1   -1    0    0    0  501 -0.00000000000E+00  0.00000000000E+00  0.64692789670E+03  0.64692789670E+03  0.00000000000E+00 0.  1.
          1   -1    0    0  501    0  0.00000000000E+00 -0.00000000000E+00 -0.18358492653E+02  0.18358492653E+02  0.00000000000E+00 0. -1.
         25    2    1    2    0    0  0.11475413980E+02 -0.84619851276E+01  0.37054916776E+03  0.39135258779E+03  0.12508745713E+03 0.  0.
          5    1    3    3  502    0  0.21225271292E+01  0.31572187318E+02  0.33593205438E+03  0.33744499655E+03  0.41800000000E+01 0. -1.
         -5    1    3    3    0  502  0.93528868507E+01 -0.40034172446E+02  0.34617113374E+02  0.53907591249E+02  0.41800000000E+01 0. -1.
        -11    1    1    2    0    0 -0.29775899781E+02  0.41290750265E+02  0.18407736992E+03  0.19098693249E+03  0.00000000000E+00 0.  1.
         11    1    1    2    0    0  0.18300485801E+02 -0.32828765137E+02  0.73942866371E+02  0.82946869068E+02  0.00000000000E+00 0. -1.
</event>
<event>
 7    1  0.2384639E-009  0.1987406E+03  0.7561462E-02  0.1150806E+00
          2   -1    0    0  501    0  0.00000000000E+00  0.00000000000E+00  0.59849997538E+02  0.59849997538E+02  0.00000000000E+00 0. -1.
         -2   -1    0    0    0  501 -0.00000000000E+00 -0.00000000000E+00 -0.99704742040E+03  0.99704742040E+03  0.00000000000E+00 0.  1.
         25    2    1    2    0    0  0.16095447290E+03 -0.51603521061E+02 -0.78435061009E+03  0.81204645948E+03  0.12507720443E+03 0.  0.
          5    1    3    3  502    0  0.17315019558E+03 -0.18260048410E+02 -0.63199001623E+03  0.65554807041E+03  0.41800000000E+01 0. -1.
         -5    1    3    3    0  502 -0.12195722688E+02 -0.33343472652E+02 -0.15236059386E+03  0.15649838907E+03  0.41800000000E+01 0. -1.
        -11    1    1    2    0    0 -0.62352369170E+02  0.62604083306E+02 -0.96136471376E+02  0.13057300761E+03  0.00000000000E+00 0. -1.
         11    1    1    2    0    0 -0.98602103725E+02 -0.11000562245E+02 -0.56710341389E+02  0.11427795084E+03  0.00000000000E+00 0.  1.
</event>
<event>
 7    1  0.2384639E-009  0.1461123E+03  0.7561462E-02  0.1205333E+00
          1   -1    0    0  501    0  0.00000000000E+00  0.00000000000E+00  0.12512609111E+03  0.12512609111E+03  0.00000000000E+00 0. -1.
         -1   -1    0    0    0  501 -0.00000000000E+00 -0.00000000000E+00 -0.19114275642E+03  0.19114275642E+03  0.00000000000E+00 0.  1.
         25    2    1    2    0    0  0.64793643319E+02  0.71571805092E+02 -0.86656839324E+02  0.18021667719E+03  0.12509158020E+03 0.  0.
          5    1    3    3  502    0  0.71654217927E+01  0.95114149340E+02 -0.56201136266E+02  0.11078846868E+03  0.41800000000E+01 0. -1.
         -5    1    3    3    0  502  0.57628221526E+02 -0.23542344248E+02 -0.30455703058E+02  0.69428208516E+02  0.41800000000E+01 0. -1.
        -11    1    1    2    0    0 -0.25649319106E+02 -0.88180871259E+02  0.11431136108E+02  0.92544175934E+02  0.00000000000E+00 0. -1.
         11    1    1    2    0    0 -0.39144324213E+02  0.16609066166E+02  0.92090379068E+01  0.43507994394E+02  0.00000000000E+00 0.  1.
</event>
<event>
 7    1  0.2384639E-009  0.9125179E+02  0.7561462E-02  0.1299848E+00
         -1   -1    0    0    0  501 -0.00000000000E+00  0.00000000000E+00  0.53664984668E+02  0.53664984668E+02  0.00000000000E+00 0.  1.
          1   -1    0    0  501    0  0.00000000000E+00 -0.00000000000E+00 -0.35009151770E+03  0.35009151770E+03  0.00000000000E+00 0. -1.
         25    2    1    2    0    0  0.70735826601E+02  0.19150260066E+02 -0.10108780281E+03  0.17674001661E+03  0.12509196605E+03 0.  0.
          5    1    3    3  502    0  0.14683222616E+02 -0.67447775365E+01 -0.11256739068E+03  0.11379797404E+03  0.41800000000E+01 0.  1.
         -5    1    3    3    0  502  0.56052603985E+02  0.25895037603E+02  0.11479587872E+02  0.62942042576E+02  0.41800000000E+01 0.  1.
        -11    1    1    2    0    0 -0.70602734374E+02  0.12988940059E+02 -0.17456033213E+03  0.18874524687E+03  0.00000000000E+00 0. -1.
         11    1    1    2    0    0 -0.13309222746E+00 -0.32139200125E+02 -0.20778398101E+02  0.38271238886E+02  0.00000000000E+00 0.  1.
</event>
<event>
 7    1  0.2384639E-009  0.1086922E+03  0.7561462E-02  0.1263011E+00
         -4   -1    0    0    0  501 -0.00000000000E+00  0.00000000000E+00  0.10742977384E+03  0.10742977384E+03  0.00000000000E+00 0.  1.
          4   -1    0    0  501    0  0.00000000000E+00 -0.00000000000E+00 -0.14474961819E+03  0.14474961819E+03  0.00000000000E+00 0. -1.
         25    2    1    2    0    0  0.46571894509E+01 -0.50034381360E+02  0.11809553998E+02  0.13532223361E+03  0.12509001803E+03 0.  0.
          5    1    3    3  502    0 -0.22793718614E+02  0.23726660917E+02 -0.31201150771E+02  0.45535615248E+02  0.41800000000E+01 0.  1.
         -5    1    3    3    0  502  0.27450908065E+02 -0.73761042277E+02  0.43010704769E+02  0.89786618357E+02  0.41800000000E+01 0.  1.
        -11    1    1    2    0    0  0.82015942355E+01 -0.26529225111E+02 -0.74940510735E+01  0.28761549584E+02  0.00000000000E+00 0. -1.
         11    1    1    2    0    0 -0.12858783686E+02  0.76563606471E+02 -0.41635347271E+02  0.88095608836E+02  0.00000000000E+00 0.  1.
</event>
<event>
 7    1  0.2384639E-009  0.9572974E+02  0.7561462E-02  0.1289541E+00
          1   -1    0    0  501    0  0.00000000000E+00  0.00000000000E+00  0.13652448736E+03  0.13652448736E+03  0.00000000000E+00 0. -1.
         -1   -1    0    0    0  501 -0.00000000000E+00 -0.00000000000E+00 -0.14216671682E+03  0.14216671682E+03  0.00000000000E+00 0.  1.
         25    2    1    2    0    0  0.17793376830E+02  0.85894194447E+02 -0.37766443505E+01  0.15282676621E+03  0.12508933019E+03 0.  0.
          5    1    3    3  502    0 -0.17819466400E+01  0.46315741292E+02 -0.63318626013E+02  0.78581448354E+02  0.41800000000E+01 0. -1.
         -5    1    3    3    0  502  0.19575323470E+02  0.39578453155E+02  0.59541981662E+02  0.74245317855E+02  0.41800000000E+01 0. -1.
        -11    1    1    2    0    0  0.16844923962E+02 -0.36943506632E+02 -0.38201039003E+02  0.55748484522E+02  0.00000000000E+00 0.  1.
         11    1    1    2    0    0 -0.34638300792E+02 -0.48950687815E+02  0.36335453889E+02  0.70115953453E+02  0.00000000000E+00 0. -1.
</event>
<event>
 7    1  0.2384639E-009  0.8644183E+02  0.7561462E-02  0.1311704E+00
         -2   -1    0    0    0  501 -0.00000000000E+00  0.00000000000E+00  0.81043382758E+02  0.81043382758E+02  0.00000000000E+00 0.  1.
          2   -1    0    0  501    0  0.00000000000E+00 -0.00000000000E+00 -0.16791204568E+03  0.16791204568E+03  0.00000000000E+00 0. -1.
         25    2    1    2    0    0 -0.35607996576E+02  0.75387797948E+01 -0.17618554652E+02  0.13146029988E+03  0.12508650749E+03 0.  0.
          5    1    3    3  502    0 -0.44667655695E+02 -0.20355654392E+02 -0.61323296738E+02  0.78661116530E+02  0.41800000000E+01 0.  1.
         -5    1    3    3    0  502  0.90596591187E+01  0.27894434187E+02  0.43704742086E+02  0.52799183353E+02  0.41800000000E+01 0.  1.
        -11    1    1    2    0    0  0.63052503562E+02 -0.16406528692E+02 -0.55300324159E+02  0.85457113462E+02  0.00000000000E+00 0.  1.
         11    1    1    2    0    0 -0.27444506986E+02  0.88677488972E+01 -0.13949784107E+02  0.32038015089E+02  0.00000000000E+00 0. -1.
</event>
<event>
 7    1  0.2384639E-009  0.7607618E+02  0.7561462E-02  0.1340570E+00
          3   -1    0    0  501    0  0.00000000000E+00  0.00000000000E+00  0.27178372770E+03  0.27178372770E+03  0.00000000000E+00 0. -1.
         -3   -1    0    0    0  501 -0.00000000000E+00 -0.00000000000E+00 -0.52807240024E+02  0.52807240024E+02  0.00000000000E+00 0.  1.
         25    2    1    2    0    0  0.47568554051E+02  0.18257688849E+02  0.12171080838E+03  0.18181719063E+03  0.12509140416E+03 0.  0.
          5    1    3    3  502    0  0.18677759342E+02 -0.11678258999E+02  0.13584283422E+03  0.13768074824E+03  0.41800000000E+01 0. -1.
         -5    1    3    3    0  502  0.28890794709E+02  0.29935947849E+02 -0.14132025837E+02  0.44136442389E+02  0.41800000000E+01 0. -1.
        -11    1    1    2    0    0 -0.49943059936E+02  0.16866286167E+02  0.17430259711E+02  0.55521120291E+02  0.00000000000E+00 0.  1.
         11    1    1    2    0    0  0.23745058849E+01 -0.35123975017E+02  0.79835419587E+02  0.87252656806E+02  0.00000000000E+00 0. -1.
</event>
<event>
 7    1  0.2384639E-009  0.2455126E+03  0.7561462E-02  0.1116174E+00
          1   -1    0    0  501    0  0.00000000000E+00  0.00000000000E+00  0.92266385400E+03  0.92266385400E+03  0.00000000000E+00 0. -1.
         -1   -1    0    0    0  501 -0.00000000000E+00 -0.00000000000E+00 -0.79041551261E+02  0.79041551261E+02  0.00000000000E+00 0.  1.
         25    2    1    2    0    0  0.14943854960E+03 -0.18575429919E+03  0.58022237621E+03  0.63964215260E+03  0.12509011851E+03 0.  0.
          5    1    3    3  502    0  0.76240706381E+02 -0.40948853468E+02  0.97856628904E+02  0.13070136239E+03  0.41800000000E+01 0.  1.
         -5    1    3    3    0  502  0.73197843224E+02 -0.14480544572E+03  0.48236574731E+03  0.50894079021E+03  0.41800000000E+01 0.  1.
        -11    1    1    2    0    0 -0.71879091275E+02  0.12232678426E+03  0.11317171201E+03  0.18148906939E+03  0.00000000000E+00 0.  1.
         11    1    1    2    0    0 -0.77559458330E+02  0.63427514931E+02  0.15022821451E+03  0.18057418327E+03  0.00000000000E+00 0. -1.
</event>
<event>
 7    1  0.2384639E-009  0.1173965E+03  0.7561462E-02  0.1247455E+00
         -1   -1    0    0    0  501 -0.00000000000E+00  0.00000000000E+00  0.44447282861E+02  0.44447282861E+02  0.00000000000E+00 0.  1.
          1   -1    0    0  501    0  0.00000000000E+00 -0.00000000000E+00 -0.41504646705E+03  0.41504646705E+03  0.00000000000E+00 0. -1.
         25    2    1    2    0    0 -0.47267954539E+02  0.34615827153E+02 -0.10419432688E+03  0.17302266727E+03  0.12509144903E+03 0.  0.
          5    1    3    3  502    0  0.25224582664E+02  0.55440169617E+02 -0.59503357830E+02  0.85252647881E+02  0.41800000000E+01 0.  1.
         -5    1    3    3    0  502 -0.72492537202E+02 -0.20824342464E+02 -0.44690969048E+02  0.87770019389E+02  0.41800000000E+01 0.  1.
        -11    1    1    2    0    0  0.69507833988E+02 -0.23792329983E+02 -0.23658016213E+03  0.24772482126E+03  0.00000000000E+00 0. -1.
         11    1    1    2    0    0 -0.22239879449E+02 -0.10823497169E+02 -0.29824695182E+02  0.38746261388E+02  0.00000000000E+00 0.  1.
</event>
<event>
 7    1  0.2384639E-009  0.1221748E+03  0.7561462E-02  0.1239552E+00
         -1   -1    0    0    0  501 -0.00000000000E+00  0.00000000000E+00  0.27510685930E+02  0.27510685930E+02  0.00000000000E+00 0.  1.
          1   -1    0    0  501    0  0.00000000000E+00 -0.00000000000E+00 -0.59371721017E+03  0.59371721017E+03  0.00000000000E+00 0. -1.
         25    2    1    2    0    0 -0.63720471390E+02  0.18435685148E+02 -0.36877133547E+03  0.39502113420E+03  0.12509686502E+03 0.  0.
          5    1    3    3  502    0 -0.60843608277E+02 -0.44812099948E+02 -0.23658551144E+03  0.24839534133E+03  0.41800000000E+01 0.  1.
         -5    1    3    3    0  502 -0.28768631130E+01  0.63247785096E+02 -0.13218582403E+03  0.14662579287E+03  0.41800000000E+01 0.  1.
        -11    1    1    2    0    0  0.56825045881E+02  0.24391971232E+02 -0.14822022185E+03  0.16060288997E+03  0.00000000000E+00 0.  1.
         11    1    1    2    0    0  0.68954255092E+01 -0.42827656380E+02 -0.49214966920E+02  0.65603871935E+02  0.00000000000E+00 0. -1.
</event>
<event>
 7    1  0.2384639E-009  0.1187243E+03  0.7561462E-02  0.1245217E+00
         -2   -1    0    0    0  501 -0.00000000000E+00  0.00000000000E+00  0.30950079480E+02  0.30950079480E+02  0.00000000000E+00 0.  1.
          2   -1    0    0  501    0  0.00000000000E+00 -0.00000000000E+00 -0.46742159347E+03  0.46742159347E+03  0.00000000000E+00 0. -1.
         25    2    1    2    0    0 -0.44079766850E+02 -0.18443064518E+02 -0.27382940181E+03  0.30481658502E+03  0.12508971473E+03 0.  0.
          5    1    3    3  502    0 -0.87082707208E+02 -0.20038344749E+02 -0.20296376173E+03  0.22180327799E+03  0.41800000000E+01 0.  1.
         -5    1    3    3    0  502  0.43002940357E+02  0.15952802303E+01 -0.70865640086E+02  0.83013307024E+02  0.41800000000E+01 0.  1.
        -11    1    1    2    0    0 -0.19086942187E+02  0.34637000101E+02 -0.56026702969E+02  0.68578601500E+02  0.00000000000E+00 0. -1.
         11    1    1    2    0    0  0.63166709038E+02 -0.16193935583E+02 -0.10661540921E+03  0.12497648644E+03  0.00000000000E+00 0.  1.
</event>
<event>
 7    1  0.2384639E-009  0.2459957E+03  0.7561462E-02  0.1115862E+00
          2   -1    0    0  501    0  0.00000000000E+00  0.00000000000E+00  0.19400707502E+04  0.19400707502E+04  0.00000000000E+00 0. -1.
         -2   -1    0    0    0  501 -0.00000000000E+00 -0.00000000000E+00 -0.32300826132E+02  0.32300826132E+02  0.00000000000E+00 0.  1.
         25    2    1    2    0    0  0.82801713279E+02  0.20671899610E+03  0.11055560542E+04  0.11346763070E+04  0.12508903095E+03 0.  0.
          5    1    3    3  502    0  0.64881038072E+02  0.22157120169E+03  0.97278052660E+03  0.99981136814E+03  0.41800000000E+01 0. -1.
         -5    1    3    3    0  502  0.17920675207E+02 -0.14852205593E+02  0.13277552762E+03  0.13486493890E+03  0.41800000000E+01 0. -1.
        -11    1    1    2    0    0  0.15350413423E+02 -0.51878984001E+02  0.12717049687E+03  0.13820057687E+03  0.00000000000E+00 0.  1.
         11    1    1    2    0    0 -0.98152126702E+02 -0.15484001210E+03  0.67504337295E+03  0.69949469239E+03  0.00000000000E+00 0. -1.
</event>
<event>
 7    1  0.2384639E-009  0.1490005E+03  0.7561462E-02  0.1201707E+00
         -1   -1    0    0    0  501 -0.00000000000E+00  0.00000000000E+00  0.15715409504E+03  0.15715409504E+03  0.00000000000E+00 0.  1.
          1   -1    0    0  501    0  0.00000000000E+00 -0.00000000000E+00 -0.25169657789E+03  0.25169657789E+03  0.00000000000E+00 0. -1.
         25    2    1    2    0    0  0.41834854179E+02 -0.13892061663E+03  0.32964740141E+02  0.19437134392E+03  0.12507778578E+03 0.  0.
          5    1    3    3  502    0  0.23215024935E+02 -0.42168802299E+02 -0.47001967102E+02  0.67407733840E+02  0.41800000000E+01 0. -1.
         -5    1    3    3    0  502  0.18619829244E+02 -0.96751814335E+02  0.79966707243E+02  0.12696361008E+03  0.41800000000E+01 0. -1.
        -11    1    1    2    0    0 -0.25571279930E+02  0.24224671210E+02  0.80851074931E+01  0.36139922740E+02  0.00000000000E+00 0.  1.
         11    1    1    2    0    0 -0.16263574249E+02  0.11469594542E+03 -0.13559233048E+03  0.17833940627E+03  0.00000000000E+00 0. -1.
</event>
<event>
 7    1  0.2384639E-009  0.1060164E+03  0.7561462E-02  0.1268130E+00
          1   -1    0    0  501    0  0.00000000000E+00  0.00000000000E+00  0.99289513661E+02  0.99289513661E+02  0.00000000000E+00 0. -1.
         -1   -1    0    0    0  501 -0.00000000000E+00 -0.00000000000E+00 -0.16023580280E+03  0.16023580280E+03  0.00000000000E+00 0.  1.
         25    2    1    2    0    0  0.10284020571E+02 -0.49141140944E+02  0.10647710045E+02  0.13520921225E+03  0.12509014564E+03 0.  0.
          5    1    3    3  502    0 -0.33588943365E+02 -0.56535748909E+02  0.44185080535E+02  0.79336635693E+02  0.41800000000E+01 0. -1.
         -5    1    3    3    0  502  0.43872963936E+02  0.73946079657E+01 -0.33537370490E+02  0.55872576555E+02  0.41800000000E+01 0. -1.
        -11    1    1    2    0    0 -0.49085071839E+02  0.34424103448E+02 -0.38656338522E+02  0.71334954150E+02  0.00000000000E+00 0.  1.
         11    1    1    2    0    0  0.38801051268E+02  0.14717037496E+02 -0.32937660664E+02  0.52981150065E+02  0.00000000000E+00 0. -1.
</event>
<event>
 7    1  0.2384639E-009  0.1281130E+03  0.7561462E-02  0.1230283E+00
         -2   -1    0    0    0  501 -0.00000000000E+00  0.00000000000E+00  0.28181280735E+02  0.28181280735E+02  0.00000000000E+00 0.  1.
          2   -1    0    0  501    0  0.00000000000E+00 -0.00000000000E+00 -0.12384012388E+04  0.12384012388E+04  0.00000000000E+00 0. -1.
         25    2    1    2    0    0 -0.38971654240E+02  0.78693857654E+02 -0.10433004826E+04  0.10544354479E+04  0.12508678495E+03 0.  0.
          5    1    3    3  502    0 -0.38191468000E+02 -0.78503822698E+01 -0.67263063991E+03  0.67377271158E+03  0.41800000000E+01 0. -1.
         -5    1    3    3    0  502 -0.78018624039E+00  0.86544239923E+02 -0.37066984270E+03  0.38066273634E+03  0.41800000000E+01 0. -1.
        -11    1    1    2    0    0 -0.30135227179E+02 -0.73104470140E+01 -0.31637054767E+02  0.44299862156E+02  0.00000000000E+00 0.  1.
         11    1    1    2    0    0  0.69106881420E+02 -0.71383410640E+02 -0.13528242070E+03  0.16784720946E+03  0.00000000000E+00 0. -1.
</event>
<event>
 7    1  0.2384639E-009  0.1620914E+03  0.7561462E-02  0.1186356E+00
          1   -1    0    0  501    0  0.00000000000E+00  0.00000000000E+00  0.70804514574E+03  0.70804514574E+03  0.00000000000E+00 0. -1.
         -1   -1    0    0    0  501 -0.00000000000E+00 -0.00000000000E+00 -0.48506756337E+02  0.48506756337E+02  0.00000000000E+00 0.  1.
         25    2    1    2    0    0  0.53490986523E+02  0.13501281029E+03  0.42037797006E+03  0.46201168293E+03  0.12508961938E+03 0.  0.
          5    1    3    3  502    0  0.18826859560E+01  0.65898506515E+02  0.53204868127E+02  0.84819738621E+02  0.41800000000E+01 0.  1.
         -5    1    3    3    0  502  0.51608300567E+02  0.69114303775E+02  0.36717310193E+03  0.37719194431E+03  0.41800000000E+01 0.  1.
        -11    1    1    2    0    0 -0.60899039346E+01 -0.12262228055E+03  0.16525879655E+03  0.20587321451E+03  0.00000000000E+00 0.  1.
         11    1    1    2    0    0 -0.47401082589E+02 -0.12390529740E+02  0.73901622797E+02  0.88667004629E+02  0.00000000000E+00 0. -1.
</event>
<event>
 7    1  0.2384639E-009  0.1076484E+03  0.7561462E-02  0.1264988E+00
          2   -1    0    0  501    0  0.00000000000E+00  0.00000000000E+00  0.16392246963E+03  0.16392246963E+03  0.00000000000E+00 0. -1.
         -2   -1    0    0    0  501 -0.00000000000E+00 -0.00000000000E+00 -0.12755299348E+03  0.12755299348E+03  0.00000000000E+00 0.  1.
         25    2    1    2    0    0  0.26338102709E+01  0.63680947617E+02 -0.48524836763E+02  0.14853799498E+03  0.12508667445E+03 0.  0.
          5    1    3    3  502    0  0.63115970114E+02  0.41557480439E+02 -0.22576166185E+02  0.78979779333E+02  0.41800000000E+01 0. -1.
         -5    1    3    3    0  502 -0.60482159844E+02  0.22123467179E+02 -0.25948670578E+02  0.69558215648E+02  0.41800000000E+01 0. -1.
        -11    1    1    2    0    0 -0.20971642773E+02 -0.39563545746E+02  0.99642303076E+02  0.10924134984E+03  0.00000000000E+00 0. -1.
         11    1    1    2    0    0  0.18337832502E+02 -0.24117401871E+02 -0.14747990157E+02  0.33696118286E+02  0.00000000000E+00 0.  1.
</event>
<event>
 7    1  0.4511543E-009  0.7731967E+02  0.7561462E-02  0.1336835E+00
         -1   -1    0    0    0  501 -0.00000000000E+00  0.00000000000E+00  0.77209719002E+02  0.77209719002E+02  0.00000000000E+00 0.  1.
          1   -1    0    0  501    0  0.00000000000E+00 -0.00000000000E+00 -0.19248569293E+03  0.19248569293E+03  0.00000000000E+00 0. -1.
         25    2    1    2    0    0 -0.26275251270E+02 -0.24396226323E+02 -0.17623411051E+02  0.13131552913E+03  0.12509044282E+03 0.  0.
          5    1    3    3  502    0 -0.41707916940E+02  0.24703759637E+02  0.33168005511E+02  0.58884760892E+02  0.41800000000E+01 0. -1.
         -5    1    3    3    0  502  0.15432665670E+02 -0.49099985960E+02 -0.50791416563E+02  0.72430768237E+02  0.41800000000E+01 0. -1.
        -11    1    1    2    0    0  0.11267691804E+02  0.34474534658E+02  0.27401442334E+01  0.36372555710E+02  0.00000000000E+00 0.  1.
         11    1    1    2    0    0  0.15007559466E+02 -0.10078308335E+02 -0.10039270711E+03  0.10200732709E+03  0.00000000000E+00 0. -1.
</event>
<event>
 7    1  0.2384639E-009  0.1608896E+03  0.7561462E-02  0.1187696E+00
          1   -1    0    0  501    0  0.00000000000E+00  0.00000000000E+00  0.36360609502E+03  0.36360609502E+03  0.00000000000E+00 0. -1.
         -1   -1    0    0    0  501 -0.00000000000E+00 -0.00000000000E+00 -0.10215908695E+03  0.10215908695E+03  0.00000000000E+00 0.  1.
         25    2    1    2    0    0  0.93849934881E+02 -0.10100593653E+03  0.23416404839E+03  0.29915095836E+03  0.12509390408E+03 0.  0.
          5    1    3    3  502    0 -0.63486624997E+01  0.22134737185E+02  0.54774993871E+02  0.59565295763E+02  0.41800000000E+01 0. -1.
         -5    1    3    3    0  502  0.10019859738E+03 -0.12314067372E+03  0.17938905452E+03  0.23958566260E+03  0.41800000000E+01 0. -1.
        -11    1    1    2    0    0 -0.55254939546E+02  0.74459549119E+02  0.59129205380E+02  0.10997088582E+03  0.00000000000E+00 0. -1.
         11    1    1    2    0    0 -0.38594995335E+02  0.26546387413E+02 -0.31846245702E+02  0.56643337781E+02  0.00000000000E+00 0.  1.
</event>
<event>
 7    1  0.2384639E-009  0.2149730E+03  0.7561462E-02  0.1137687E+00
          1   -1    0    0  501    0  0.00000000000E+00  0.00000000000E+00  0.11323870901E+04  0.11323870901E+04  0.00000000000E+00 0. -1.
         -1   -1    0    0    0  501 -0.00000000000E+00 -0.00000000000E+00 -0.46255861035E+02  0.46255861035E+02  0.00000000000E+00 0.  1.
         25    2    1    2    0    0  0.16230161167E+03 -0.11654579086E+03  0.66022564236E+03  0.70104946124E+03  0.12509082206E+03 0.  0.
          5    1    3    3  502    0  0.13163823506E+03 -0.34291362550E+02  0.50127284136E+03  0.51941934538E+03  0.41800000000E+01 0. -1.
         -5    1    3    3    0  502  0.30663376615E+02 -0.82254428307E+02  0.15895280100E+03  0.18163011586E+03  0.41800000000E+01 0. -1.
        -11    1    1    2    0    0 -0.99222640386E+02  0.99738565839E+02  0.21604761899E+03  0.25781677128E+03  0.00000000000E+00 0.  1.
         11    1    1    2    0    0 -0.63078971285E+02  0.16807225018E+02  0.20985796776E+03  0.21977671866E+03  0.00000000000E+00 0. -1.
</event>
<event>
 7    1  0.2384639E-009  0.2679324E+03  0.7561462E-02  0.1102469E+00
          2   -1    0    0  501    0  0.00000000000E+00  0.00000000000E+00  0.97799528740E+03  0.97799528740E+03  0.00000000000E+00 0. -1.
         -2   -1    0    0    0  501 -0.00000000000E+00 -0.00000000000E+00 -0.16441978167E+03  0.16441978167E+03  0.00000000000E+00 0.  1.
         25    2    1    2    0    0  0.76219292080E+02 -0.24184773743E+03  0.82288626227E+03  0.87010862750E+03  0.12509002531E+03 0.  0.
          5    1    3    3  502    0  0.10095870356E+03 -0.22864181237E+03  0.68129923081E+03  0.72571058452E+03  0.41800000000E+01 0.  1.
         -5    1    3    3    0  502 -0.24739411482E+02 -0.13205925059E+02  0.14158703146E+03  0.14439804298E+03  0.41800000000E+01 0.  1.
        -11    1    1    2    0    0 -0.35736080091E+02  0.18071926012E+03  0.33740377708E+02  0.18728302509E+03  0.00000000000E+00 0.  1.
         11    1    1    2    0    0 -0.40483211989E+02  0.61128477312E+02 -0.43051134242E+02  0.85023416486E+02  0.00000000000E+00 0. -1.
</event>
<event>
 7    1  0.2384639E-009  0.4291752E+03  0.7561462E-02  0.1034121E+00
         -1   -1    0    0    0  501 -0.00000000000E+00  0.00000000000E+00  0.48260952147E+03  0.48260952147E+03  0.00000000000E+00 0.  1.
          1   -1    0    0  501    0  0.00000000000E+00 -0.00000000000E+00 -0.41402297404E+03  0.41402297404E+03  0.00000000000E+00 0. -1.
         25    2    1    2    0    0 -0.35559013752E+03 -0.22976578690E+03  0.12866750031E+03  0.45982663309E+03  0.12509414107E+03 0.  0.
          5    1    3    3  502    0 -0.16492949217E+03 -0.80475000141E+02 -0.41442757416E+01  0.18360994107E+03  0.41800000000E+01 0. -1.
         -5    1    3    3    0  502 -0.19066064534E+03 -0.14929078676E+03  0.13281177605E+03  0.27621669202E+03  0.41800000000E+01 0. -1.
        -11    1    1    2    0    0  0.86689536054E+02  0.10499486699E+03 -0.22248684737E+02  0.13796376962E+03  0.00000000000E+00 0.  1.
         11    1    1    2    0    0  0.26890060147E+03  0.12477091991E+03 -0.37832268140E+02  0.29884209281E+03  0.00000000000E+00 0. -1.
</event>
<event>
 7    1  0.2384639E-009  0.1412524E+03  0.7561462E-02  0.1211654E+00
         -2   -1    0    0    0  501 -0.00000000000E+00  0.00000000000E+00  0.26179111100E+02  0.26179111100E+02  0.00000000000E+00 0.  1.
          2   -1    0    0  501    0  0.00000000000E+00 -0.00000000000E+00 -0.79056799052E+03  0.79056799052E+03  0.00000000000E+00 0. -1.
         25    2    1    2    0    0  0.83533079675E+02 -0.37350418497E+02 -0.47334824658E+03  0.49807629493E+03  0.12509437982E+03 0.  0.
          5    1    3    3  502    0  0.11499469454E+03 -0.39664838929E+02 -0.34496305052E+03  0.36580603855E+03  0.41800000000E+01 0.  1.
         -5    1    3    3    0  502 -0.31461614869E+02  0.23144204314E+01 -0.12838519607E+03  0.13227025637E+03  0.41800000000E+01 0.  1.
        -11    1    1    2    0    0 -0.16620418389E+02  0.56883609244E+02 -0.15177909506E+03  0.16293826133E+03  0.00000000000E+00 0. -1.
         11    1    1    2    0    0 -0.66912661286E+02 -0.19533190747E+02 -0.13926153777E+03  0.15573254536E+03  0.00000000000E+00 0.  1.
</event>
<event>
 7    1  0.2384639E-009  0.7008998E+02  0.7561462E-02  0.1359787E+00
          1   -1    0    0  501    0  0.00000000000E+00  0.00000000000E+00  0.19365804930E+03  0.19365804930E+03  0.00000000000E+00 0. -1.
         -1   -1    0    0    0  501 -0.00000000000E+00 -0.00000000000E+00 -0.70444385928E+02  0.70444385928E+02  0.00000000000E+00 0.  1.
         25    2    1    2    0    0  0.36863808490E+02  0.59791132140E+00  0.47106604625E+02  0.13865081414E+03  0.12508284530E+03 0.  0.
          5    1    3    3  502    0 -0.17012067342E+02  0.10988072851E+02 -0.34501221710E+02  0.40223809861E+02  0.41800000000E+01 0. -1.
         -5    1    3    3    0  502  0.53875875831E+02 -0.10390161530E+02  0.81607826335E+02  0.98427004284E+02  0.41800000000E+01 0. -1.
        -11    1    1    2    0    0 -0.24534209715E+02  0.25637394590E+02  0.87409664526E+02  0.94337971677E+02  0.00000000000E+00 0. -1.
         11    1    1    2    0    0 -0.12329598775E+02 -0.26235305911E+02 -0.11302605777E+02  0.31113649409E+02  0.00000000000E+00 0.  1.
</event>
<event>
 7    1  0.2503919E-009  0.2055202E+03  0.7561462E-02  0.1145163E+00
         -1   -1    0    0    0  501 -0.00000000000E+00  0.00000000000E+00  0.86310380642E+02  0.86310380642E+02  0.00000000000E+00 0.  1.
          1   -1    0    0  501    0  0.00000000000E+00 -0.00000000000E+00 -0.51483061357E+03  0.51483061357E+03  0.00000000000E+00 0. -1.
         25    2    1    2    0    0 -0.17718892802E+03 -0.57036174772E+01 -0.17679416114E+03  0.27987821120E+03  0.12508872941E+03 0.  0.
          5    1    3    3  502    0 -0.76467531145E+02  0.56206110614E+02 -0.53566246486E+02  0.10905606518E+03  0.41800000000E+01 0.  1.
         -5    1    3    3    0  502 -0.10072139688E+03 -0.61909728091E+02 -0.12322791466E+03  0.17082214602E+03  0.41800000000E+01 0.  1.
        -11    1    1    2    0    0  0.94741042220E+02  0.46747278921E+02 -0.15617311539E+03  0.18855029869E+03  0.00000000000E+00 0.  1.
         11    1    1    2    0    0  0.82447885801E+02 -0.41043661443E+02 -0.95552956400E+02  0.13271248432E+03  0.00000000000E+00 0. -1.
</event>
<event>
 7    1  0.2384639E-009  0.1104587E+03  0.7561462E-02  0.1259723E+00
          1   -1    0    0  501    0  0.00000000000E+00  0.00000000000E+00  0.66706707703E+02  0.66706707703E+02  0.00000000000E+00 0. -1.
         -1   -1    0    0    0  501 -0.00000000000E+00 -0.00000000000E+00 -0.34585204348E+03  0.34585204348E+03  0.00000000000E+00 0.  1.
         25    2    1    2    0    0  0.10709893224E+02  0.10243455045E+03 -0.18087000653E+03  0.24283604711E+03  0.12509135691E+03 0.  0.
          5    1    3    3  502    0 -0.91636297409E+01  0.73770284632E+02 -0.18512653319E+02  0.76721690138E+02  0.41800000000E+01 0. -1.
         -5    1    3    3    0  502  0.19873522965E+02  0.28664265814E+02 -0.16235735321E+03  0.16611435697E+03  0.41800000000E+01 0. -1.
        -11    1    1    2    0    0  0.10585933889E+02 -0.78848241799E+02 -0.11008390028E+03  0.13582184040E+03  0.00000000000E+00 0.  1.
         11    1    1    2    0    0 -0.21295827113E+02 -0.23586308647E+02  0.11808571026E+02  0.33900863672E+02  0.00000000000E+00 0. -1.
</event>
<event>
 7    1  0.2384639E-009  0.9288247E+02  0.7561462E-02  0.1296018E+00
         -3   -1    0    0    0  501 -0.00000000000E+00  0.00000000000E+00  0.20091268560E+03  0.20091268560E+03  0.00000000000E+00 0.  1.
          3   -1    0    0  501    0  0.00000000000E+00 -0.00000000000E+00 -0.77513347789E+02  0.77513347789E+02  0.00000000000E+00 0. -1.
         25    2    1    2    0    0  0.17101014705E+02  0.54090276195E+02  0.76649101241E+02  0.15729271462E+03  0.12509080969E+03 0.  0.
          5    1    3    3  502    0 -0.33885064691E+02 -0.11727473006E+02  0.63299180733E+02  0.72869677601E+02  0.41800000000E+01 0.  1.
         -5    1    3    3    0  502  0.50986079395E+02  0.65817749201E+02  0.13349920508E+02  0.84423037020E+02  0.41800000000E+01 0.  1.
        -11    1    1    2    0    0 -0.13417310276E+00 -0.48412309084E+02  0.74062965698E+02  0.88482159564E+02  0.00000000000E+00 0.  1.
         11    1    1    2    0    0 -0.16966841602E+02 -0.56779671114E+01 -0.27312729132E+02  0.32651159200E+02  0.00000000000E+00 0. -1.
</event>
<event>
 7    1  0.2384639E-009  0.1105434E+03  0.7561462E-02  0.1259567E+00
         -1   -1    0    0    0  501 -0.00000000000E+00  0.00000000000E+00  0.16759403359E+03  0.16759403359E+03  0.00000000000E+00 0.  1.
          1   -1    0    0  501    0  0.00000000000E+00 -0.00000000000E+00 -0.11679782900E+03  0.11679782900E+03  0.00000000000E+00 0. -1.
         25    2    1    2    0    0 -0.42489025504E+02  0.74525474964E+02  0.45003041870E+02  0.15821405735E+03  0.12508817074E+03 0.  0.
          5    1    3    3  502    0  0.12550665360E+02  0.52636323709E+02  0.74291114092E+02  0.92004042344E+02  0.41800000000E+01 0. -1.
         -5    1    3    3    0  502 -0.55039690864E+02  0.21889151254E+02 -0.29288072222E+02  0.66210015009E+02  0.41800000000E+01 0. -1.
        -11    1    1    2    0    0  0.54512674824E+02 -0.31934145311E+02  0.35887509971E+02  0.72659030581E+02  0.00000000000E+00 0.  1.
         11    1    1    2    0    0 -0.12023649320E+02 -0.42591329653E+02 -0.30094347248E+02  0.53518774657E+02  0.00000000000E+00 0. -1.
</event>
<event>
 7    1  0.2384639E-009  0.1586345E+03  0.7561462E-02  0.1190247E+00
         -2   -1    0    0    0  501 -0.00000000000E+00  0.00000000000E+00  0.49522373820E+02  0.49522373820E+02  0.00000000000E+00 0.  1.
          2   -1    0    0  501    0  0.00000000000E+00 -0.00000000000E+00 -0.70439479928E+03  0.70439479928E+03  0.00000000000E+00 0. -1.
         25    2    1    2    0    0 -0.36522853124E+02 -0.11494104285E+03 -0.53181775215E+03  0.55948353862E+03  0.12508535628E+03 0.  0.
          5    1    3    3  502    0  0.40607316827E+02 -0.18399113066E+02 -0.21025714516E+03  0.21497214013E+03  0.41800000000E+01 0. -1.
         -5    1    3    3    0  502 -0.77130169951E+02 -0.96541929784E+02 -0.32156060698E+03  0.34451139849E+03  0.41800000000E+01 0. -1.
        -11    1    1    2    0    0 -0.19811562227E+02  0.80325289250E+02 -0.82665283123E+02  0.11695383330E+03  0.00000000000E+00 0. -1.
         11    1    1    2    0    0  0.56334415351E+02  0.34615753600E+02 -0.40389390189E+02  0.77479801174E+02  0.00000000000E+00 0.  1.
</event>
<event>
 7    1  0.2384639E-009  0.1384755E+03  0.7561462E-02  0.1215395E+00
          1   -1    0    0  501    0  0.00000000000E+00  0.00000000000E+00  0.56386566332E+03  0.56386566332E+03  0.00000000000E+00 0. -1.
         -1   -1    0    0    0  501 -0.00000000000E+00 -0.00000000000E+00 -0.44719837562E+02  0.44719837562E+02  0.00000000000E+00 0.  1.
         25    2    1    2    0    0  0.11043916841E+03  0.36872086525E+02  0.28870778118E+03  0.33549353609E+03  0.12508944466E+03 0.  0.
          5    1    3    3  502    0 -0.27207032268E+01 -0.19082925876E+02 -0.68695092368E+00  0.19735870582E+02  0.41800000000E+01 0.  1.
         -5    1    3    3    0  502  0.11315987164E+03  0.55955012402E+02  0.28939473210E+03  0.31575766551E+03  0.41800000000E+01 0.  1.
        -11    1    1    2    0    0 -0.95459954304E+02 -0.48685727780E+01  0.10159532076E+03  0.13949163085E+03  0.00000000000E+00 0. -1.
         11    1    1    2    0    0 -0.14979214106E+02 -0.32003513747E+02  0.12884272382E+03  0.13360033394E+03  0.00000000000E+00 0.  1.
</event>
<event>
 7    1  0.2384639E-009  0.2066973E+03  0.7561462E-02  0.1144208E+00
         -1   -1    0    0    0  501 -0.00000000000E+00  0.00000000000E+00  0.53137183116E+03  0.53137183116E+03  0.00000000000E+00 0.  1.
          1   -1    0    0  501    0  0.00000000000E+00 -0.00000000000E+00 -0.89073475895E+02  0.89073475895E+02  0.00000000000E+00 0. -1.
         25    2    1    2    0    0  0.18692047371E+03 -0.18603157589E+02  0.24479704136E+03  0.33295527675E+03  0.12509310091E+03 0.  0.
          5    1    3    3  502    0  0.19965470458E+03 -0.10351936205E+02  0.18961655847E+03  0.27557408312E+03  0.41800000000E+01 0.  1.
         -5    1    3    3    0  502 -0.12734230872E+02 -0.82512213840E+01  0.55180482892E+02  0.57381193630E+02  0.41800000000E+01 0.  1.
        -11    1    1    2    0    0 -0.14398547458E+03  0.40389176691E+02  0.10346933123E+03  0.18184885204E+03  0.00000000000E+00 0. -1.
         11    1    1    2    0    0 -0.42934999133E+02 -0.21786019102E+02  0.94031982673E+02  0.10564117826E+03  0.00000000000E+00 0.  1.
</event>
<event>
 7    1  0.2384639E-009  0.1367438E+03  0.7561462E-02  0.1217779E+00
         -2   -1    0    0    0  501 -0.00000000000E+00  0.00000000000E+00  0.14732877358E+03  0.14732877358E+03  0.00000000000E+00 0.  1.
          2   -1    0    0  501    0  0.00000000000E+00 -0.00000000000E+00 -0.19788921126E+03  0.19788921126E+03  0.00000000000E+00 0. -1.
         25    2    1    2    0    0 -0.67130462511E+02 -0.83850760216E+02 -0.10248048644E+03  0.19413331334E+03  0.12509214309E+03 0.  0.
          5    1    3    3  502    0 -0.78030015975E+02 -0.16166099128E+02 -0.96457100158E+02  0.12518574490E+03  0.41800000000E+01 0. -1.
         -5    1    3    3    0  502  0.10899553464E+02 -0.67684661089E+02 -0.60233862798E+01  0.68947568446E+02  0.41800000000E+01 0. -1.
        -11    1    1    2    0    0  0.28808982671E+02 -0.40725312451E+01 -0.16333379948E+02  0.33366484589E+02  0.00000000000E+00 0. -1.
         11    1    1    2    0    0  0.38321479839E+02  0.87923291461E+02  0.68253428708E+02  0.11771818691E+03  0.00000000000E+00 0.  1.
</event>
<event>
 7    1  0.2384639E-009  0.9831647E+02  0.7561462E-02  0.1283877E+00
         -2   -1    0    0    0  501 -0.00000000000E+00  0.00000000000E+00  0.48081611457E+02  0.48081611457E+02  0.00000000000E+00 0.  1.
          2   -1    0    0  501    0  0.00000000000E+00 -0.00000000000E+00 -0.29292108083E+03  0.29292108083E+03  0.00000000000E+00 0. -1.
         25    2    1    2    0    0 -0.11231184644E+02 -0.47614303747E+02 -0.14266813347E+03  0.19595389381E+03  0.12510184156E+03 0.  0.
          5    1    3    3  502    0  0.41607397930E+02 -0.94472961508E+01 -0.11899273217E+03  0.12647991807E+03  0.41800000000E+01 0.  1.
         -5    1    3    3    0  502 -0.52838582575E+02 -0.38167007596E+02 -0.23675401298E+02  0.69473975732E+02  0.41800000000E+01 0.  1.
        -11    1    1    2    0    0  0.26748479526E+02 -0.10168954234E+02 -0.24047390763E+01  0.28717095208E+02  0.00000000000E+00 0.  1.
         11    1    1    2    0    0 -0.15517294882E+02  0.57783257981E+02 -0.99766596832E+02  0.11633170328E+03  0.00000000000E+00 0. -1.
</event>
<event>
 7    1  0.2595957E-009  0.1465326E+03  0.7561462E-02  0.1204800E+00
          2   -1    0    0  501    0  0.00000000000E+00  0.00000000000E+00  0.17283151263E+04  0.17283151263E+04  0.00000000000E+00 0. -1.
         -2   -1    0    0    0  501 -0.00000000000E+00 -0.00000000000E+00 -0.18280480208E+02  0.18280480208E+02  0.00000000000E+00 0.  1.
         25    2    1    2    0    0 -0.10898636302E+03  0.34934685308E+02  0.13054374832E+04  0.13164015295E+04  0.12508998655E+03 0.  0.
          5    1    3    3  502    0 -0.76015524080E+02  0.67848328443E+02  0.11378011332E+04  0.11423618720E+04  0.41800000000E+01 0.  1.
         -5    1    3    3    0  502 -0.32970838940E+02 -0.32913643135E+02  0.16763635002E+03  0.17403965747E+03  0.41800000000E+01 0.  1.
        -11    1    1    2    0    0  0.90625557796E+02 -0.63286784909E+02  0.27802927039E+03  0.29919639714E+03  0.00000000000E+00 0.  1.
         11    1    1    2    0    0  0.18360805224E+02  0.28352099601E+02  0.12656789252E+03  0.13099767989E+03  0.00000000000E+00 0. -1.
</event>
<event>
 7    1  0.2384639E-009  0.9695241E+02  0.7561462E-02  0.1286838E+00
         -1   -1    0    0    0  501 -0.00000000000E+00  0.00000000000E+00  0.16675727279E+03  0.16675727279E+03  0.00000000000E+00 0.  1.
          1   -1    0    0  501    0  0.00000000000E+00 -0.00000000000E+00 -0.83643369860E+02  0.83643369860E+02  0.00000000000E+00 0. -1.
         25    2    1    2    0    0 -0.24977627469E+02 -0.34999348103E+02  0.25811591392E+02  0.13477329676E+03  0.12509503199E+03 0.  0.
          5    1    3    3  502    0  0.31673182076E+02 -0.24352347300E+02  0.56509291038E+02  0.69332529562E+02  0.41800000000E+01 0. -1.
         -5    1    3    3    0  502 -0.56650809544E+02 -0.10647000802E+02 -0.30697699646E+02  0.65440767199E+02  0.41800000000E+01 0. -1.
        -11    1    1    2    0    0 -0.27947493114E+02  0.32629000511E+02  0.89136239677E+01  0.43876722051E+02  0.00000000000E+00 0.  1.
         11    1    1    2    0    0  0.52925120583E+02  0.23703475914E+01  0.48388687575E+02  0.71750623842E+02  0.00000000000E+00 0. -1.
</event>
<event>
 7    1  0.2384639E-009  0.1146224E+03  0.7561462E-02  0.1252242E+00
          1   -1    0    0  501    0  0.00000000000E+00  0.00000000000E+00  0.78528481450E+03  0.78528481450E+03  0.00000000000E+00 0. -1.
         -1   -1    0    0    0  501 -0.00000000000E+00 -0.00000000000E+00 -0.38241997813E+02  0.38241997813E+02  0.00000000000E+00 0.  1.
         25    2    1    2    0    0  0.27279761326E+02  0.76819644507E+02  0.65779606584E+03  0.67452814572E+03  0.12508841662E+03 0.  0.
          5    1    3    3  502    0  0.15119507223E+02  0.11052916374E+03  0.45120780608E+03  0.46481313687E+03  0.41800000000E+01 0.  1.
         -5    1    3    3    0  502  0.12160254102E+02 -0.33709519238E+02  0.20658825976E+03  0.20971500885E+03  0.41800000000E+01 0.  1.
        -11    1    1    2    0    0 -0.16003952985E+02 -0.46906977487E+02  0.10291846340E+03  0.11423047385E+03  0.00000000000E+00 0. -1.
         11    1    1    2    0    0 -0.11275808340E+02 -0.29912667020E+02 -0.13671712557E+02  0.34768192737E+02  0.00000000000E+00 0.  1.
</event>
<event>
 7    1  0.2384639E-009  0.1260266E+03  0.7561462E-02  0.1233474E+00
         -2   -1    0    0    0  501 -0.00000000000E+00  0.00000000000E+00  0.18979088796E+03  0.18979088796E+03  0.00000000000E+00 0. -1.
          2   -1    0    0  501    0  0.00000000000E+00 -0.00000000000E+00 -0.91424664963E+02  0.91424664963E+02  0.00000000000E+00 0.  1.
         25    2    1    2    0    0  0.63737395910E+02  0.35759400363E+02  0.68475414633E+02  0.16024088288E+03  0.12508824000E+03 0.  0.
          5    1    3    3  502    0 -0.35576090738E+02 -0.39264507797E+00  0.32923671616E+02  0.48654423797E+02  0.41800000000E+01 0. -1.
         -5    1    3    3    0  502  0.99313486647E+02  0.36152045441E+02  0.35551743017E+02  0.11158645908E+03  0.41800000000E+01 0. -1.
        -11    1    1    2    0    0 -0.40484488167E+02 -0.62847950964E+02  0.54377119698E+00  0.74760647467E+02  0.00000000000E+00 0.  1.
         11    1    1    2    0    0 -0.23252907742E+02  0.27088550601E+02  0.29347037167E+02  0.46214022576E+02  0.00000000000E+00 0. -1.
</event>
<event>
 7    1  0.2384639E-009  0.1014898E+03  0.7561462E-02  0.1277194E+00
          1   -1    0    0  501    0  0.00000000000E+00  0.00000000000E+00  0.96093255272E+02  0.96093255272E+02  0.00000000000E+00 0. -1.
         -1   -1    0    0    0  501 -0.00000000000E+00 -0.00000000000E+00 -0.18432590336E+03  0.18432590336E+03  0.00000000000E+00 0.  1.
         25    2    1    2    0    0 -0.69749987522E+02 -0.29688465231E+02 -0.65554305845E+02  0.16028275852E+03  0.12508688954E+03 0.  0.
          5    1    3    3  502    0 -0.74116908071E+02 -0.55173209401E+02 -0.86582464823E+02  0.12669409896E+03  0.41800000000E+01 0.  1.
         -5    1    3    3    0  502  0.43669205492E+01  0.25484744170E+02  0.21028158977E+02  0.33588659552E+02  0.41800000000E+01 0.  1.
        -11    1    1    2    0    0  0.38959231811E+02 -0.33868315717E+01 -0.52890871306E+02  0.65777934286E+02  0.00000000000E+00 0.  1.
         11    1    1    2    0    0  0.30790755711E+02  0.33075296802E+02  0.30212529059E+02  0.54358465835E+02  0.00000000000E+00 0. -1.
</event>
<event>
 7    1  0.2384639E-009  0.9590813E+02  0.7561462E-02  0.1289144E+00
          2   -1    0    0  501    0  0.00000000000E+00  0.00000000000E+00  0.33270739345E+02  0.33270739345E+02  0.00000000000E+00 0. -1.
         -2   -1    0    0    0  501 -0.00000000000E+00 -0.00000000000E+00 -0.45572605430E+03  0.45572605430E+03  0.00000000000E+00 0.  1.
         25    2    1    2    0    0 -0.55653019062E+02 -0.18082817972E+02 -0.25668342440E+03  0.29147555000E+03  0.12508944419E+03 0.  0.
          5    1    3    3  502    0 -0.24072998839E+01 -0.53091532862E+02 -0.43112582039E+02  0.68561454801E+02  0.41800000000E+01 0.  1.
         -5    1    3    3    0  502 -0.53245719178E+02  0.35008714890E+02 -0.21357084236E+03  0.22291409520E+03  0.41800000000E+01 0.  1.
        -11    1    1    2    0    0  0.31997810441E+02  0.33565705477E+02 -0.16258651182E+03  0.16907066653E+03  0.00000000000E+00 0.  1.
         11    1    1    2    0    0  0.23655208621E+02 -0.15482887506E+02 -0.31853787351E+01  0.28450577114E+02  0.00000000000E+00 0. -1.
</event>
<event>
 7    1  0.2384639E-009  0.1237741E+03  0.7561462E-02  0.1236998E+00
          1   -1    0    0  501    0  0.00000000000E+00  0.00000000000E+00  0.12503968151E+03  0.12503968151E+03  0.00000000000E+00 0. -1.
         -1   -1    0    0    0  501 -0.00000000000E+00 -0.00000000000E+00 -0.20368096413E+03  0.20368096413E+03  0.00000000000E+00 0.  1.
         25    2    1    2    0    0 -0.35176404915E+02  0.10390179195E+03 -0.87360229696E+02  0.18791493412E+03  0.12508897193E+03 0.  0.
          5    1    3    3  502    0 -0.26608581899E+02  0.73967961168E+02  0.15615953306E+02  0.80253388139E+02  0.41800000000E+01 0.  1.
         -5    1    3    3    0  502 -0.85678230160E+01  0.29933830783E+02 -0.10297618300E+03  0.10766154598E+03  0.41800000000E+01 0.  1.
        -11    1    1    2    0    0 -0.35300288045E+01 -0.98230385750E+02  0.19539508013E+02  0.10021707520E+03  0.00000000000E+00 0. -1.
         11    1    1    2    0    0  0.38706433720E+02 -0.56714062011E+01 -0.10820560940E+02  0.40588636324E+02  0.00000000000E+00 0.  1.
</event>
<event>
 7    1  0.2384639E-009  0.1725224E+03  0.7561462E-02  0.1175243E+00
         -2   -1    0    0    0  501 -0.00000000000E+00  0.00000000000E+00  0.37181561725E+03  0.37181561725E+03  0.00000000000E+00 0.  1.
          2   -1    0    0  501    0  0.00000000000E+00 -0.00000000000E+00 -0.92153856989E+02  0.92153856989E+02  0.00000000000E+00 0. -1.
         25    2    1    2    0    0 -0.93677380875E+02 -0.11603112092E+03  0.13071655149E+03  0.23446286507E+03  0.12508935027E+03 0.  0.
          5    1    3    3  502    0  0.61525469139E+01 -0.91321377655E+02  0.65163760964E+02  0.11243325128E+03  0.41800000000E+01 0. -1.
         -5    1    3    3    0  502 -0.99829927789E+02 -0.24709743263E+02  0.65552790531E+02  0.12202961379E+03  0.41800000000E+01 0. -1.
        -11    1    1    2    0    0  0.40901259680E+02  0.35220840971E+02  0.11527273527E+03  0.12728402955E+03  0.00000000000E+00 0.  1.
         11    1    1    2    0    0  0.52776121195E+02  0.80810279947E+02  0.33672473499E+02  0.10222257962E+03  0.00000000000E+00 0. -1.
</event>
<event>
 7    1  0.2384639E-009  0.1033915E+03  0.7561462E-02  0.1273322E+00
          1   -1    0    0  501    0  0.00000000000E+00  0.00000000000E+00  0.13227133021E+03  0.13227133021E+03  0.00000000000E+00 0. -1.
         -1   -1    0    0    0  501 -0.00000000000E+00 -0.00000000000E+00 -0.14285275205E+03  0.14285275205E+03  0.00000000000E+00 0.  1.
         25    2    1    2    0    0 -0.24870798084E+02 -0.18778391827E+02 -0.82729367938E+02  0.15317570810E+03  0.12508982627E+03 0.  0.
          5    1    3    3  502    0 -0.24985637174E+01 -0.61843937806E+02 -0.84030577949E+02  0.10444867589E+03  0.41800000000E+01 0.  1.
         -5    1    3    3    0  502 -0.22372234366E+02  0.43065545979E+02  0.13012100109E+01  0.48727032215E+02  0.41800000000E+01 0.  1.
        -11    1    1    2    0    0 -0.25951530230E+02  0.34196095517E+02  0.19444795161E+02  0.47127008485E+02  0.00000000000E+00 0.  1.
         11    1    1    2    0    0  0.50822328314E+02 -0.15417703690E+02  0.52703150941E+02  0.74821365675E+02  0.00000000000E+00 0. -1.
</event>
<event>
 7    1  0.2384639E-009  0.1540956E+03  0.7561462E-02  0.1195529E+00
         -3   -1    0    0    0  501 -0.00000000000E+00  0.00000000000E+00  0.90831073363E+02  0.90831073363E+02  0.00000000000E+00 0.  1.
          3   -1    0    0  501    0  0.00000000000E+00 -0.00000000000E+00 -0.33724436055E+03  0.33724436055E+03  0.00000000000E+00 0. -1.
         25    2    1    2    0    0 -0.95870594302E+02  0.96599634602E+02 -0.11138970593E+03  0.21582072681E+03  0.12509300250E+03 0.  0.
          5    1    3    3  502    0 -0.64180349271E+02  0.64827523551E+00  0.13916123348E+01  0.64334644463E+02  0.41800000000E+01 0. -1.
         -5    1    3    3    0  502 -0.31690245031E+02  0.95951359367E+02 -0.11278131827E+03  0.15148608235E+03  0.41800000000E+01 0. -1.
        -11    1    1    2    0    0  0.36095232444E+02 -0.66837484467E+02 -0.12276290719E+03  0.14436359138E+03  0.00000000000E+00 0. -1.
         11    1    1    2    0    0  0.59775361858E+02 -0.29762150135E+02 -0.12260674069E+02  0.67891115726E+02  0.00000000000E+00 0.  1.
</event>
<event>
 7    1  0.2384639E-009  0.1037128E+03  0.7561462E-02  0.1272677E+00
         -3   -1    0    0    0  501 -0.00000000000E+00  0.00000000000E+00  0.29549759052E+03  0.29549759052E+03  0.00000000000E+00 0.  1.
          3   -1    0    0  501    0  0.00000000000E+00 -0.00000000000E+00 -0.77295569538E+02  0.77295569538E+02  0.00000000000E+00 0. -1.
         25    2    1    2    0    0 -0.19654437851E+02  0.59814635830E+02  0.22210905146E+03  0.26257010168E+03  0.12508613019E+03 0.  0.
          5    1    3    3  502    0  0.33851621130E+02 -0.22860030732E+02  0.56429265962E+02  0.69787160102E+02  0.41800000000E+01 0.  1.
         -5    1    3    3    0  502 -0.53506058981E+02  0.82674666562E+02  0.16567978550E+03  0.19278294157E+03  0.41800000000E+01 0.  1.
        -11    1    1    2    0    0 -0.55064207113E+01 -0.19615195750E+02  0.40447830783E+02  0.45289111146E+02  0.00000000000E+00 0.  1.
         11    1    1    2    0    0  0.25160858562E+02 -0.40199440080E+02 -0.44354861260E+02  0.64933947237E+02  0.00000000000E+00 0. -1.
</event>
<event>
 7    1  0.2384639E-009  0.1113053E+03  0.7561462E-02  0.1258172E+00
          1   -1    0    0  501    0  0.00000000000E+00  0.00000000000E+00  0.31165875578E+03  0.31165875578E+03  0.00000000000E+00 0. -1.
         -1   -1    0    0    0  501 -0.00000000000E+00 -0.00000000000E+00 -0.47757937025E+02  0.47757937025E+02  0.00000000000E+00 0.  1.
         25    2    1    2    0    0 -0.76230546166E+01  0.46003684847E+02  0.21919334075E+03  0.25664693287E+03  0.12508987784E+03 0.  0.
          5    1    3    3  502    0  0.43808982626E+02 -0.18706550214E+02  0.55795943186E+02  0.73483478794E+02  0.41800000000E+01 0. -1.
         -5    1    3    3    0  502 -0.51432037243E+02  0.64710235061E+02  0.16339739756E+03  0.18316345407E+03  0.41800000000E+01 0. -1.
        -11    1    1    2    0    0  0.43547853118E+02 -0.28671044133E+02  0.19959242966E+02  0.55828448507E+02  0.00000000000E+00 0.  1.
         11    1    1    2    0    0 -0.35924798502E+02 -0.17332640714E+02  0.24748235039E+02  0.46941311433E+02  0.00000000000E+00 0. -1.
</event>
<event>
 7    1  0.2384639E-009  0.2018581E+03  0.7561462E-02  0.1148181E+00
          1   -1    0    0  501    0  0.00000000000E+00  0.00000000000E+00  0.10985607923E+04  0.10985607923E+04  0.00000000000E+00 0. -1.
         -1   -1    0    0    0  501 -0.00000000000E+00 -0.00000000000E+00 -0.45470246107E+02  0.45470246107E+02  0.00000000000E+00 0.  1.
         25    2    1    2    0    0  0.16686220745E+03  0.49464524030E+02  0.76801979063E+03  0.79736523308E+03  0.12508869138E+03 0.  0.
          5    1    3    3  502    0  0.50906538931E+02 -0.39764511849E+02  0.17623169307E+03  0.18774390576E+03  0.41800000000E+01 0. -1.
         -5    1    3    3    0  502  0.11595566852E+03  0.89229035878E+02  0.59178809756E+03  0.60962132732E+03  0.41800000000E+01 0.  1.
        -11    1    1    2    0    0 -0.73144704902E+02 -0.64712493908E+02  0.18185511845E+03  0.20641981210E+03  0.00000000000E+00 0. -1.
         11    1    1    2    0    0 -0.93717502549E+02  0.15247969878E+02  0.10321563710E+03  0.14024599321E+03  0.00000000000E+00 0.  1.
</event>
<event>
 7    1  0.2384639E-009  0.9376519E+02  0.7561462E-02  0.1293982E+00
         -2   -1    0    0    0  501 -0.00000000000E+00  0.00000000000E+00  0.86981951661E+02  0.86981951661E+02  0.00000000000E+00 0. -1.
          2   -1    0    0  501    0  0.00000000000E+00 -0.00000000000E+00 -0.29972233752E+03  0.29972233752E+03  0.00000000000E+00 0.  1.
         25    2    1    2    0    0  0.37487448883E+00  0.67993805829E+02  0.30534609422E+01  0.14240793665E+03  0.12508956246E+03 0.  0.
          5    1    3    3  502    0 -0.20655039766E+02 -0.16562741406E+02  0.39608770212E+02  0.47825538662E+02  0.41800000000E+01 0.  1.
         -5    1    3    3    0  502  0.21029914255E+02  0.84556547235E+02 -0.36555309270E+02  0.94582397991E+02  0.41800000000E+01 0.  1.
        -11    1    1    2    0    0  0.13755484119E+02 -0.34578245057E+02 -0.14791001296E+02  0.40045500296E+02  0.00000000000E+00 0. -1.
         11    1    1    2    0    0 -0.14130358608E+02 -0.33415560772E+02 -0.20100284550E+03  0.20425085223E+03  0.00000000000E+00 0.  1.
</event>
<event>
 7    1  0.2384639E-009  0.1121277E+03  0.7561462E-02  0.1256680E+00
          1   -1    0    0  501    0  0.00000000000E+00  0.00000000000E+00  0.53041557286E+02  0.53041557286E+02  0.00000000000E+00 0. -1.
         -1   -1    0    0    0  501 -0.00000000000E+00 -0.00000000000E+00 -0.44412168213E+03  0.44412168213E+03  0.00000000000E+00 0.  1.
         25    2    1    2    0    0  0.63118163903E+02  0.56535684194E+02 -0.10242993099E+03  0.18252954888E+03  0.12507981152E+03 0.  0.
          5    1    3    3  502    0  0.48578188459E+02 -0.21846706586E+02 -0.85662283184E+02  0.10095849713E+03  0.41800000000E+01 0.  1.
         -5    1    3    3    0  502  0.14539975444E+02  0.78382390780E+02 -0.16767647808E+02  0.81571051748E+02  0.41800000000E+01 0.  1.
        -11    1    1    2    0    0 -0.17719913148E+02 -0.38062338005E+02 -0.24631761549E+03  0.24987017549E+03  0.00000000000E+00 0.  1.
         11    1    1    2    0    0 -0.45398250755E+02 -0.18473346189E+02 -0.42332578363E+02  0.64763515052E+02  0.00000000000E+00 0. -1.
</event>
<event>
 7    1  0.2384639E-009  0.1132424E+03  0.7561462E-02  0.1254681E+00
          1   -1    0    0  501    0  0.00000000000E+00  0.00000000000E+00  0.39688529980E+03  0.39688529980E+03  0.00000000000E+00 0. -1.
         -1   -1    0    0    0  501 -0.00000000000E+00 -0.00000000000E+00 -0.44906466149E+02  0.44906466149E+02  0.00000000000E+00 0.  1.
         25    2    1    2    0    0  0.31948513578E+02 -0.39018441539E+02  0.96394148123E+02  0.16577696792E+03  0.12508806898E+03 0.  0.
          5    1    3    3  502    0 -0.12817877038E+02  0.34882947118E+02  0.15798692045E+01  0.37431088123E+02  0.41800000000E+01 0.  1.
         -5    1    3    3    0  502  0.44766390616E+02 -0.73901388657E+02  0.94814278919E+02  0.12834587980E+03  0.41800000000E+01 0.  1.
        -11    1    1    2    0    0 -0.58204492620E+02  0.47355547886E+02  0.16346242471E+03  0.17986182244E+03  0.00000000000E+00 0.  1.
         11    1    1    2    0    0  0.26255979042E+02 -0.83371063468E+01  0.92122260818E+02  0.96152975596E+02  0.00000000000E+00 0. -1.
</event>
<event>
 7    1  0.2981278E-009  0.1527769E+03  0.7561462E-02  0.1197102E+00
          2   -1    0    0  501    0  0.00000000000E+00  0.00000000000E+00  0.56574459556E+03  0.56574459556E+03  0.00000000000E+00 0. -1.
         -2   -1    0    0    0  501 -0.00000000000E+00 -0.00000000000E+00 -0.63270401620E+02  0.63270401620E+02  0.00000000000E+00 0.  1.
         25    2    1    2    0    0 -0.75149456722E+02 -0.12186471809E+03  0.35988928811E+03  0.40701928034E+03  0.12508374999E+03 0.  0.
          5    1    3    3  502    0 -0.94137664354E+01 -0.61466508925E+02  0.28095109075E+03  0.28778071255E+03  0.41800000000E+01 0.  1.
         -5    1    3    3    0  502 -0.65735690287E+02 -0.60398209163E+02  0.78938197355E+02  0.11923856779E+03  0.41800000000E+01 0.  1.
        -11    1    1    2    0    0  0.93012006994E+01  0.68435627961E+02  0.18141934897E+02  0.71407823876E+02  0.00000000000E+00 0. -1.
         11    1    1    2    0    0  0.65848256023E+02  0.53429090126E+02  0.12444297093E+03  0.15058789297E+03  0.00000000000E+00 0.  1.
</event>
<event>
 7    1  0.2384639E-009  0.1744080E+03  0.7561462E-02  0.1173327E+00
         -1   -1    0    0    0  501 -0.00000000000E+00  0.00000000000E+00  0.22711668408E+02  0.22711668408E+02  0.00000000000E+00 0.  1.
          1   -1    0    0  501    0  0.00000000000E+00 -0.00000000000E+00 -0.20874341404E+04  0.20874341404E+04  0.00000000000E+00 0. -1.
         25    2    1    2    0    0 -0.97692548958E+02 -0.10913052418E+03 -0.16283877086E+04  0.16397394904E+04  0.12508301891E+03 0.  0.
          5    1    3    3  502    0 -0.59253792117E+02 -0.13401098645E+03 -0.12547322784E+04  0.12632658150E+04  0.41800000000E+01 0. -1.
         -5    1    3    3    0  502 -0.38438756841E+02  0.24880462274E+02 -0.37365543016E+03  0.37647367547E+03  0.41800000000E+01 0. -1.
        -11    1    1    2    0    0  0.42335354204E+02  0.11255464597E+02 -0.43266911858E+02  0.61571043199E+02  0.00000000000E+00 0.  1.
         11    1    1    2    0    0  0.55357194755E+02  0.97875059580E+02 -0.39306785154E+03  0.40883527516E+03  0.00000000000E+00 0. -1.
</event>
<event>
 7    1  0.2384639E-009  0.1109397E+03  0.7561462E-02  0.1258840E+00
         -1   -1    0    0    0  501 -0.00000000000E+00  0.00000000000E+00  0.21708060930E+02  0.21708060930E+02  0.00000000000E+00 0.  1.
          1   -1    0    0  501    0  0.00000000000E+00 -0.00000000000E+00 -0.65650144239E+03  0.65650144239E+03  0.00000000000E+00 0. -1.
         25    2    1    2    0    0 -0.27305534996E+02  0.35752249836E+00 -0.24298663888E+03  0.27465522589E+03  0.12508903376E+03 0.  0.
          5    1    3    3  502    0 -0.50153403566E+02 -0.49882164924E+02 -0.15894446215E+03  0.17402416130E+03  0.41800000000E+01 0. -1.
         -5    1    3    3    0  502  0.22847868570E+02  0.50239687423E+02 -0.84042176729E+02  0.10063106459E+03  0.41800000000E+01 0. -1.
        -11    1    1    2    0    0  0.34604229762E+02 -0.41415321741E+02 -0.19192254442E+03  0.19936635786E+03  0.00000000000E+00 0. -1.
         11    1    1    2    0    0 -0.72986947659E+01  0.41057799243E+02 -0.19988419817E+03  0.20418791957E+03  0.00000000000E+00 0.  1.
</event>
<event>
 7    1  0.2384639E-009  0.9333794E+02  0.7561462E-02  0.1294964E+00
         -1   -1    0    0    0  501 -0.00000000000E+00  0.00000000000E+00  0.13391568237E+02  0.13391568237E+02  0.00000000000E+00 0.  1.
          1   -1    0    0  501    0  0.00000000000E+00 -0.00000000000E+00 -0.13945916710E+04  0.13945916710E+04  0.00000000000E+00 0. -1.
         25    2    1    2    0    0  0.68847051878E+02 -0.98674640044E+01 -0.97871350620E+03  0.98912353388E+03  0.12509178494E+03 0.  0.
          5    1    3    3  502    0  0.43887950146E+02  0.23786153055E+01 -0.92833926010E+02  0.10279795814E+03  0.41800000000E+01 0.  1.
         -5    1    3    3    0  502  0.24959101732E+02 -0.12246079310E+02 -0.88587958019E+03  0.88632557574E+03  0.41800000000E+01 0.  1.
        -11    1    1    2    0    0  0.20978637866E+02 -0.86581153231E+01 -0.55609857071E+02  0.60062654047E+02  0.00000000000E+00 0. -1.
         11    1    1    2    0    0 -0.89825689744E+02  0.18525579328E+02 -0.34687673946E+03  0.35879705128E+03  0.00000000000E+00 0.  1.
</event>
<event>
 7    1  0.2384639E-009  0.1159706E+03  0.7561462E-02  0.1249896E+00
         -1   -1    0    0    0  501 -0.00000000000E+00  0.00000000000E+00  0.74749573322E+03  0.74749573322E+03  0.00000000000E+00 0.  1.
          1   -1    0    0  501    0  0.00000000000E+00 -0.00000000000E+00 -0.18440454896E+02  0.18440454896E+02  0.00000000000E+00 0. -1.
         25    2    1    2    0    0  0.34670790695E+01 -0.44342725290E+02  0.38390361415E+03  0.40621356732E+03  0.12509668020E+03 0.  0.
          5    1    3    3  502    0  0.61581691178E+02 -0.81881630512E+01  0.21746633581E+03  0.22620439942E+03  0.41800000000E+01 0. -1.
         -5    1    3    3    0  502 -0.58114612109E+02 -0.36154562239E+02  0.16643727833E+03  0.18000916790E+03  0.41800000000E+01 0. -1.
        -11    1    1    2    0    0 -0.63714234114E+01  0.72510166997E+02  0.25920091794E+03  0.26922747857E+03  0.00000000000E+00 0.  1.
         11    1    1    2    0    0  0.29043443419E+01 -0.28167441707E+02  0.85950746235E+02  0.90495142227E+02  0.00000000000E+00 0. -1.
</event>
<event>
 7    1  0.2384639E-009  0.7795178E+02  0.7561462E-02  0.1334967E+00
          1   -1    0    0  501    0  0.00000000000E+00  0.00000000000E+00  0.26579619325E+03  0.26579619325E+03  0.00000000000E+00 0. -1.
         -1   -1    0    0    0  501 -0.00000000000E+00 -0.00000000000E+00 -0.59660850125E+02  0.59660850125E+02  0.00000000000E+00 0.  1.
         25    2    1    2    0    0 -0.61884135990E+01 -0.33917730520E+02  0.18382160269E+03  0.22500507212E+03  0.12509273343E+03 0.  0.
          5    1    3    3  502    0 -0.10130543509E+02 -0.62102008442E+02  0.32442400384E+02  0.70917339960E+02  0.41800000000E+01 0.  1.
         -5    1    3    3    0  502  0.39421299101E+01  0.28184277922E+02  0.15137920231E+03  0.15408773216E+03  0.41800000000E+01 0.  1.
        -11    1    1    2    0    0  0.24999314196E+02 -0.33315208683E+00 -0.27482959137E+02  0.37153596643E+02  0.00000000000E+00 0.  1.
         11    1    1    2    0    0 -0.18810900597E+02  0.34250882607E+02  0.49796699568E+02  0.63298374612E+02  0.00000000000E+00 0. -1.
</event>
<event>
 7    1  0.2384639E-009  0.1832889E+03  0.7561462E-02  0.1164657E+00
         -1   -1    0    0    0  501 -0.00000000000E+00  0.00000000000E+00  0.27876655399E+03  0.27876655399E+03  0.00000000000E+00 0.  1.
          1   -1    0    0  501    0  0.00000000000E+00 -0.00000000000E+00 -0.14121065363E+03  0.14121065363E+03  0.00000000000E+00 0. -1.
         25    2    1    2    0    0  0.28077379602E+02  0.16270492714E+03  0.97872150703E+02  0.22910339533E+03  0.12509266688E+03 0.  0.
          5    1    3    3  502    0  0.60820647665E+02  0.14539574245E+03  0.10723647477E+03  0.19067303697E+03  0.41800000000E+01 0. -1.
         -5    1    3    3    0  502 -0.32743268063E+02  0.17309184684E+02 -0.93643240716E+01  0.38430358353E+02  0.41800000000E+01 0. -1.
        -11    1    1    2    0    0 -0.23456576512E+01 -0.13005116331E+03  0.61550195819E+02  0.14390008267E+03  0.00000000000E+00 0. -1.
         11    1    1    2    0    0 -0.25731721951E+02 -0.32653763827E+02 -0.21866446160E+02  0.46973729618E+02  0.00000000000E+00 0.  1.
</event>
<event>
 7    1  0.2384639E-009  0.1200592E+03  0.7561462E-02  0.1242999E+00
         -1   -1    0    0    0  501 -0.00000000000E+00  0.00000000000E+00  0.51256664208E+02  0.51256664208E+02  0.00000000000E+00 0.  1.
          1   -1    0    0  501    0  0.00000000000E+00 -0.00000000000E+00 -0.36190033785E+03  0.36190033785E+03  0.00000000000E+00 0. -1.
         25    2    1    2    0    0 -0.28909096075E+02 -0.75823835174E+02 -0.16249823097E+03  0.22054007566E+03  0.12508900865E+03 0.  0.
          5    1    3    3  502    0 -0.57428264370E+02 -0.70014508674E+02 -0.16774494847E+03  0.19067217183E+03  0.41800000000E+01 0.  1.
         -5    1    3    3    0  502  0.28519168295E+02 -0.58093264991E+01  0.52467174973E+01  0.29867903828E+02  0.41800000000E+01 0.  1.
        -11    1    1    2    0    0  0.17823993690E+02  0.95678738311E+02 -0.13476058826E+03  0.16623035783E+03  0.00000000000E+00 0. -1.
         11    1    1    2    0    0  0.11085102386E+02 -0.19854903137E+02 -0.13384854414E+02  0.26386568575E+02  0.00000000000E+00 0.  1.
</event>
<event>
 7    1  0.2384639E-009  0.1141795E+03  0.7561462E-02  0.1253020E+00
         -1   -1    0    0    0  501 -0.00000000000E+00  0.00000000000E+00  0.67359970016E+02  0.67359970016E+02  0.00000000000E+00 0.  1.
          1   -1    0    0  501    0  0.00000000000E+00 -0.00000000000E+00 -0.22448847764E+03  0.22448847764E+03  0.00000000000E+00 0. -1.
         25    2    1    2    0    0  0.47838695031E+02 -0.10625476405E+02 -0.54193559271E+02  0.14486533182E+03  0.12509029142E+03 0.  0.
          5    1    3    3  502    0  0.53285354646E+02 -0.60559355912E+02 -0.17839953413E+02  0.82719410938E+02  0.41800000000E+01 0.  1.
         -5    1    3    3    0  502 -0.54466596151E+01  0.49933879507E+02 -0.36353605858E+02  0.62145920884E+02  0.41800000000E+01 0.  1.
        -11    1    1    2    0    0  0.10027511810E+02 -0.26565853433E+02 -0.75495655596E+01  0.29381822644E+02  0.00000000000E+00 0.  1.
         11    1    1    2    0    0 -0.57866206841E+02  0.37191329838E+02 -0.95385382792E+02  0.11760129319E+03  0.00000000000E+00 0. -1.
</event>
<event>
 7    1  0.2384639E-009  0.1213303E+03  0.7561462E-02  0.1240919E+00
          2   -1    0    0  501    0  0.00000000000E+00  0.00000000000E+00  0.27290935875E+03  0.27290935875E+03  0.00000000000E+00 0.  1.
         -2   -1    0    0    0  501 -0.00000000000E+00 -0.00000000000E+00 -0.96334916139E+02  0.96334916139E+02  0.00000000000E+00 0. -1.
         25    2    1    2    0    0 -0.25711656964E+02  0.11440045515E+03  0.62958854555E+02  0.18264603224E+03  0.12508877760E+03 0.  0.
          5    1    3    3  502    0  0.92564080597E+01  0.26725286940E+02  0.81492114654E+02  0.86361792496E+02  0.41800000000E+01 0. -1.
         -5    1    3    3    0  502 -0.34968065024E+02  0.87675168215E+02 -0.18533260100E+02  0.96284239743E+02  0.41800000000E+01 0. -1.
        -11    1    1    2    0    0  0.64998890981E+01 -0.79355022630E+02  0.12207621974E+03  0.14574660065E+03  0.00000000000E+00 0.  1.
         11    1    1    2    0    0  0.19211767866E+02 -0.35045432524E+02 -0.84606316863E+01  0.40851641997E+02  0.00000000000E+00 0. -1.
</event>
<event>
 7    1  0.2384639E-009  0.1428679E+03  0.7561462E-02  0.1209521E+00
         -1   -1    0    0    0  501 -0.00000000000E+00  0.00000000000E+00  0.54813062829E+02  0.54813062829E+02  0.00000000000E+00 0.  1.
          1   -1    0    0  501    0  0.00000000000E+00 -0.00000000000E+00 -0.48079981273E+03  0.48079981273E+03  0.00000000000E+00 0. -1.
         25    2    1    2    0    0  0.10688926919E+03  0.27811870932E+02 -0.30736902883E+03  0.34974576761E+03  0.12509023160E+03 0.  0.
          5    1    3    3  502    0  0.12999253112E+03  0.23821458807E+01 -0.26356956665E+03  0.29392196520E+03  0.41800000000E+01 0. -1.
         -5    1    3    3    0  502 -0.23103261922E+02  0.25429725051E+02 -0.43799462185E+02  0.55823802408E+02  0.41800000000E+01 0. -1.
        -11    1    1    2    0    0 -0.89703689841E+02 -0.16218333969E+01 -0.12503320469E+03  0.15389179507E+03  0.00000000000E+00 0. -1.
         11    1    1    2    0    0 -0.17185579354E+02 -0.26190037535E+02  0.64154836196E+01  0.31975312882E+02  0.00000000000E+00 0.  1.
</event>
<event>
 7    1  0.2384639E-009  0.1041060E+03  0.7561462E-02  0.1271891E+00
         -4   -1    0    0    0  501 -0.00000000000E+00  0.00000000000E+00  0.29982112179E+03  0.29982112179E+03  0.00000000000E+00 0. -1.
          4   -1    0    0  501    0  0.00000000000E+00 -0.00000000000E+00 -0.63893802075E+02  0.63893802075E+02  0.00000000000E+00 0.  1.
         25    2    1    2    0    0 -0.38856296099E+02 -0.47626801097E+02  0.20592890885E+03  0.24866113090E+03  0.12509004193E+03 0.  0.
          5    1    3    3  502    0  0.35147813664E+02  0.22016454214E+01  0.16256302446E+02  0.39012252142E+02  0.41800000000E+01 0. -1.
         -5    1    3    3    0  502 -0.74004109763E+02 -0.49828446518E+02  0.18967260640E+03  0.20964887876E+03  0.41800000000E+01 0. -1.
        -11    1    1    2    0    0  0.52827355224E+02  0.44605642154E+02 -0.12459744467E+02  0.70254095995E+02  0.00000000000E+00 0.  1.
         11    1    1    2    0    0 -0.13971059125E+02  0.30211589430E+01  0.42458155338E+02  0.44799696976E+02  0.00000000000E+00 0. -1.
</event>
<event>
 7    1  0.2384639E-009  0.2789121E+03  0.7561462E-02  0.1096285E+00
         -2   -1    0    0    0  501 -0.00000000000E+00  0.00000000000E+00  0.67180282319E+02  0.67180282319E+02  0.00000000000E+00 0.  1.
          2   -1    0    0  501    0  0.00000000000E+00 -0.00000000000E+00 -0.14938902558E+04  0.14938902558E+04  0.00000000000E+00 0. -1.
         25    2    1    2    0    0 -0.55775231897E+02 -0.26399727153E+03 -0.10346585032E+04  0.10765553086E+04  0.12509068012E+03 0.  0.
          5    1    3    3  502    0 -0.25956790245E+02 -0.24655059491E+03 -0.98622729477E+03  0.10169182367E+04  0.41800000000E+01 0.  1.
         -5    1    3    3    0  502 -0.29818441652E+02 -0.17446676617E+02 -0.48431208452E+02  0.59637071857E+02  0.41800000000E+01 0.  1.
        -11    1    1    2    0    0  0.65114022211E+02  0.19825579087E+03 -0.34475941415E+03  0.40299410436E+03  0.00000000000E+00 0.  1.
         11    1    1    2    0    0 -0.93387903140E+01  0.65741480656E+02 -0.47292056143E+02  0.81521125223E+02  0.00000000000E+00 0. -1.
</event>
<event>
 7    1  0.2384639E-009  0.8331890E+02  0.7561462E-02  0.1319888E+00
          2   -1    0    0  501    0  0.00000000000E+00  0.00000000000E+00  0.38359808595E+03  0.38359808595E+03  0.00000000000E+00 0. -1.
         -2   -1    0    0    0  501 -0.00000000000E+00 -0.00000000000E+00 -0.39277378437E+02  0.39277378437E+02  0.00000000000E+00 0.  1.
         25    2    1    2    0    0 -0.24651816565E+02  0.51779317097E+02  0.20082731911E+03  0.24345262885E+03  0.12509500652E+03 0.  0.
          5    1    3    3  502    0  0.92278959441E+00 -0.14940583991E+01 -0.17061570368E+02  0.17653705972E+02  0.41800000000E+01 0.  1.
         -5    1    3    3    0  502 -0.25574606159E+02  0.53273375496E+02  0.21788888948E+03  0.22579892288E+03  0.41800000000E+01 0.  1.
        -11    1    1    2    0    0  0.42862552480E+02  0.50755512734E+01  0.34922318023E+02  0.55520518026E+02  0.00000000000E+00 0.  1.
         11    1    1    2    0    0 -0.18210735915E+02 -0.56854868371E+02  0.10857107039E+03  0.12390231751E+03  0.00000000000E+00 0. -1.
</event>
<event>
 7    1  0.2384639E-009  0.1329471E+03  0.7561462E-02  0.1223147E+00
         -2   -1    0    0    0  501 -0.00000000000E+00  0.00000000000E+00  0.47347507751E+03  0.47347507751E+03  0.00000000000E+00 0.  1.
          2   -1    0    0  501    0  0.00000000000E+00 -0.00000000000E+00 -0.58367533809E+02  0.58367533809E+02  0.00000000000E+00 0. -1.
         25    2    1    2    0    0 -0.17204736184E+02 -0.11821371409E+03  0.28331659978E+03  0.33194223062E+03  0.12508742388E+03 0.  0.
          5    1    3    3  502    0 -0.15914985635E+02 -0.37223397555E+02  0.23292684563E+03  0.23645561086E+03  0.41800000000E+01 0. -1.
         -5    1    3    3    0  502 -0.12897505494E+01 -0.80990316537E+02  0.50389754144E+02  0.95486619754E+02  0.41800000000E+01 0. -1.
        -11    1    1    2    0    0 -0.30841486858E+01  0.12316486230E+03  0.88060223929E+02  0.15143876095E+03  0.00000000000E+00 0. -1.
         11    1    1    2    0    0  0.20288884870E+02 -0.49511482076E+01  0.43730719995E+02  0.48461619753E+02  0.00000000000E+00 0.  1.
</event>
<event>
 7    1  0.2384639E-009  0.1817417E+03  0.7561462E-02  0.1166128E+00
         -1   -1    0    0    0  501 -0.00000000000E+00  0.00000000000E+00  0.17434220136E+03  0.17434220136E+03  0.00000000000E+00 0.  1.
          1   -1    0    0  501    0  0.00000000000E+00 -0.00000000000E+00 -0.25170333105E+03  0.25170333105E+03  0.00000000000E+00 0. -1.
         25    2    1    2    0    0 -0.16296504539E+03  0.49075222907E+02  0.14884968101E+02  0.21174244039E+03  0.12508922920E+03 0.  0.
          5    1    3    3  502    0 -0.10705986303E+03  0.68814761485E+02  0.56375027319E+02  0.13925839930E+03  0.41800000000E+01 0.  1.
         -5    1    3    3    0  502 -0.55905182362E+02 -0.19739538578E+02 -0.41490059218E+02  0.72484041086E+02  0.41800000000E+01 0.  1.
        -11    1    1    2    0    0  0.10495235233E+03 -0.72675811474E+01 -0.10548439030E+02  0.10573118538E+03  0.00000000000E+00 0.  1.
         11    1    1    2    0    0  0.58012693059E+02 -0.41807641759E+02 -0.81697658761E+02  0.10857190664E+03  0.00000000000E+00 0. -1.
</event>
<event>
 7    1  0.2384639E-009  0.1975898E+03  0.7561462E-02  0.1151789E+00
          2   -1    0    0  501    0  0.00000000000E+00  0.00000000000E+00  0.37212380602E+02  0.37212380602E+02  0.00000000000E+00 0.  1.
         -2   -1    0    0    0  501 -0.00000000000E+00 -0.00000000000E+00 -0.12350441915E+04  0.12350441915E+04  0.00000000000E+00 0. -1.
         25    2    1    2    0    0  0.16009009071E+03  0.70781486898E+02 -0.80781003213E+03  0.83596779116E+03  0.12508494641E+03 0.  0.
          5    1    3    3  502    0 -0.31424864583E+01 -0.20469840278E+02 -0.35348486004E+02  0.41181032587E+02  0.41800000000E+01 0. -1.
         -5    1    3    3    0  502  0.16323257717E+03  0.91251327177E+02 -0.77246154612E+03  0.79478675857E+03  0.41800000000E+01 0. -1.
        -11    1    1    2    0    0 -0.22727568483E+02 -0.40342113129E+02 -0.49167573785E+02  0.67538720544E+02  0.00000000000E+00 0.  1.
         11    1    1    2    0    0 -0.13736252223E+03 -0.30439373769E+02 -0.34085420498E+03  0.36875006040E+03  0.00000000000E+00 0. -1.
</event>
<event>
 7    1  0.2384639E-009  0.1000246E+03  0.7561462E-02  0.1280244E+00
         -2   -1    0    0    0  501 -0.00000000000E+00  0.00000000000E+00  0.15376151961E+02  0.15376151961E+02  0.00000000000E+00 0.  1.
          2   -1    0    0  501    0  0.00000000000E+00 -0.00000000000E+00 -0.14423888289E+04  0.14423888289E+04  0.00000000000E+00 0. -1.
         25    2    1    2    0    0 -0.36319862305E+02  0.23292769058E+02 -0.12196546930E+04  0.12268115969E+04  0.12508972203E+03 0.  0.
          5    1    3    3  502    0 -0.67811755614E+02  0.24731992621E+01 -0.10783544495E+04  0.10804954151E+04  0.41800000000E+01 0.  1.
         -5    1    3    3    0  502  0.31491893309E+02  0.20819569796E+02 -0.14130024352E+03  0.14631618177E+03  0.41800000000E+01 0.  1.
        -11    1    1    2    0    0 -0.13699950029E+02  0.22449622343E+02 -0.24524810639E+02  0.35960262944E+02  0.00000000000E+00 0. -1.
         11    1    1    2    0    0  0.50019812334E+02 -0.45742391400E+02 -0.18283317324E+03  0.19499312099E+03  0.00000000000E+00 0.  1.
</event>
<event>
 7    1  0.2384639E-009  0.1396951E+03  0.7561462E-02  0.1213740E+00
         -2   -1    0    0    0  501 -0.00000000000E+00  0.00000000000E+00  0.16548835764E+03  0.16548835764E+03  0.00000000000E+00 0. -1.
          2   -1    0    0  501    0  0.00000000000E+00 -0.00000000000E+00 -0.14447808627E+03  0.14447808627E+03  0.00000000000E+00 0.  1.
         25    2    1    2    0    0  0.13471153018E+02 -0.10853070431E+03  0.44303221543E+01  0.16621169324E+03  0.12508522484E+03 0.  0.
          5    1    3    3  502    0  0.75098456731E+01 -0.13589462128E+03  0.12580688900E+02  0.13674608590E+03  0.41800000000E+01 0. -1.
         -5    1    3    3    0  502  0.59613073452E+01  0.27363916976E+02 -0.81503667458E+01  0.29465607335E+02  0.41800000000E+01 0. -1.
        -11    1    1    2    0    0  0.11765945635E+02  0.45897186502E+02 -0.34896215632E+02  0.58845008887E+02  0.00000000000E+00 0.  1.
         11    1    1    2    0    0 -0.25237098653E+02  0.62633517807E+02  0.51476164849E+02  0.84909741778E+02  0.00000000000E+00 0. -1.
</event>
<event>
 7    1  0.2384639E-009  0.1630308E+03  0.7561462E-02  0.1185317E+00
         -1   -1    0    0    0  501 -0.00000000000E+00  0.00000000000E+00  0.23713758962E+03  0.23713758962E+03  0.00000000000E+00 0.  1.
          1   -1    0    0  501    0  0.00000000000E+00 -0.00000000000E+00 -0.20308561693E+03  0.20308561693E+03  0.00000000000E+00 0. -1.
         25    2    1    2    0    0 -0.64978970061E+02  0.10583283990E+03  0.16444998521E+03  0.24106676846E+03  0.12508610102E+03 0.  0.
          5    1    3    3  502    0  0.14494247341E+02  0.94486569862E+02  0.83718178910E+02  0.12713772442E+03  0.41800000000E+01 0.  1.
         -5    1    3    3    0  502 -0.79473217403E+02  0.11346270042E+02  0.80731806297E+02  0.11392904404E+03  0.41800000000E+01 0.  1.
        -11    1    1    2    0    0 -0.20387816305E+02 -0.14802178846E+02 -0.28535378375E+02  0.38066197227E+02  0.00000000000E+00 0.  1.
         11    1    1    2    0    0  0.85366786366E+02 -0.91030661058E+02 -0.10186263414E+03  0.16109024086E+03  0.00000000000E+00 0. -1.
</event>
<event>
 7    1  0.2384639E-009  0.1109432E+03  0.7561462E-02  0.1258833E+00
          1   -1    0    0  501    0  0.00000000000E+00  0.00000000000E+00  0.27297464831E+03  0.27297464831E+03  0.00000000000E+00 0. -1.
         -1   -1    0    0    0  501 -0.00000000000E+00 -0.00000000000E+00 -0.64113733912E+02  0.64113733912E+02  0.00000000000E+00 0.  1.
         25    2    1    2    0    0 -0.59350554595E+02  0.16769450113E+02  0.60457134340E+02  0.15200660319E+03  0.12508892650E+03 0.  0.
          5    1    3    3  502    0 -0.65554598305E+02  0.50327221164E+02  0.77727793871E+02  0.11353112740E+03  0.41800000000E+01 0. -1.
         -5    1    3    3    0  502  0.62040437101E+01 -0.33557771051E+02 -0.17270659532E+02  0.38475475785E+02  0.41800000000E+01 0. -1.
        -11    1    1    2    0    0  0.54180159239E+02 -0.48432351900E+02  0.12760462406E+03  0.14684727593E+03  0.00000000000E+00 0.  1.
         11    1    1    2    0    0  0.51703953555E+01  0.31662901787E+02  0.20799155999E+02  0.38234503109E+02  0.00000000000E+00 0. -1.
</event>
<event>
 7    1  0.2384639E-009  0.1844524E+03  0.7561462E-02  0.1163562E+00
          1   -1    0    0  501    0  0.00000000000E+00  0.00000000000E+00  0.99567054843E+03  0.99567054843E+03  0.00000000000E+00 0. -1.
         -1   -1    0    0    0  501 -0.00000000000E+00 -0.00000000000E+00 -0.39380388001E+02  0.39380388001E+02  0.00000000000E+00 0.  1.
         25    2    1    2    0    0 -0.13245888197E+03 -0.94326647097E+02  0.46289520958E+03  0.50632252705E+03  0.12509058549E+03 0.  0.
          5    1    3    3  502    0 -0.83980065495E+01 -0.57722765235E+02  0.62777112204E+02  0.85795584718E+02  0.41800000000E+01 0.  1.
         -5    1    3    3    0  502 -0.12406087542E+03 -0.36603881862E+02  0.40011809738E+03  0.42052694233E+03  0.41800000000E+01 0.  1.
        -11    1    1    2    0    0  0.10656878187E+03  0.10800318059E+03  0.33651629820E+03  0.36914063884E+03  0.00000000000E+00 0.  1.
         11    1    1    2    0    0  0.25890100098E+02 -0.13676533493E+02  0.15687865265E+03  0.15958777055E+03  0.00000000000E+00 0. -1.
</event>
<event>
 7    1  0.2384639E-009  0.1692226E+03  0.7561462E-02  0.1178661E+00
          2   -1    0    0  501    0  0.00000000000E+00  0.00000000000E+00  0.20436974318E+03  0.20436974318E+03  0.00000000000E+00 0. -1.
         -2   -1    0    0    0  501 -0.00000000000E+00 -0.00000000000E+00 -0.15243739972E+03  0.15243739972E+03  0.00000000000E+00 0.  1.
         25    2    1    2    0    0 -0.48662449098E+01 -0.13675943038E+03  0.12476795093E+02  0.18582462745E+03  0.12509316373E+03 0.  0.
          5    1    3    3  502    0  0.45887943617E+02 -0.13603986685E+02 -0.13805573492E+02  0.49988379475E+02  0.41800000000E+01 0.  1.
         -5    1    3    3    0  502 -0.50754188527E+02 -0.12315544370E+03  0.26282368585E+02  0.13583624798E+03  0.41800000000E+01 0.  1.
        -11    1    1    2    0    0  0.31239366440E+02  0.19239136696E+02 -0.13922374842E+02  0.39241240011E+02  0.00000000000E+00 0.  1.
         11    1    1    2    0    0 -0.26373121530E+02  0.11752029369E+03  0.53377923206E+02  0.13174127544E+03  0.00000000000E+00 0. -1.
</event>
<event>
 7    1  0.4317155E-009  0.1015975E+03  0.7561462E-02  0.1276972E+00
          2   -1    0    0  501    0  0.00000000000E+00  0.00000000000E+00  0.15708700554E+04  0.15708700554E+04  0.00000000000E+00 0. -1.
         -2   -1    0    0    0  501 -0.00000000000E+00 -0.00000000000E+00 -0.12772502829E+02  0.12772502829E+02  0.00000000000E+00 0.  1.
         25    2    1    2    0    0  0.16639632049E+02  0.50558381142E+02  0.12632079989E+04  0.12705024998E+04  0.12509646763E+03 0.  0.
          5    1    3    3  502    0  0.65083162557E+02  0.68674816529E+01  0.80326747850E+03  0.80593988285E+03  0.41800000000E+01 0. -1.
         -5    1    3    3    0  502 -0.48443530508E+02  0.43690899489E+02  0.45994052039E+03  0.46456261693E+03  0.41800000000E+01 0. -1.
        -11    1    1    2    0    0  0.17426961704E+02 -0.19444050835E+02  0.16354496140E+02  0.30809733058E+02  0.00000000000E+00 0.  1.
         11    1    1    2    0    0 -0.34066593753E+02 -0.31114330307E+02  0.27853505757E+03  0.28233032543E+03  0.00000000000E+00 0. -1.
</event>
<event>
 7    1  0.2384639E-009  0.2384193E+03  0.7561462E-02  0.1120850E+00
          1   -1    0    0  501    0  0.00000000000E+00  0.00000000000E+00  0.12219808855E+03  0.12219808855E+03  0.00000000000E+00 0. -1.
         -1   -1    0    0    0  501 -0.00000000000E+00 -0.00000000000E+00 -0.69476033503E+03  0.69476033503E+03  0.00000000000E+00 0.  1.
         25    2    1    2    0    0 -0.16073399628E+03 -0.15053777986E+03 -0.51043053860E+03  0.56980886318E+03  0.12508303283E+03 0.  0.
          5    1    3    3  502    0 -0.61487316102E+02 -0.11829866771E+03 -0.37992561751E+03  0.40266141119E+03  0.41800000000E+01 0.  1.
         -5    1    3    3    0  502 -0.99246680173E+02 -0.32239112151E+02 -0.13050492109E+03  0.16714745199E+03  0.41800000000E+01 0.  1.
        -11    1    1    2    0    0  0.15158749806E+03  0.86914883268E+02 -0.49863822394E+02  0.18171232012E+03  0.00000000000E+00 0.  1.
         11    1    1    2    0    0  0.91464982184E+01  0.63622896591E+02 -0.12267885481E+02  0.65437240273E+02  0.00000000000E+00 0. -1.
</event>
<event>
 7    1  0.2384639E-009  0.8537628E+02  0.7561462E-02  0.1314451E+00
          1   -1    0    0  501    0  0.00000000000E+00  0.00000000000E+00  0.25228390205E+02  0.25228390205E+02  0.00000000000E+00 0. -1.
         -1   -1    0    0    0  501 -0.00000000000E+00 -0.00000000000E+00 -0.57166178810E+03  0.57166178810E+03  0.00000000000E+00 0.  1.
         25    2    1    2    0    0 -0.54990410687E+01  0.50485876544E+02 -0.33440153629E+03  0.36062536132E+03  0.12508877076E+03 0.  0.
          5    1    3    3  502    0 -0.22720980044E+02  0.47668861720E+02 -0.41810208080E+02  0.67484288627E+02  0.41800000000E+01 0. -1.
         -5    1    3    3    0  502  0.17221938976E+02  0.28170148246E+01 -0.29259132821E+03  0.29314107269E+03  0.41800000000E+01 0. -1.
        -11    1    1    2    0    0  0.41849273336E+02 -0.58262134677E+01 -0.12464296681E+03  0.13160993738E+03  0.00000000000E+00 0.  1.
         11    1    1    2    0    0 -0.36350232267E+02 -0.44659663077E+02 -0.87388894791E+02  0.10465487960E+03  0.00000000000E+00 0. -1.
</event>
<event>
 7    1  0.2384639E-009  0.5471071E+02  0.7561462E-02  0.1421472E+00
          2   -1    0    0  501    0  0.00000000000E+00  0.00000000000E+00  0.58684209116E+03  0.58684209116E+03  0.00000000000E+00 0. -1.
         -2   -1    0    0    0  501 -0.00000000000E+00 -0.00000000000E+00 -0.24819619194E+02  0.24819619194E+02  0.00000000000E+00 0.  1.
         25    2    1    2    0    0  0.79127291530E+01 -0.21730322629E+02  0.42275924895E+03  0.44148133987E+03  0.12508226361E+03 0.  0.
          5    1    3    3  502    0 -0.19153350327E+02 -0.92542729520E+01  0.40687448992E+03  0.40745161105E+03  0.41800000000E+01 0. -1.
         -5    1    3    3    0  502  0.27066079480E+02 -0.12476049677E+02  0.15884759032E+02  0.34029728818E+02  0.41800000000E+01 0. -1.
        -11    1    1    2    0    0  0.22677082508E+02  0.72817392769E+01 -0.29492075890E+01  0.23999408813E+02  0.00000000000E+00 0.  1.
         11    1    1    2    0    0 -0.30589811661E+02  0.14448583352E+02  0.14221243060E+03  0.14618096167E+03  0.00000000000E+00 0. -1.
</event>
<event>
 7    1  0.2384639E-009  0.8448139E+02  0.7561462E-02  0.1316794E+00
         -1   -1    0    0    0  501 -0.00000000000E+00  0.00000000000E+00  0.10835587350E+02  0.10835587350E+02  0.00000000000E+00 0.  1.
          1   -1    0    0  501    0  0.00000000000E+00 -0.00000000000E+00 -0.15078431897E+04  0.15078431897E+04  0.00000000000E+00 0. -1.
         25    2    1    2    0    0 -0.92769423503E+00 -0.38772322696E+02 -0.11727657645E+04  0.11800556826E+04  0.12509085555E+03 0.  0.
          5    1    3    3  502    0 -0.17173990633E+02  0.10605128347E+02 -0.31784376099E+02  0.37883158072E+02  0.41800000000E+01 0.  1.
         -5    1    3    3    0  502  0.16246296398E+02 -0.49377451042E+02 -0.11409813884E+04  0.11421725245E+04  0.41800000000E+01 0.  1.
        -11    1    1    2    0    0 -0.43517232000E+02  0.17142109660E+02 -0.18668952093E+03  0.19245929083E+03  0.00000000000E+00 0.  1.
         11    1    1    2    0    0  0.44444926236E+02  0.21630213035E+02 -0.13755231700E+03  0.14616380365E+03  0.00000000000E+00 0. -1.
</event>
<event>
 7    1  0.2384639E-009  0.5859172E+02  0.7561462E-02  0.1403838E+00
         -2   -1    0    0    0  501 -0.00000000000E+00  0.00000000000E+00  0.10586474437E+03  0.10586474437E+03  0.00000000000E+00 0.  1.
          2   -1    0    0  501    0  0.00000000000E+00 -0.00000000000E+00 -0.12553226474E+03  0.12553226474E+03  0.00000000000E+00 0. -1.
         25    2    1    2    0    0  0.27305373319E+02  0.14139015031E+02 -0.38891116671E+02  0.13455445927E+03  0.12508752294E+03 0.  0.
          5    1    3    3  502    0 -0.74914624231E+01  0.39374854239E+02 -0.70383971174E+02  0.81104111818E+02  0.41800000000E+01 0.  1.
         -5    1    3    3    0  502  0.34796835742E+02 -0.25235839209E+02  0.31492854503E+02  0.53450347454E+02  0.41800000000E+01 0.  1.
        -11    1    1    2    0    0 -0.17345243496E+02 -0.12244420362E+01 -0.35613379948E+02  0.39631673717E+02  0.00000000000E+00 0. -1.
         11    1    1    2    0    0 -0.99601298221E+01 -0.12914572995E+02  0.54836976256E+02  0.57210876122E+02  0.00000000000E+00 0.  1.
</event>
<event>
 7    1  0.2384639E-009  0.3927252E+03  0.7561462E-02  0.1046328E+00
         -2   -1    0    0    0  501 -0.00000000000E+00  0.00000000000E+00  0.93820571117E+03  0.93820571117E+03  0.00000000000E+00 0. -1.
          2   -1    0    0  501    0  0.00000000000E+00 -0.00000000000E+00 -0.21001924136E+03  0.21001924136E+03  0.00000000000E+00 0.  1.
         25    2    1    2    0    0 -0.28750843802E+03 -0.25854207136E+03  0.12404613532E+03  0.42489969277E+03  0.12508877099E+03 0.  0.
          5    1    3    3  502    0 -0.11896034853E+03 -0.14243109422E+03  0.11828143509E+03  0.22010486457E+03  0.41800000000E+01 0.  1.
         -5    1    3    3    0  502 -0.16854808950E+03 -0.11611097715E+03  0.57647002263E+01  0.20479482820E+03  0.41800000000E+01 0.  1.
        -11    1    1    2    0    0  0.17887155410E+03  0.10626008976E+03  0.35950080936E+03  0.41536378209E+03  0.00000000000E+00 0.  1.
         11    1    1    2    0    0  0.10863688392E+03  0.15228198161E+03  0.24463952514E+03  0.30796147767E+03  0.00000000000E+00 0. -1.
</event>
<event>
 7    1  0.2384639E-009  0.1286640E+03  0.7561462E-02  0.1229452E+00
          1   -1    0    0  501    0  0.00000000000E+00  0.00000000000E+00  0.13431217110E+03  0.13431217110E+03  0.00000000000E+00 0. -1.
         -1   -1    0    0    0  501 -0.00000000000E+00 -0.00000000000E+00 -0.17451648739E+03  0.17451648739E+03  0.00000000000E+00 0.  1.
         25    2    1    2    0    0 -0.34708825168E+02 -0.97737483341E+02  0.73831726269E+01  0.16266467903E+03  0.12509183974E+03 0.  0.
          5    1    3    3  502    0 -0.51082724100E+02 -0.75425606623E+02 -0.46188553545E+02  0.10222192384E+03  0.41800000000E+01 0. -1.
         -5    1    3    3    0  502  0.16373898932E+02 -0.22311876718E+02  0.53571726172E+02  0.60442755182E+02  0.41800000000E+01 0. -1.
        -11    1    1    2    0    0  0.55680250750E+02  0.10249501751E+03 -0.41640210174E+02  0.12385243656E+03  0.00000000000E+00 0.  1.
         11    1    1    2    0    0 -0.20971425582E+02 -0.47575341719E+01 -0.59472787485E+01  0.22311542906E+02  0.00000000000E+00 0. -1.
</event>
<event>
 7    1  0.2384639E-009  0.1424981E+03  0.7561462E-02  0.1210007E+00
          2   -1    0    0  501    0  0.00000000000E+00  0.00000000000E+00  0.86114958425E+02  0.86114958425E+02  0.00000000000E+00 0.  1.
         -2   -1    0    0    0  501 -0.00000000000E+00 -0.00000000000E+00 -0.46399686505E+03  0.46399686505E+03  0.00000000000E+00 0. -1.
         25    2    1    2    0    0 -0.10646172110E+03 -0.24864191423E+02 -0.23141999874E+02  0.16773055443E+03  0.12508261532E+03 0.  0.
          5    1    3    3  502    0 -0.12424403961E+03  0.80893321435E+01 -0.32823321476E+02  0.12882880697E+03  0.41800000000E+01 0.  1.
         -5    1    3    3    0  502  0.17782318511E+02 -0.32953523566E+02  0.96813216013E+01  0.38901747454E+02  0.41800000000E+01 0.  1.
        -11    1    1    2    0    0  0.87141933196E+02 -0.48742683088E+01 -0.32367656356E+03  0.33523721871E+03  0.00000000000E+00 0. -1.
         11    1    1    2    0    0  0.19319787904E+02  0.29738459731E+02 -0.31063343193E+02  0.47144050337E+02  0.00000000000E+00 0.  1.
</event>
<event>
 7    1  0.2384639E-009  0.8600901E+02  0.7561462E-02  0.1312815E+00
          1   -1    0    0  501    0  0.00000000000E+00  0.00000000000E+00  0.40702919517E+03  0.40702919517E+03  0.00000000000E+00 0. -1.
         -1   -1    0    0    0  501 -0.00000000000E+00 -0.00000000000E+00 -0.58371264050E+02  0.58371264050E+02  0.00000000000E+00 0.  1.
         25    2    1    2    0    0  0.28648581384E+02 -0.49393602383E+02  0.32561243502E+03  0.35345668391E+03  0.12509076860E+03 0.  0.
          5    1    3    3  502    0  0.27809859876E+02 -0.21369921361E+02  0.10187039686E+02  0.36760168972E+02  0.41800000000E+01 0.  1.
         -5    1    3    3    0  502  0.83872150766E+00 -0.28023681022E+02  0.31542539534E+03  0.31669651494E+03  0.41800000000E+01 0.  1.
        -11    1    1    2    0    0 -0.23455425646E+01  0.72982611203E+02  0.77040334999E+01  0.73425576199E+02  0.00000000000E+00 0.  1.
         11    1    1    2    0    0 -0.26303038819E+02 -0.23589008821E+02  0.15341462602E+02  0.38518199115E+02  0.00000000000E+00 0. -1.
</event>
<event>
 7    1  0.2384639E-009  0.1308854E+03  0.7561462E-02  0.1226148E+00
         -2   -1    0    0    0  501 -0.00000000000E+00  0.00000000000E+00  0.15245650308E+03  0.15245650308E+03  0.00000000000E+00 0. -1.
          2   -1    0    0  501    0  0.00000000000E+00 -0.00000000000E+00 -0.12513553970E+03  0.12513553970E+03  0.00000000000E+00 0.  1.
         25    2    1    2    0    0  0.35378508988E+02  0.70741189454E+02  0.48430567464E+02  0.15572082582E+03  0.12508997140E+03 0.  0.
          5    1    3    3  502    0 -0.38887007578E+02  0.55660792594E+02  0.41080217813E+02  0.79469364450E+02  0.41800000000E+01 0.  1.
         -5    1    3    3    0  502  0.74265516567E+02  0.15080396860E+02  0.73503496512E+01  0.76251461366E+02  0.41800000000E+01 0.  1.
        -11    1    1    2    0    0 -0.15517234289E+02 -0.89315440982E+02 -0.62153382028E+01  0.90866181755E+02  0.00000000000E+00 0. -1.
         11    1    1    2    0    0 -0.19861274699E+02  0.18574251528E+02 -0.14894265874E+02  0.31005035210E+02  0.00000000000E+00 0.  1.
</event>
<event>
 7    1  0.2384639E-009  0.2809566E+03  0.7561462E-02  0.1095168E+00
         -4   -1    0    0    0  501 -0.00000000000E+00  0.00000000000E+00  0.26244665029E+03  0.26244665029E+03  0.00000000000E+00 0.  1.
          4   -1    0    0  501    0  0.00000000000E+00 -0.00000000000E+00 -0.47574756359E+03  0.47574756359E+03  0.00000000000E+00 0. -1.
         25    2    1    2    0    0  0.16341662709E+03  0.22297932991E+03 -0.30759586258E+03  0.43207923491E+03  0.12510985170E+03 0.  0.
          5    1    3    3  502    0  0.47688817100E+02  0.25840022268E+02 -0.13519393723E+03  0.14572852532E+03  0.41800000000E+01 0. -1.
         -5    1    3    3    0  502  0.11572780999E+03  0.19713930764E+03 -0.17240192535E+03  0.28635070959E+03  0.41800000000E+01 0. -1.
        -11    1    1    2    0    0 -0.10904759216E+03 -0.11811412172E+03  0.97385833286E+02  0.18795298250E+03  0.00000000000E+00 0.  1.
         11    1    1    2    0    0 -0.54369034933E+02 -0.10486520818E+03 -0.30908840134E+01  0.11816199647E+03  0.00000000000E+00 0. -1.
</event>
<event>
 7    1  0.2384639E-009  0.8961961E+02  0.7561462E-02  0.1303775E+00
         -1   -1    0    0    0  501 -0.00000000000E+00  0.00000000000E+00  0.54670746410E+02  0.54670746410E+02  0.00000000000E+00 0.  1.
          1   -1    0    0  501    0  0.00000000000E+00 -0.00000000000E+00 -0.27514492408E+03  0.27514492408E+03  0.00000000000E+00 0. -1.
         25    2    1    2    0    0 -0.35503444915E+02 -0.20231387428E+02 -0.17675706395E+03  0.22036483566E+03  0.12509115676E+03 0.  0.
          5    1    3    3  502    0  0.24424868027E+02 -0.38945910808E+02 -0.17917010947E+02  0.49516157243E+02  0.41800000000E+01 0. -1.
         -5    1    3    3    0  502 -0.59928312943E+02  0.18714523381E+02 -0.15884005301E+03  0.17084867842E+03  0.41800000000E+01 0. -1.
        -11    1    1    2    0    0  0.12548041214E+02  0.38706895486E+02 -0.62447911712E+02  0.74534681684E+02  0.00000000000E+00 0. -1.
         11    1    1    2    0    0  0.22955403702E+02 -0.18475508059E+02  0.18730797995E+02  0.34916153148E+02  0.00000000000E+00 0.  1.
</event>
<event>
 7    1  0.2384639E-009  0.2430337E+03  0.7561462E-02  0.1117788E+00
          2   -1    0    0  501    0  0.00000000000E+00  0.00000000000E+00  0.87714222979E+02  0.87714222979E+02  0.00000000000E+00 0. -1.
         -2   -1    0    0    0  501 -0.00000000000E+00 -0.00000000000E+00 -0.76178178828E+03  0.76178178828E+03  0.00000000000E+00 0.  1.
         25    2    1    2    0    0  0.39415499954E+02 -0.23084156083E+03 -0.35293753182E+03  0.44164877774E+03  0.12508930277E+03 0.  0.
          5    1    3    3  502    0  0.36511238297E+02 -0.23811141867E+03 -0.28525631704E+03  0.37338821223E+03  0.41800000000E+01 0.  1.
         -5    1    3    3    0  502  0.29042616572E+01  0.72698578422E+01 -0.67681214783E+02  0.68260565507E+02  0.41800000000E+01 0.  1.
        -11    1    1    2    0    0  0.54453793873E+01  0.26684658842E+02 -0.32891346887E+01  0.27432491341E+02  0.00000000000E+00 0.  1.
         11    1    1    2    0    0 -0.44860879341E+02  0.20415690199E+03 -0.31784089879E+03  0.38041474218E+03  0.00000000000E+00 0. -1.
</event>
<event>
 7    1  0.2384639E-009  0.7533895E+02  0.7561462E-02  0.1342825E+00
          4   -1    0    0  501    0  0.00000000000E+00  0.00000000000E+00  0.20070607711E+03  0.20070607711E+03  0.00000000000E+00 0. -1.
         -4   -1    0    0    0  501 -0.00000000000E+00 -0.00000000000E+00 -0.87001078753E+02  0.87001078753E+02  0.00000000000E+00 0.  1.
         25    2    1    2    0    0  0.15002841242E+02  0.55978643338E+02  0.10841612115E+03  0.17538689184E+03  0.12509121771E+03 0.  0.
          5    1    3    3  502    0  0.18847900615E+02  0.39277654822E+02  0.13587516188E+03  0.14274981451E+03  0.41800000000E+01 0.  1.
         -5    1    3    3    0  502 -0.38450593730E+01  0.16700988516E+02 -0.27459040728E+02  0.32637077331E+02  0.41800000000E+01 0.  1.
        -11    1    1    2    0    0 -0.29186977164E+02  0.23136891730E+01  0.34786115707E+02  0.45467643875E+02  0.00000000000E+00 0. -1.
         11    1    1    2    0    0  0.14184135922E+02 -0.58292332511E+02 -0.29497238504E+02  0.66852620149E+02  0.00000000000E+00 0.  1.
</event>
<event>
 7    1  0.2384639E-009  0.1546219E+03  0.7561462E-02  0.1194906E+00
          1   -1    0    0  501    0  0.00000000000E+00  0.00000000000E+00  0.99568666596E+03  0.99568666596E+03  0.00000000000E+00 0. -1.
         -1   -1    0    0    0  501 -0.00000000000E+00 -0.00000000000E+00 -0.26424973913E+02  0.26424973913E+02  0.00000000000E+00 0.  1.
         25    2    1    2    0    0 -0.11309746748E+03  0.32809702834E+02  0.44168375992E+03  0.47391930572E+03  0.12508977102E+03 0.  0.
          5    1    3    3  502    0 -0.12419822585E+03  0.54923383934E+02  0.41756977157E+03  0.43911702761E+03  0.41800000000E+01 0. -1.
         -5    1    3    3    0  502  0.11100758364E+02 -0.22113681100E+02  0.24113988342E+02  0.34802278112E+02  0.41800000000E+01 0. -1.
        -11    1    1    2    0    0  0.69931036413E+02  0.26625505116E+02  0.29143990842E+03  0.30089281746E+03  0.00000000000E+00 0.  1.
         11    1    1    2    0    0  0.43166431068E+02 -0.59435207950E+02  0.23613802371E+03  0.24729951669E+03  0.00000000000E+00 0. -1.
</event>
<event>
 7    1  0.3063404E-009  0.1329999E+03  0.7561462E-02  0.1223071E+00
          2   -1    0    0  501    0  0.00000000000E+00  0.00000000000E+00  0.27695826172E+03  0.27695826172E+03  0.00000000000E+00 0. -1.
         -2   -1    0    0    0  501 -0.00000000000E+00 -0.00000000000E+00 -0.95256679415E+02  0.95256679415E+02  0.00000000000E+00 0.  1.
         25    2    1    2    0    0 -0.36519828308E+02 -0.95976113910E+02  0.16901108004E+03  0.23399430837E+03  0.12507389364E+03 0.  0.
          5    1    3    3  502    0 -0.78780850257E+02 -0.32508239188E+02  0.84378477573E+02  0.12000169940E+03  0.41800000000E+01 0. -1.
         -5    1    3    3    0  502  0.42261021949E+02 -0.63467874722E+02  0.84632602467E+02  0.11399260896E+03  0.41800000000E+01 0. -1.
        -11    1    1    2    0    0  0.23648460849E+02  0.36766788530E+02 -0.38993894269E+02  0.58579605918E+02  0.00000000000E+00 0.  1.
         11    1    1    2    0    0  0.12871367459E+02  0.59209325380E+02  0.51684396532E+02  0.79641026847E+02  0.00000000000E+00 0. -1.
</event>
<event>
 7    1  0.2384639E-009  0.1074649E+03  0.7561462E-02  0.1265338E+00
          2   -1    0    0  501    0  0.00000000000E+00  0.00000000000E+00  0.35763626421E+03  0.35763626421E+03  0.00000000000E+00 0. -1.
         -2   -1    0    0    0  501 -0.00000000000E+00 -0.00000000000E+00 -0.34239418934E+02  0.34239418934E+02  0.00000000000E+00 0.  1.
         25    2    1    2    0    0 -0.14166740717E+02 -0.11824055505E+02  0.20442282663E+03  0.24036647084E+03  0.12508734318E+03 0.  0.
          5    1    3    3  502    0 -0.63885255231E+02 -0.31981260816E+02  0.13184566199E+03  0.15001625867E+03  0.41800000000E+01 0.  1.
         -5    1    3    3    0  502  0.49718514514E+02  0.20157205311E+02  0.72577164642E+02  0.90350212168E+02  0.41800000000E+01 0.  1.
        -11    1    1    2    0    0 -0.24056513318E+02  0.36747560560E+02  0.81009608597E+02  0.92150180278E+02  0.00000000000E+00 0. -1.
         11    1    1    2    0    0  0.38223254035E+02 -0.24923505055E+02  0.37964410050E+02  0.59359032031E+02  0.00000000000E+00 0.  1.
</event>
<event>
 7    1  0.2384639E-009  0.1013867E+03  0.7561462E-02  0.1277407E+00
         -2   -1    0    0    0  501 -0.00000000000E+00  0.00000000000E+00  0.62796626848E+02  0.62796626848E+02  0.00000000000E+00 0.  1.
          2   -1    0    0  501    0  0.00000000000E+00 -0.00000000000E+00 -0.20514162487E+03  0.20514162487E+03  0.00000000000E+00 0. -1.
         25    2    1    2    0    0  0.57465576114E+01 -0.34398385845E+02 -0.73810954302E+02  0.14937405776E+03  0.12509308648E+03 0.  0.
          5    1    3    3  502    0  0.31496347716E+02 -0.70286638029E+02 -0.20104183163E+02  0.79711241274E+02  0.41800000000E+01 0. -1.
         -5    1    3    3    0  502 -0.25749790104E+02  0.35888252184E+02 -0.53706771139E+02  0.69662816491E+02  0.41800000000E+01 0. -1.
        -11    1    1    2    0    0  0.29393323058E+02 -0.34857053453E+01 -0.59015903210E+02  0.66022681056E+02  0.00000000000E+00 0. -1.
         11    1    1    2    0    0 -0.35139880669E+02  0.37884091190E+02 -0.95181405097E+01  0.52541512897E+02  0.00000000000E+00 0.  1.
</event>
<event>
 7    1  0.2384639E-009  0.1012064E+03  0.7561462E-02  0.1277779E+00
         -2   -1    0    0    0  501 -0.00000000000E+00  0.00000000000E+00  0.45364549157E+02  0.45364549157E+02  0.00000000000E+00 0.  1.
          2   -1    0    0  501    0  0.00000000000E+00 -0.00000000000E+00 -0.39573691143E+03  0.39573691143E+03  0.00000000000E+00 0. -1.
         25    2    1    2    0    0  0.53839743990E+02  0.57423868861E+02 -0.15482604062E+03  0.21404456404E+03  0.12509098207E+03 0.  0.
          5    1    3    3  502    0 -0.12799166758E+02  0.10062715227E+02 -0.12621179764E+03  0.12732622342E+03  0.41800000000E+01 0.  1.
         -5    1    3    3    0  502  0.66638910748E+02  0.47361153633E+02 -0.28614242986E+02  0.86718340625E+02  0.41800000000E+01 0.  1.
        -11    1    1    2    0    0 -0.76502686231E+01 -0.57040330573E+02 -0.56948441017E+02  0.80964503680E+02  0.00000000000E+00 0.  1.
         11    1    1    2    0    0 -0.46189475367E+02 -0.38353828790E+00 -0.13859788064E+03  0.14609239287E+03  0.00000000000E+00 0. -1.
</event>
<event>
 7    1  0.2384639E-009  0.9606666E+02  0.7561462E-02  0.1288792E+00
          1   -1    0    0  501    0  0.00000000000E+00  0.00000000000E+00  0.28860440526E+03  0.28860440526E+03  0.00000000000E+00 0. -1.
         -1   -1    0    0    0  501 -0.00000000000E+00 -0.00000000000E+00 -0.63572115111E+02  0.63572115111E+02  0.00000000000E+00 0.  1.
         25    2    1    2    0    0  0.25769235600E+02 -0.73495851309E+02  0.91219850675E+02  0.17330442871E+03  0.12509064790E+03 0.  0.
          5    1    3    3  502    0 -0.21780644401E+02 -0.28820493428E+02 -0.22044132633E+02  0.42525680424E+02  0.41800000000E+01 0.  1.
         -5    1    3    3    0  502  0.47549880001E+02 -0.44675357881E+02  0.11326398331E+03  0.13077874829E+03  0.41800000000E+01 0.  1.
        -11    1    1    2    0    0  0.94167942236E+01  0.42393945775E+02  0.74450973109E+01  0.44060777635E+02  0.00000000000E+00 0.  1.
         11    1    1    2    0    0 -0.35186029823E+02  0.31101905534E+02  0.12636734216E+03  0.13481131402E+03  0.00000000000E+00 0. -1.
</event>
<event>
 7    1  0.2384639E-009  0.1231287E+03  0.7561462E-02  0.1238023E+00
          1   -1    0    0  501    0  0.00000000000E+00  0.00000000000E+00  0.16715562265E+03  0.16715562265E+03  0.00000000000E+00 0.  1.
         -1   -1    0    0    0  501 -0.00000000000E+00 -0.00000000000E+00 -0.13379617695E+03  0.13379617695E+03  0.00000000000E+00 0. -1.
         25    2    1    2    0    0  0.10219902496E+03  0.62540668149E+01  0.28984759587E+02  0.16422877244E+03  0.12508884585E+03 0.  0.
          5    1    3    3  502    0  0.11266531070E+03  0.26688863206E+02  0.55871549321E+02  0.12862686375E+03  0.41800000000E+01 0. -1.
         -5    1    3    3    0  502 -0.10466285735E+02 -0.20434796391E+02 -0.26886789734E+02  0.35601908697E+02  0.41800000000E+01 0. -1.
        -11    1    1    2    0    0 -0.87962788145E+02 -0.16532799637E+02  0.39208107606E+02  0.97714181489E+02  0.00000000000E+00 0.  1.
         11    1    1    2    0    0 -0.14236236817E+02  0.10278732823E+02 -0.34833421490E+02  0.39008845661E+02  0.00000000000E+00 0. -1.
</event>
<event>
 7    1  0.2384639E-009  0.1106638E+03  0.7561462E-02  0.1259346E+00
          2   -1    0    0  501    0  0.00000000000E+00  0.00000000000E+00  0.60908278661E+02  0.60908278661E+02  0.00000000000E+00 0. -1.
         -2   -1    0    0    0  501 -0.00000000000E+00 -0.00000000000E+00 -0.23902670371E+03  0.23902670371E+03  0.00000000000E+00 0.  1.
         25    2    1    2    0    0  0.49380407318E+02 -0.11471739325E+02 -0.82599725193E+02  0.15824120496E+03  0.12509012317E+03 0.  0.
          5    1    3    3  502    0 -0.26342339570E+02 -0.28719857006E+02 -0.68901498907E+02  0.79269401361E+02  0.41800000000E+01 0.  1.
         -5    1    3    3    0  502  0.75722746888E+02  0.17248117681E+02 -0.13698226287E+02  0.78971803596E+02  0.41800000000E+01 0.  1.
        -11    1    1    2    0    0  0.97251495085E+01 -0.30404141945E+02 -0.24382692968E+02  0.40168471427E+02  0.00000000000E+00 0.  1.
         11    1    1    2    0    0 -0.59105556827E+02  0.41875881271E+02 -0.71136006890E+02  0.10152530599E+03  0.00000000000E+00 0. -1.
</event>
<event>
 7    1  0.2384639E-009  0.1204423E+03  0.7561462E-02  0.1242369E+00
          1   -1    0    0  501    0  0.00000000000E+00  0.00000000000E+00  0.17938520986E+04  0.17938520986E+04  0.00000000000E+00 0. -1.
         -1   -1    0    0    0  501 -0.00000000000E+00 -0.00000000000E+00 -0.11495573824E+02  0.11495573824E+02  0.00000000000E+00 0.  1.
         25    2    1    2    0    0 -0.33989031281E+02 -0.49935092069E+02  0.14419969114E+04  0.14486721363E+04  0.12508836205E+03 0.  0.
          5    1    3    3  502    0 -0.44779753453E+02  0.30105988821E+02  0.75362316198E+03  0.75556398773E+03  0.41800000000E+01 0.  1.
         -5    1    3    3    0  502  0.10790722172E+02 -0.80041080890E+02  0.68837374937E+03  0.69310814852E+03  0.41800000000E+01 0.  1.
        -11    1    1    2    0    0 -0.10871562642E+02  0.59109878878E+02  0.17189798322E+03  0.18210185417E+03  0.00000000000E+00 0.  1.
         11    1    1    2    0    0  0.44860593923E+02 -0.91747868086E+01  0.16846163017E+03  0.17457368198E+03  0.00000000000E+00 0. -1.
</event>
<event>
 7    1  0.2384639E-009  0.1289990E+03  0.7561462E-02  0.1228949E+00
          1   -1    0    0  501    0  0.00000000000E+00  0.00000000000E+00  0.44502132022E+03  0.44502132022E+03  0.00000000000E+00 0. -1.
         -1   -1    0    0    0  501 -0.00000000000E+00 -0.00000000000E+00 -0.40291590693E+02  0.40291590693E+02  0.00000000000E+00 0.  1.
         25    2    1    2    0    0  0.11896035129E+02  0.75404128964E+02  0.19939640833E+03  0.24745537072E+03  0.12509170448E+03 0.  0.
          5    1    3    3  502    0  0.65265961683E+02  0.28256992825E+02  0.12822848561E+03  0.14669055975E+03  0.41800000000E+01 0. -1.
         -5    1    3    3    0  502 -0.53369926554E+02  0.47147136139E+02  0.71167922717E+02  0.10076481097E+03  0.41800000000E+01 0. -1.
        -11    1    1    2    0    0 -0.24620093079E+02  0.11793394111E+02  0.24434844296E+02  0.36637340838E+02  0.00000000000E+00 0.  1.
         11    1    1    2    0    0  0.12724057950E+02 -0.87197523075E+02  0.18089847690E+03  0.20122019935E+03  0.00000000000E+00 0. -1.
</event>
<event>
 7    1  0.2384639E-009  0.2436830E+03  0.7561462E-02  0.1117363E+00
         -2   -1    0    0    0  501 -0.00000000000E+00  0.00000000000E+00  0.84962286214E+02  0.84962286214E+02  0.00000000000E+00 0.  1.
          2   -1    0    0  501    0  0.00000000000E+00 -0.00000000000E+00 -0.77282886797E+03  0.77282886797E+03  0.00000000000E+00 0. -1.
         25    2    1    2    0    0  0.20305835914E+03  0.10856816380E+03 -0.40144735761E+03  0.47940415741E+03  0.12509445151E+03 0.  0.
          5    1    3    3  502    0  0.20033638134E+03  0.79517164040E+02 -0.39380797413E+03  0.44895416019E+03  0.41800000000E+01 0.  1.
         -5    1    3    3    0  502  0.27219778001E+01  0.29050999764E+02 -0.76393834813E+01  0.30449997215E+02  0.41800000000E+01 0.  1.
        -11    1    1    2    0    0 -0.84858128911E+02 -0.47527540098E+01 -0.13820606720E+03  0.16224798219E+03  0.00000000000E+00 0. -1.
         11    1    1    2    0    0 -0.11820023023E+03 -0.10381540979E+03 -0.14821315694E+03  0.21613901459E+03  0.00000000000E+00 0.  1.
</event>
<event>
 7    1  0.2384639E-009  0.9713756E+02  0.7561462E-02  0.1286433E+00
          2   -1    0    0  501    0  0.00000000000E+00  0.00000000000E+00  0.15085797115E+03  0.15085797115E+03  0.00000000000E+00 0. -1.
         -2   -1    0    0    0  501 -0.00000000000E+00 -0.00000000000E+00 -0.82874777195E+02  0.82874777195E+02  0.00000000000E+00 0.  1.
         25    2    1    2    0    0 -0.17828026713E+02 -0.21787457178E+02  0.26004907557E+02  0.13082475462E+03  0.12508528841E+03 0.  0.
          5    1    3    3  502    0  0.26607139119E+02 -0.62256323243E+02  0.16762725941E+02  0.69873106535E+02  0.41800000000E+01 0. -1.
         -5    1    3    3    0  502 -0.44435165831E+02  0.40468866065E+02  0.92421816153E+01  0.60951648083E+02  0.41800000000E+01 0. -1.
        -11    1    1    2    0    0 -0.11769438796E+02  0.32619866475E+02 -0.15008170103E+02  0.37786512783E+02  0.00000000000E+00 0.  1.
         11    1    1    2    0    0  0.29597465509E+02 -0.10832409297E+02  0.56986456500E+02  0.65121480942E+02  0.00000000000E+00 0. -1.
</event>
<event>
 7    1  0.2384639E-009  0.1063535E+03  0.7561462E-02  0.1267476E+00
         -2   -1    0    0    0  501 -0.00000000000E+00  0.00000000000E+00  0.87114162356E+02  0.87114162356E+02  0.00000000000E+00 0. -1.
          2   -1    0    0  501    0  0.00000000000E+00 -0.00000000000E+00 -0.24268543160E+03  0.24268543160E+03  0.00000000000E+00 0.  1.
         25    2    1    2    0    0 -0.18747019381E+02  0.40329972479E+02 -0.17993963620E+03  0.22361536905E+03  0.12509038006E+03 0.  0.
          5    1    3    3  502    0 -0.57682834042E+02  0.40970917756E+01 -0.31724990757E+02  0.66091171443E+02  0.41800000000E+01 0. -1.
         -5    1    3    3    0  502  0.38935814662E+02  0.36232880704E+02 -0.14821464545E+03  0.15752419761E+03  0.41800000000E+01 0. -1.
        -11    1    1    2    0    0  0.55788474369E+02 -0.27308714628E+02  0.47576709757E+01  0.62295707719E+02  0.00000000000E+00 0.  1.
         11    1    1    2    0    0 -0.37041454988E+02 -0.13021257851E+02  0.19610695985E+02  0.43888517185E+02  0.00000000000E+00 0. -1.
</event>
<event>
 7    1  0.2384639E-009  0.1115429E+03  0.7561462E-02  0.1257739E+00
         -2   -1    0    0    0  501 -0.00000000000E+00  0.00000000000E+00  0.59508693231E+02  0.59508693231E+02  0.00000000000E+00 0. -1.
          2   -1    0    0  501    0  0.00000000000E+00 -0.00000000000E+00 -0.21032436856E+03  0.21032436856E+03  0.00000000000E+00 0.  1.
         25    2    1    2    0    0  0.31639382505E+02 -0.17388495747E+01 -0.92727984315E+02  0.15890472837E+03  0.12509260370E+03 0.  0.
          5    1    3    3  502    0  0.56108558366E+02 -0.49612095260E+02 -0.57076712119E+02  0.94258971904E+02  0.41800000000E+01 0. -1.
         -5    1    3    3    0  502 -0.24469175861E+02  0.47873245686E+02 -0.35651272196E+02  0.64645756465E+02  0.41800000000E+01 0. -1.
        -11    1    1    2    0    0 -0.28780422863E+02 -0.41670085697E+02 -0.36036490760E+02  0.62155751531E+02  0.00000000000E+00 0.  1.
         11    1    1    2    0    0 -0.28589596420E+01  0.43408935272E+02 -0.22051200256E+02  0.48772581891E+02  0.00000000000E+00 0. -1.
</event>
<event>
 7    1  0.2425088E-009  0.4939233E+02  0.7561462E-02  0.1448647E+00
          2   -1    0    0  501    0  0.00000000000E+00  0.00000000000E+00  0.40966266871E+03  0.40966266871E+03  0.00000000000E+00 0.  1.
         -2   -1    0    0    0  501 -0.00000000000E+00 -0.00000000000E+00 -0.31835815272E+02  0.31835815272E+02  0.00000000000E+00 0. -1.
         25    2    1    2    0    0 -0.14818963753E+02  0.45239738506E+01  0.27513799574E+03  0.30263338157E+03  0.12508388751E+03 0.  0.
          5    1    3    3  502    0 -0.19495979479E+02 -0.13802003307E+01  0.28715391538E+03  0.28784864371E+03  0.41800000000E+01 0. -1.
         -5    1    3    3    0  502  0.46770157253E+01  0.59041741813E+01 -0.12015919638E+02  0.14784737860E+02  0.41800000000E+01 0. -1.
        -11    1    1    2    0    0 -0.26088962077E+02  0.81920058758E+01  0.90184111776E+02  0.94238616922E+02  0.00000000000E+00 0.  1.
         11    1    1    2    0    0  0.40907925831E+02 -0.12715979726E+02  0.12504745916E+02  0.44626485483E+02  0.00000000000E+00 0. -1.
</event>
<event>
 7    1  0.2384639E-009  0.1198511E+03  0.7561462E-02  0.1243343E+00
         -2   -1    0    0    0  501 -0.00000000000E+00  0.00000000000E+00  0.31558349134E+03  0.31558349134E+03  0.00000000000E+00 0. -1.
          2   -1    0    0  501    0  0.00000000000E+00 -0.00000000000E+00 -0.60647919321E+02  0.60647919321E+02  0.00000000000E+00 0.  1.
         25    2    1    2    0    0  0.10730092367E+02 -0.70753795391E+02  0.17702632643E+03  0.22826957208E+03  0.12508973916E+03 0.  0.
          5    1    3    3  502    0 -0.27162193201E+01  0.29926002297E+02  0.88194147395E+02  0.93266411401E+02  0.41800000000E+01 0. -1.
         -5    1    3    3    0  502  0.13446311687E+02 -0.10067979769E+03  0.88832179038E+02  0.13500316068E+03  0.41800000000E+01 0. -1.
        -11    1    1    2    0    0 -0.24157682941E+02  0.84858339623E+02  0.25181984413E+02  0.91753276714E+02  0.00000000000E+00 0.  1.
         11    1    1    2    0    0  0.13427590575E+02 -0.14104544232E+02  0.52727261172E+02  0.56208561869E+02  0.00000000000E+00 0. -1.
</event>
<event>
 7    1  0.2384639E-009  0.1294409E+03  0.7561462E-02  0.1228288E+00
         -2   -1    0    0    0  501 -0.00000000000E+00  0.00000000000E+00  0.83108367929E+02  0.83108367929E+02  0.00000000000E+00 0.  1.
          2   -1    0    0  501    0  0.00000000000E+00 -0.00000000000E+00 -0.23754588562E+03  0.23754588562E+03  0.00000000000E+00 0. -1.
         25    2    1    2    0    0 -0.43463010780E+02 -0.69452809395E+02 -0.12395882135E+03  0.19423265407E+03  0.12509120064E+03 0.  0.
          5    1    3    3  502    0 -0.67400220156E+02  0.64837186552E+01 -0.72756736556E+02  0.99477853812E+02  0.41800000000E+01 0. -1.
         -5    1    3    3    0  502  0.23937209376E+02 -0.75936528050E+02 -0.51202084789E+02  0.94754800257E+02  0.41800000000E+01 0. -1.
        -11    1    1    2    0    0 -0.19591498957E+02  0.33279718752E+02 -0.36940614417E+02  0.53441327689E+02  0.00000000000E+00 0. -1.
         11    1    1    2    0    0  0.63054509738E+02  0.36173090642E+02  0.64619180759E+01  0.72980271787E+02  0.00000000000E+00 0.  1.
</event>
<event>
 7    1  0.2384639E-009  0.1353842E+03  0.7561462E-02  0.1219678E+00
         -2   -1    0    0    0  501 -0.00000000000E+00  0.00000000000E+00  0.10275336354E+03  0.10275336354E+03  0.00000000000E+00 0. -1.
          2   -1    0    0  501    0  0.00000000000E+00 -0.00000000000E+00 -0.23828434485E+03  0.23828434485E+03  0.00000000000E+00 0.  1.
         25    2    1    2    0    0 -0.94146074369E+02  0.40748487011E+02 -0.24723054599E+02  0.16365295922E+03  0.12508852514E+03 0.  0.
          5    1    3    3  502    0 -0.11266570968E+03  0.25580531126E+02 -0.52307281394E+02  0.12689148828E+03  0.41800000000E+01 0.  1.
         -5    1    3    3    0  502  0.18519635314E+02  0.15167955885E+02  0.27584226796E+02  0.36761470942E+02  0.41800000000E+01 0.  1.
        -11    1    1    2    0    0  0.58661377045E+02 -0.65246102148E+02 -0.44732801841E+02  0.98484692023E+02  0.00000000000E+00 0.  1.
         11    1    1    2    0    0  0.35484697324E+02  0.24497615137E+02 -0.66075124869E+02  0.78900057148E+02  0.00000000000E+00 0. -1.
</event>
<event>
 7    1  0.2384639E-009  0.1193033E+03  0.7561462E-02  0.1244251E+00
          1   -1    0    0  501    0  0.00000000000E+00  0.00000000000E+00  0.46482999914E+03  0.46482999914E+03  0.00000000000E+00 0. -1.
         -1   -1    0    0    0  501 -0.00000000000E+00 -0.00000000000E+00 -0.56716987266E+02  0.56716987266E+02  0.00000000000E+00 0.  1.
         25    2    1    2    0    0  0.27728555699E+02 -0.97850564400E+02  0.11617706228E+03  0.19872763062E+03  0.12510777601E+03 0.  0.
          5    1    3    3  502    0  0.34128147576E+02 -0.74758434615E+02  0.14145463488E+03  0.16364730408E+03  0.41800000000E+01 0.  1.
         -5    1    3    3    0  502 -0.63995918769E+01 -0.23092129785E+02 -0.25277572599E+02  0.35080326548E+02  0.41800000000E+01 0.  1.
        -11    1    1    2    0    0 -0.55429507941E+02  0.41630109730E+02  0.10645897991E+03  0.12703940645E+03  0.00000000000E+00 0.  1.
         11    1    1    2    0    0  0.27700952242E+02  0.56220454669E+02  0.18547696969E+03  0.19577994934E+03  0.00000000000E+00 0. -1.
</event>
<event>
 7    1  0.2384639E-009  0.1199576E+03  0.7561462E-02  0.1243167E+00
         -1   -1    0    0    0  501 -0.00000000000E+00  0.00000000000E+00  0.37986081728E+02  0.37986081728E+02  0.00000000000E+00 0.  1.
          1   -1    0    0  501    0  0.00000000000E+00 -0.00000000000E+00 -0.44409630953E+03  0.44409630953E+03  0.00000000000E+00 0. -1.
         25    2    1    2    0    0  0.37953130365E+02  0.31393967124E+02 -0.13283118824E+03  0.18898424785E+03  0.12507957503E+03 0.  0.
          5    1    3    3  502    0 -0.41321279988E+02 -0.12549975060E+02 -0.37116800988E+02  0.57097104738E+02  0.41800000000E+01 0. -1.
         -5    1    3    3    0  502  0.79274410353E+02  0.43943942185E+02 -0.95714387249E+02  0.13188714311E+03  0.41800000000E+01 0. -1.
        -11    1    1    2    0    0  0.13429955867E+01 -0.58205540305E+02 -0.14244425886E+03  0.15388325263E+03  0.00000000000E+00 0.  1.
         11    1    1    2    0    0 -0.39296125951E+02  0.26811573181E+02 -0.13083478071E+03  0.13921489078E+03  0.00000000000E+00 0. -1.
</event>
<event>
 7    1  0.2384639E-009  0.9513816E+02  0.7561462E-02  0.1290865E+00
         -1   -1    0    0    0  501 -0.00000000000E+00  0.00000000000E+00  0.66595958753E+02  0.66595958753E+02  0.00000000000E+00 0.  1.
          1   -1    0    0  501    0  0.00000000000E+00 -0.00000000000E+00 -0.17415109651E+03  0.17415109651E+03  0.00000000000E+00 0. -1.
         25    2    1    2    0    0 -0.12594817101E+02 -0.53208882231E+02 -0.26398755811E+02  0.13905215420E+03  0.12509513465E+03 0.  0.
          5    1    3    3  502    0  0.99789946013E+01  0.36846435759E+02 -0.25527541434E+02  0.46112557216E+02  0.41800000000E+01 0. -1.
         -5    1    3    3    0  502 -0.22573811702E+02 -0.90055317990E+02 -0.87121437661E+00  0.92939596984E+02  0.41800000000E+01 0. -1.
        -11    1    1    2    0    0 -0.20778326647E+01  0.37065865542E+02 -0.63812473190E+02  0.73825656188E+02  0.00000000000E+00 0. -1.
         11    1    1    2    0    0  0.14672649765E+02  0.16143016690E+02 -0.17343908759E+02  0.27869244877E+02  0.00000000000E+00 0.  1.
</event>
<event>
 7    1  0.2384639E-009  0.2519345E+03  0.7561462E-02  0.1112088E+00
         -1   -1    0    0    0  501 -0.00000000000E+00  0.00000000000E+00  0.18604511538E+03  0.18604511538E+03  0.00000000000E+00 0.  1.
          1   -1    0    0  501    0  0.00000000000E+00 -0.00000000000E+00 -0.68324075730E+03  0.68324075730E+03  0.00000000000E+00 0. -1.
         25    2    1    2    0    0 -0.10910726060E+03  0.20847416838E+03  0.44716743970E+02  0.27020679697E+03  0.12508498207E+03 0.  0.
          5    1    3    3  502    0 -0.15460450925E+01  0.13009163477E+03  0.42841713718E+02  0.13703688747E+03  0.41800000000E+01 0.  1.
         -5    1    3    3    0  502 -0.10756121551E+03  0.78382533605E+02  0.18750302519E+01  0.13316990950E+03  0.41800000000E+01 0.  1.
        -11    1    1    2    0    0  0.32688900984E+02 -0.11632737911E+03 -0.17142394683E+03  0.20973028614E+03  0.00000000000E+00 0.  1.
         11    1    1    2    0    0  0.76418359621E+02 -0.92146789273E+02 -0.37048843906E+03  0.38934878957E+03  0.00000000000E+00 0. -1.
</event>
<event>
 7    1  0.2384639E-009  0.8320884E+02  0.7561462E-02  0.1320184E+00
         -1   -1    0    0    0  501 -0.00000000000E+00  0.00000000000E+00  0.39940616771E+02  0.39940616771E+02  0.00000000000E+00 0. -1.
          1   -1    0    0  501    0  0.00000000000E+00 -0.00000000000E+00 -0.44553565706E+03  0.44553565706E+03  0.00000000000E+00 0.  1.
         25    2    1    2    0    0 -0.28179911206E+02 -0.69197961578E+02 -0.24635843080E+03  0.28622030958E+03  0.12508846433E+03 0.  0.
          5    1    3    3  502    0 -0.12307886402E+02 -0.26045663720E+02  0.59599365673E+01  0.29712857657E+02  0.41800000000E+01 0.  1.
         -5    1    3    3    0  502 -0.15872024804E+02 -0.43152297858E+02 -0.25231836737E+03  0.25650745192E+03  0.41800000000E+01 0.  1.
        -11    1    1    2    0    0  0.43709854294E+02  0.49004479247E+02 -0.39050705915E+02  0.76399921343E+02  0.00000000000E+00 0. -1.
         11    1    1    2    0    0 -0.15529943089E+02  0.20193482330E+02 -0.12018590358E+03  0.12285604291E+03  0.00000000000E+00 0.  1.
</event>
<event>
 7    1  0.2384639E-009  0.1575887E+03  0.7561462E-02  0.1191446E+00
          4   -1    0    0  501    0  0.00000000000E+00  0.00000000000E+00  0.29164503660E+03  0.29164503660E+03  0.00000000000E+00 0. -1.
         -4   -1    0    0    0  501 -0.00000000000E+00 -0.00000000000E+00 -0.11984377313E+03  0.11984377313E+03  0.00000000000E+00 0.  1.
         25    2    1    2    0    0  0.13209074596E+03  0.61569023858E+02  0.13799180312E+03  0.23649079181E+03  0.12508975583E+03 0.  0.
          5    1    3    3  502    0  0.99441936950E+02  0.66413892672E+02  0.15759766726E+03  0.19787369984E+03  0.41800000000E+01 0.  1.
         -5    1    3    3    0  502  0.32648809007E+02 -0.48448688141E+01 -0.19605864133E+02  0.38617091964E+02  0.41800000000E+01 0.  1.
        -11    1    1    2    0    0 -0.13333093978E+02 -0.39203241328E+02 -0.15861839594E+02  0.44342569625E+02  0.00000000000E+00 0.  1.
         11    1    1    2    0    0 -0.11875765198E+03 -0.22365782529E+02  0.49671299948E+02  0.13065544830E+03  0.00000000000E+00 0. -1.
</event>
<event>
 7    1  0.2384639E-009  0.1237283E+03  0.7561462E-02  0.1237070E+00
          2   -1    0    0  501    0  0.00000000000E+00  0.00000000000E+00  0.45280458934E+03  0.45280458934E+03  0.00000000000E+00 0. -1.
         -2   -1    0    0    0  501 -0.00000000000E+00 -0.00000000000E+00 -0.51333524142E+02  0.51333524142E+02  0.00000000000E+00 0.  1.
         25    2    1    2    0    0  0.52518625858E+02 -0.75260318502E+02  0.12906208656E+03  0.20181129307E+03  0.12509378170E+03 0.  0.
          5    1    3    3  502    0 -0.40717440719E+02 -0.13862882507E+02  0.31282059380E+02  0.53349124915E+02  0.41800000000E+01 0.  1.
         -5    1    3    3    0  502  0.93236066577E+02 -0.61397435995E+02  0.97780027182E+02  0.14846216815E+03  0.41800000000E+01 0.  1.
        -11    1    1    2    0    0 -0.19110899867E+02  0.37644727638E+02  0.23718339843E+03  0.24091142875E+03  0.00000000000E+00 0. -1.
         11    1    1    2    0    0 -0.33407725991E+02  0.37615590864E+02  0.35225580208E+02  0.61415391661E+02  0.00000000000E+00 0.  1.
</event>
<event>
 7    1  0.2384639E-009  0.6819970E+02  0.7561462E-02  0.1366324E+00
          1   -1    0    0  501    0  0.00000000000E+00  0.00000000000E+00  0.43016279042E+02  0.43016279042E+02  0.00000000000E+00 0. -1.
         -1   -1    0    0    0  501 -0.00000000000E+00 -0.00000000000E+00 -0.27452781706E+03  0.27452781706E+03  0.00000000000E+00 0.  1.
         25    2    1    2    0    0  0.18505884228E+01  0.13396639403E+02 -0.12450132166E+03  0.17700630909E+03  0.12509100582E+03 0.  0.
          5    1    3    3  502    0 -0.38771198506E+02  0.26720908502E+02 -0.21362154696E+01  0.47320699501E+02  0.41800000000E+01 0.  1.
         -5    1    3    3    0  502  0.40621786929E+02 -0.13324269098E+02 -0.12236510619E+03  0.12968560958E+03  0.41800000000E+01 0.  1.
        -11    1    1    2    0    0 -0.16177878565E+02 -0.23578663253E+02 -0.11691583237E+03  0.12036190832E+03  0.00000000000E+00 0.  1.
         11    1    1    2    0    0  0.14327290142E+02  0.10182023849E+02  0.99056160139E+01  0.20175878695E+02  0.00000000000E+00 0. -1.
</event>
<event>
 7    1  0.2384639E-009  0.1050548E+03  0.7561462E-02  0.1270012E+00
          1   -1    0    0  501    0  0.00000000000E+00  0.00000000000E+00  0.20451178442E+03  0.20451178442E+03  0.00000000000E+00 0. -1.
         -1   -1    0    0    0  501 -0.00000000000E+00 -0.00000000000E+00 -0.62476695809E+02  0.62476695809E+02  0.00000000000E+00 0.  1.
         25    2    1    2    0    0  0.22987107019E+02 -0.25582191245E+02  0.67588372604E+02  0.14627952757E+03  0.12508659591E+03 0.  0.
          5    1    3    3  502    0  0.72453528156E+02 -0.15539462012E+01  0.25634660699E+02  0.76984003015E+02  0.41800000000E+01 0. -1.
         -5    1    3    3    0  502 -0.49466421138E+02 -0.24028245044E+02  0.41953711905E+02  0.69295524550E+02  0.41800000000E+01 0. -1.
        -11    1    1    2    0    0 -0.50630820504E+02  0.15681013361E+02  0.16107740882E+02  0.55397053001E+02  0.00000000000E+00 0.  1.
         11    1    1    2    0    0  0.27643713485E+02  0.99011778845E+01  0.58338975124E+02  0.65311899661E+02  0.00000000000E+00 0. -1.
</event>
<event>
 7    1  0.2384639E-009  0.1495204E+03  0.7561462E-02  0.1201064E+00
         -1   -1    0    0    0  501 -0.00000000000E+00  0.00000000000E+00  0.20211176828E+03  0.20211176828E+03  0.00000000000E+00 0.  1.
          1   -1    0    0  501    0  0.00000000000E+00 -0.00000000000E+00 -0.14284604709E+03  0.14284604709E+03  0.00000000000E+00 0. -1.
         25    2    1    2    0    0  0.53530506496E+02 -0.11543046967E+03  0.66334377642E+02  0.19036763230E+03  0.12509946969E+03 0.  0.
          5    1    3    3  502    0  0.47649348849E+02 -0.22948397324E+02  0.80621159756E+02  0.96510793105E+02  0.41800000000E+01 0. -1.
         -5    1    3    3    0  502  0.58811576464E+01 -0.92482072343E+02 -0.14286782113E+02  0.93856839192E+02  0.41800000000E+01 0. -1.
        -11    1    1    2    0    0  0.22475011482E+02  0.41496219538E+02  0.67053186632E+01  0.47665749500E+02  0.00000000000E+00 0.  1.
         11    1    1    2    0    0 -0.76005517977E+02  0.73934250129E+02 -0.13773975114E+02  0.10692443358E+03  0.00000000000E+00 0. -1.
</event>
<event>
 7    1  0.2384639E-009  0.1043269E+03  0.7561462E-02  0.1271451E+00
          2   -1    0    0  501    0  0.00000000000E+00  0.00000000000E+00  0.61216638883E+03  0.61216638883E+03  0.00000000000E+00 0. -1.
         -2   -1    0    0    0  501 -0.00000000000E+00 -0.00000000000E+00 -0.24354590383E+02  0.24354590383E+02  0.00000000000E+00 0.  1.
         25    2    1    2    0    0  0.52419854747E+02  0.26223062262E+01  0.27362540595E+03  0.30540580619E+03  0.12508847272E+03 0.  0.
          5    1    3    3  502    0  0.67808880311E+02  0.29108994701E+02  0.26224430947E+03  0.27246087439E+03  0.41800000000E+01 0.  1.
         -5    1    3    3    0  502 -0.15389025565E+02 -0.26486688475E+02  0.11381096483E+02  0.32944931801E+02  0.41800000000E+01 0.  1.
        -11    1    1    2    0    0 -0.74947670587E+02  0.13460047878E+02  0.21259832461E+03  0.22582376722E+03  0.00000000000E+00 0.  1.
         11    1    1    2    0    0  0.22527815840E+02 -0.16082354104E+02  0.10158806789E+03  0.10529140581E+03  0.00000000000E+00 0. -1.
</event>
<event>
 7    1  0.2384639E-009  0.1527237E+03  0.7561462E-02  0.1197166E+00
          2   -1    0    0  501    0  0.00000000000E+00  0.00000000000E+00  0.11458625391E+04  0.11458625391E+04  0.00000000000E+00 0. -1.
         -2   -1    0    0    0  501 -0.00000000000E+00 -0.00000000000E+00 -0.28755776924E+02  0.28755776924E+02  0.00000000000E+00 0.  1.
         25    2    1    2    0    0 -0.10409021642E+03 -0.10095626936E+03  0.57451028466E+03  0.60558674164E+03  0.12508514297E+03 0.  0.
          5    1    3    3  502    0 -0.35807421092E+01 -0.32679462307E+00  0.26367068800E+03  0.26372833109E+03  0.41800000000E+01 0. -1.
         -5    1    3    3    0  502 -0.10050947432E+03 -0.10062947473E+03  0.31083959666E+03  0.34185841055E+03  0.41800000000E+01 0. -1.
        -11    1    1    2    0    0  0.59793726862E+02  0.16100205477E+02  0.33166916460E+03  0.33740026842E+03  0.00000000000E+00 0.  1.
         11    1    1    2    0    0  0.44296489563E+02  0.84856063881E+02  0.21092731292E+03  0.23163130596E+03  0.00000000000E+00 0. -1.
</event>
<event>
 7    1  0.2384639E-009  0.9406796E+02  0.7561462E-02  0.1293289E+00
         -2   -1    0    0    0  501 -0.00000000000E+00  0.00000000000E+00  0.14318419128E+03  0.14318419128E+03  0.00000000000E+00 0.  1.
          2   -1    0    0  501    0  0.00000000000E+00 -0.00000000000E+00 -0.11629966511E+03  0.11629966511E+03  0.00000000000E+00 0. -1.
         25    2    1    2    0    0  0.35176173862E+02 -0.31322440154E+02 -0.36246290154E+02  0.13848994101E+03  0.12508881544E+03 0.  0.
          5    1    3    3  502    0 -0.21885758613E+02  0.25766566068E+02 -0.45825192062E+02  0.57099238038E+02  0.41800000000E+01 0. -1.
         -5    1    3    3    0  502  0.57061932475E+02 -0.57089006222E+02  0.95789019073E+01  0.81390702977E+02  0.41800000000E+01 0. -1.
        -11    1    1    2    0    0 -0.21575771620E+01  0.39234071200E+02  0.75291966524E+02  0.84928485828E+02  0.00000000000E+00 0.  1.
         11    1    1    2    0    0 -0.33018596700E+02 -0.79116310457E+01 -0.12161150199E+02  0.36065429542E+02  0.00000000000E+00 0. -1.
</event>
<event>
 7    1  0.2384639E-009  0.7412931E+02  0.7561462E-02  0.1346589E+00
         -2   -1    0    0    0  501 -0.00000000000E+00  0.00000000000E+00  0.63227850890E+02  0.63227850890E+02  0.00000000000E+00 0.  1.
          2   -1    0    0  501    0  0.00000000000E+00 -0.00000000000E+00 -0.25421772284E+03  0.25421772284E+03  0.00000000000E+00 0. -1.
         25    2    1    2    0    0  0.15338980890E+02 -0.52016483111E+02 -0.15225287765E+03  0.20437566561E+03  0.12508986807E+03 0.  0.
          5    1    3    3  502    0 -0.19921653167E+02 -0.34680293997E+02 -0.15924876722E+03  0.16424748801E+03  0.41800000000E+01 0.  1.
         -5    1    3    3    0  502  0.35260634057E+02 -0.17336189114E+02  0.69958895681E+01  0.40128177606E+02  0.41800000000E+01 0.  1.
        -11    1    1    2    0    0 -0.29753570116E+02  0.39426339454E+02 -0.64334376263E+02  0.81108711903E+02  0.00000000000E+00 0. -1.
         11    1    1    2    0    0  0.14414589226E+02  0.12590143658E+02  0.25597381964E+02  0.31961196212E+02  0.00000000000E+00 0.  1.
</event>
<event>
 7    1  0.2384639E-009  0.1367245E+03  0.7561462E-02  0.1217806E+00
          2   -1    0    0  501    0  0.00000000000E+00  0.00000000000E+00  0.50127858630E+03  0.50127858630E+03  0.00000000000E+00 0.  1.
         -2   -1    0    0    0  501 -0.00000000000E+00 -0.00000000000E+00 -0.71919268266E+02  0.71919268266E+02  0.00000000000E+00 0. -1.
         25    2    1    2    0    0 -0.90972993067E+02  0.16876701622E+02  0.36698674995E+02  0.15985899519E+03  0.12508875678E+03 0.  0.
          5    1    3    3  502    0  0.34020604476E+01 -0.36060522234E+02 -0.15532754065E+02  0.39631731326E+02  0.41800000000E+01 0. -1.
         -5    1    3    3    0  502 -0.94375053514E+02  0.52937223856E+02  0.52231429060E+02  0.12022726387E+03  0.41800000000E+01 0. -1.
        -11    1    1    2    0    0  0.10099144014E+02 -0.42640849801E+02  0.11866669046E+03  0.12649908382E+03  0.00000000000E+00 0. -1.
         11    1    1    2    0    0  0.80873849053E+02  0.25764148179E+02  0.27399395257E+03  0.28683977555E+03  0.00000000000E+00 0.  1.
</event>
<event>
 7    1  0.2384639E-009  0.1235773E+03  0.7561462E-02  0.1237310E+00
          2   -1    0    0  501    0  0.00000000000E+00  0.00000000000E+00  0.48971036856E+03  0.48971036856E+03  0.00000000000E+00 0.  1.
         -2   -1    0    0    0  501 -0.00000000000E+00 -0.00000000000E+00 -0.56459262216E+02  0.56459262216E+02  0.00000000000E+00 0. -1.
         25    2    1    2    0    0 -0.77287266051E+01 -0.86891412451E+02  0.75590325776E+02  0.17020898116E+03  0.12508936463E+03 0.  0.
          5    1    3    3  502    0 -0.33670214518E+02 -0.10598067164E+03  0.80524497467E+02  0.13735812026E+03  0.41800000000E+01 0.  1.
         -5    1    3    3    0  502  0.25941487913E+02  0.19089259194E+02 -0.49341716912E+01  0.32850860902E+02  0.41800000000E+01 0.  1.
        -11    1    1    2    0    0  0.28588432846E+02  0.24632077389E+02  0.22270240603E+03  0.22587695628E+03  0.00000000000E+00 0.  1.
         11    1    1    2    0    0 -0.20859706241E+02  0.62259335062E+02  0.13495837454E+03  0.15008369334E+03  0.00000000000E+00 0. -1.
</event>
<event>
 7    1  0.2384639E-009  0.1030512E+03  0.7561462E-02  0.1274007E+00
          2   -1    0    0  501    0  0.00000000000E+00  0.00000000000E+00  0.48637064539E+02  0.48637064539E+02  0.00000000000E+00 0. -1.
         -2   -1    0    0    0  501 -0.00000000000E+00 -0.00000000000E+00 -0.31578988037E+03  0.31578988037E+03  0.00000000000E+00 0.  1.
         25    2    1    2    0    0 -0.44599303459E+02  0.33453459839E+02 -0.11200226240E+03  0.17692042460E+03  0.12509235794E+03 0.  0.
          5    1    3    3  502    0 -0.13906023441E+02  0.69907420355E+02 -0.21522580445E+02  0.74572909141E+02  0.41800000000E+01 0. -1.
         -5    1    3    3    0  502 -0.30693280017E+02 -0.36453960517E+02 -0.90479681950E+02  0.10234751546E+03  0.41800000000E+01 0. -1.
        -11    1    1    2    0    0 -0.98977516045E+01 -0.30747262723E+02 -0.12254976715E+02  0.34547707681E+02  0.00000000000E+00 0. -1.
         11    1    1    2    0    0  0.54497055063E+02 -0.27061971164E+01 -0.14289557672E+03  0.15295881262E+03  0.00000000000E+00 0.  1.
</event>
<event>
 7    1  0.2384639E-009  0.2315458E+03  0.7561462E-02  0.1125556E+00
          3   -1    0    0  501    0  0.00000000000E+00  0.00000000000E+00  0.15928502490E+04  0.15928502490E+04  0.00000000000E+00 0. -1.
         -3   -1    0    0    0  501 -0.00000000000E+00 -0.00000000000E+00 -0.36555152135E+02  0.36555152135E+02  0.00000000000E+00 0.  1.
         25    2    1    2    0    0  0.14883055591E+01 -0.21493534882E+03  0.74806953874E+03  0.78832367667E+03  0.12508703045E+03 0.  0.
          5    1    3    3  502    0 -0.37439406712E+02 -0.10821090063E+02  0.15548653996E+03  0.16035068342E+03  0.41800000000E+01 0.  1.
         -5    1    3    3    0  502  0.38927712271E+02 -0.20411425875E+03  0.59258299878E+03  0.62797299325E+03  0.41800000000E+01 0.  1.
        -11    1    1    2    0    0  0.10173133072E+02  0.11443913320E+03  0.58247715819E+03  0.59369979590E+03  0.00000000000E+00 0.  1.
         11    1    1    2    0    0 -0.11661438631E+02  0.10049621562E+03  0.22574839997E+03  0.24738192860E+03  0.00000000000E+00 0. -1.
</event>
<event>
 7    1  0.2384639E-009  0.9709809E+02  0.7561462E-02  0.1286519E+00
         -1   -1    0    0    0  501 -0.00000000000E+00  0.00000000000E+00  0.15945218259E+03  0.15945218259E+03  0.00000000000E+00 0.  1.
          1   -1    0    0  501    0  0.00000000000E+00 -0.00000000000E+00 -0.13315927419E+03  0.13315927419E+03  0.00000000000E+00 0. -1.
         25    2    1    2    0    0  0.20654596631E+02 -0.41702363401E+02  0.99497168877E+02  0.16647140599E+03  0.12508933976E+03 0.  0.
          5    1    3    3  502    0  0.25456463677E+02 -0.63913336035E+02  0.49042973172E+01  0.69097544083E+02  0.41800000000E+01 0. -1.
         -5    1    3    3    0  502 -0.48018670460E+01  0.22210972635E+02  0.94592871560E+02  0.97373861906E+02  0.41800000000E+01 0. -1.
        -11    1    1    2    0    0  0.33519672300E+02 -0.45511509666E+00 -0.30322613309E+02  0.45202172942E+02  0.00000000000E+00 0.  1.
         11    1    1    2    0    0 -0.54174268930E+02  0.42157478497E+02 -0.42881647170E+02  0.80937877853E+02  0.00000000000E+00 0. -1.
</event>
<event>
 7    1  0.2384639E-009  0.1186178E+03  0.7561462E-02  0.1245395E+00
         -2   -1    0    0    0  501 -0.00000000000E+00  0.00000000000E+00  0.28143974311E+03  0.28143974311E+03  0.00000000000E+00 0.  1.
          2   -1    0    0  501    0  0.00000000000E+00 -0.00000000000E+00 -0.12189551094E+03  0.12189551094E+03  0.00000000000E+00 0. -1.
         25    2    1    2    0    0  0.48110040476E+02  0.40767240306E+02  0.23195237706E+03  0.27097067930E+03  0.12508660975E+03 0.  0.
          5    1    3    3  502    0 -0.24882330606E+02 -0.27038604997E+02  0.38821028982E+02  0.53616799865E+02  0.41800000000E+01 0.  1.
         -5    1    3    3    0  502  0.72992371082E+02  0.67805845303E+02  0.19313134808E+03  0.21735387943E+03  0.41800000000E+01 0.  1.
        -11    1    1    2    0    0  0.52068148162E+00  0.21514115907E+02 -0.42938636037E+02  0.48029727848E+02  0.00000000000E+00 0. -1.
         11    1    1    2    0    0 -0.48630721958E+02 -0.62281356213E+02 -0.29469508850E+02  0.84334846901E+02  0.00000000000E+00 0.  1.
</event>
<event>
 7    1  0.2384639E-009  0.1109287E+03  0.7561462E-02  0.1258860E+00
         -3   -1    0    0    0  501 -0.00000000000E+00  0.00000000000E+00  0.12627730256E+03  0.12627730256E+03  0.00000000000E+00 0.  1.
          3   -1    0    0  501    0  0.00000000000E+00 -0.00000000000E+00 -0.13116539383E+03  0.13116539383E+03  0.00000000000E+00 0. -1.
         25    2    1    2    0    0 -0.35633493154E+02  0.15619806034E+02  0.51807120220E+02  0.14087251536E+03  0.12508942283E+03 0.  0.
          5    1    3    3  502    0  0.39041636693E+02 -0.20925214453E+02  0.33360127953E+02  0.55610111784E+02  0.41800000000E+01 0.  1.
         -5    1    3    3    0  502 -0.74675129847E+02  0.36545020488E+02  0.18446992268E+02  0.85262403577E+02  0.41800000000E+01 0.  1.
        -11    1    1    2    0    0  0.59084362910E+02  0.94029971152E+01 -0.13350287265E+02  0.61299334950E+02  0.00000000000E+00 0.  1.
         11    1    1    2    0    0 -0.23450869756E+02 -0.25022803149E+02 -0.43344924223E+02  0.55270846073E+02  0.00000000000E+00 0. -1.
</event>
<event>
 7    1  0.2384639E-009  0.1473761E+03  0.7561462E-02  0.1203735E+00
         -3   -1    0    0    0  501 -0.00000000000E+00  0.00000000000E+00  0.33427423851E+03  0.33427423851E+03  0.00000000000E+00 0.  1.
          3   -1    0    0  501    0  0.00000000000E+00 -0.00000000000E+00 -0.84358872245E+02  0.84358872245E+02  0.00000000000E+00 0. -1.
         25    2    1    2    0    0 -0.58496132299E+01  0.12776690326E+03  0.10798606664E+03  0.20896766128E+03  0.12509153979E+03 0.  0.
          5    1    3    3  502    0  0.41293927485E+02  0.10758296907E+03  0.36618235873E+02  0.12098616152E+03  0.41800000000E+01 0. -1.
         -5    1    3    3    0  502 -0.47143540715E+02  0.20183934189E+02  0.71367830767E+02  0.87981499754E+02  0.41800000000E+01 0. -1.
        -11    1    1    2    0    0  0.46008866906E+01 -0.50068028231E+02  0.11814424688E+03  0.12839796992E+03  0.00000000000E+00 0.  1.
         11    1    1    2    0    0  0.12487265393E+01 -0.77698875030E+02  0.23785052741E+02  0.81267479553E+02  0.00000000000E+00 0. -1.
</event>
<event>
 7    1  0.2384639E-009  0.1233940E+03  0.7561462E-02  0.1237601E+00
         -2   -1    0    0    0  501 -0.00000000000E+00  0.00000000000E+00  0.17141899111E+03  0.17141899111E+03  0.00000000000E+00 0.  1.
          2   -1    0    0  501    0  0.00000000000E+00 -0.00000000000E+00 -0.11677254422E+03  0.11677254422E+03  0.00000000000E+00 0. -1.
         25    2    1    2    0    0 -0.43966062660E+02  0.76446353508E+02  0.95522437370E+01  0.15334723112E+03  0.12508824206E+03 0.  0.
          5    1    3    3  502    0  0.35635200727E+02 -0.69849314760E+01 -0.55575893611E+01  0.36973179443E+02  0.41800000000E+01 0.  1.
         -5    1    3    3    0  502 -0.79601263387E+02  0.83431284984E+02  0.15109833098E+02  0.11637405167E+03  0.41800000000E+01 0.  1.
        -11    1    1    2    0    0 -0.22383717385E+01 -0.27296159133E+02  0.59825468152E+02  0.65796483577E+02  0.00000000000E+00 0.  1.
         11    1    1    2    0    0  0.46204434398E+02 -0.49150194375E+02 -0.14731265002E+02  0.69047820630E+02  0.00000000000E+00 0. -1.
</event>
<event>
 7    1  0.2384639E-009  0.4693588E+03  0.7561462E-02  0.1022101E+00
          2   -1    0    0  501    0  0.00000000000E+00  0.00000000000E+00  0.24738356620E+04  0.24738356620E+04  0.00000000000E+00 0. -1.
         -2   -1    0    0    0  501 -0.00000000000E+00 -0.00000000000E+00 -0.11803019458E+03  0.11803019458E+03  0.00000000000E+00 0.  1.
         25    2    1    2    0    0  0.19393581370E+03 -0.42380545719E+03  0.17853275163E+04  0.18493955924E+04  0.12509017164E+03 0.  0.
          5    1    3    3  502    0  0.77605162990E+02 -0.13344982614E+03  0.82727189283E+03  0.84156263848E+03  0.41800000000E+01 0. -1.
         -5    1    3    3    0  502  0.11633065071E+03 -0.29035563105E+03  0.95805562351E+03  0.10078329539E+04  0.41800000000E+01 0. -1.
        -11    1    1    2    0    0 -0.92534479100E+02  0.12227433280E+03  0.23068199279E+03  0.27699787740E+03  0.00000000000E+00 0.  1.
         11    1    1    2    0    0 -0.10140133460E+03  0.30153112439E+03  0.33979595829E+03  0.46547238683E+03  0.00000000000E+00 0. -1.
</event>
<event>
 7    1  0.2384639E-009  0.1414251E+03  0.7561462E-02  0.1211424E+00
          2   -1    0    0  501    0  0.00000000000E+00  0.00000000000E+00  0.42141846652E+03  0.42141846652E+03  0.00000000000E+00 0.  1.
         -2   -1    0    0    0  501 -0.00000000000E+00 -0.00000000000E+00 -0.53204461216E+02  0.53204461216E+02  0.00000000000E+00 0. -1.
         25    2    1    2    0    0 -0.12502533729E+02  0.93692197646E+02  0.14362328055E+03  0.21262600443E+03  0.12509048643E+03 0.  0.
          5    1    3    3  502    0  0.52490410786E+02  0.23757061786E+02  0.33339981377E+02  0.66698335567E+02  0.41800000000E+01 0.  1.
         -5    1    3    3    0  502 -0.64992944516E+02  0.69935135859E+02  0.11028329917E+03  0.14592766887E+03  0.41800000000E+01 0.  1.
        -11    1    1    2    0    0  0.15165261181E+02 -0.11098774130E+03  0.21399125379E+03  0.24153782429E+03  0.00000000000E+00 0.  1.
         11    1    1    2    0    0 -0.26627274523E+01  0.17295543650E+02  0.10599470969E+02  0.20459099014E+02  0.00000000000E+00 0. -1.
</event>
<event>
 7    1  0.2384639E-009  0.7920911E+02  0.7561462E-02  0.1331311E+00
         -1   -1    0    0    0  501 -0.00000000000E+00  0.00000000000E+00  0.42256648430E+02  0.42256648430E+02  0.00000000000E+00 0.  1.
          1   -1    0    0  501    0  0.00000000000E+00 -0.00000000000E+00 -0.30508855812E+03  0.30508855812E+03  0.00000000000E+00 0. -1.
         25    2    1    2    0    0  0.45428859283E+01 -0.12834551858E+02 -0.91349245732E+02  0.15549697383E+03  0.12509700492E+03 0.  0.
          5    1    3    3  502    0  0.19900878864E+02 -0.38352218297E+02 -0.11125995939E+03  0.11942859202E+03  0.41800000000E+01 0. -1.
         -5    1    3    3    0  502 -0.15357992936E+02  0.25517666439E+02  0.19910713661E+02  0.36068381805E+02  0.41800000000E+01 0. -1.
        -11    1    1    2    0    0  0.39694662206E+02  0.71279643056E+01 -0.96712356066E+02  0.10478432086E+03  0.00000000000E+00 0. -1.
         11    1    1    2    0    0 -0.44237548135E+02  0.57065875520E+01 -0.74770307890E+02  0.87063911860E+02  0.00000000000E+00 0.  1.
</event>
<event>
 7    1  0.2384639E-009  0.9819642E+02  0.7561462E-02  0.1284135E+00
          1   -1    0    0  501    0  0.00000000000E+00  0.00000000000E+00  0.31749652118E+03  0.31749652118E+03  0.00000000000E+00 0. -1.
         -1   -1    0    0    0  501 -0.00000000000E+00 -0.00000000000E+00 -0.46067795036E+02  0.46067795036E+02  0.00000000000E+00 0.  1.
         25    2    1    2    0    0 -0.58858132278E+01  0.53921154051E+02  0.15152369912E+03  0.20383436276E+03  0.12508749896E+03 0.  0.
          5    1    3    3  502    0 -0.12305131581E+02 -0.28859818114E+02  0.74994259295E+00  0.31659756453E+02  0.41800000000E+01 0. -1.
         -5    1    3    3    0  502  0.64193183530E+01  0.82780972164E+02  0.15077375652E+03  0.17217460631E+03  0.41800000000E+01 0. -1.
        -11    1    1    2    0    0  0.74318445944E+01  0.12836020764E+02  0.81210113253E+02  0.82553487132E+02  0.00000000000E+00 0. -1.
         11    1    1    2    0    0 -0.15460313666E+01 -0.66757174815E+02  0.38694913776E+02  0.77176466325E+02  0.00000000000E+00 0.  1.
</event>
<event>
 7    1  0.2384639E-009  0.2992691E+03  0.7561462E-02  0.1085607E+00
         -1   -1    0    0    0  501 -0.00000000000E+00  0.00000000000E+00  0.82678035879E+02  0.82678035879E+02  0.00000000000E+00 0.  1.
          1   -1    0    0  501    0  0.00000000000E+00 -0.00000000000E+00 -0.12299435957E+04  0.12299435957E+04  0.00000000000E+00 0. -1.
         25    2    1    2    0    0 -0.15018224517E+03  0.25845732737E+03 -0.62690590010E+03  0.70570108926E+03  0.12509245769E+03 0.  0.
          5    1    3    3  502    0 -0.28026241194E+02  0.61508790622E+02 -0.28287878994E+03  0.29087228076E+03  0.41800000000E+01 0. -1.
         -5    1    3    3    0  502 -0.12215600398E+03  0.19694853675E+03 -0.34402711016E+03  0.41482880850E+03  0.41800000000E+01 0. -1.
        -11    1    1    2    0    0  0.55579890077E+02 -0.10314928993E+03 -0.29448217622E+03  0.31693635371E+03  0.00000000000E+00 0. -1.
         11    1    1    2    0    0  0.94602355092E+02 -0.15530803744E+03 -0.22587748348E+03  0.28998418858E+03  0.00000000000E+00 0.  1.
</event>
<event>
 7    1  0.2384639E-009  0.1089404E+03  0.7561462E-02  0.1262545E+00
         -1   -1    0    0    0  501 -0.00000000000E+00  0.00000000000E+00  0.13677093389E+03  0.13677093389E+03  0.00000000000E+00 0.  1.
          1   -1    0    0  501    0  0.00000000000E+00 -0.00000000000E+00 -0.17206367028E+03  0.17206367028E+03  0.00000000000E+00 0. -1.
         25    2    1    2    0    0  0.20014714376E+02  0.68152309769E+02  0.62840358624E+02  0.15697547669E+03  0.12508822283E+03 0.  0.
          5    1    3    3  502    0  0.32143805029E+02 -0.13345057454E+02  0.65654564762E+02  0.74426534477E+02  0.41800000000E+01 0.  1.
         -5    1    3    3    0  502 -0.12129090653E+02  0.81497367223E+02 -0.28142061385E+01  0.82548942213E+02  0.41800000000E+01 0.  1.
        -11    1    1    2    0    0 -0.39079728481E+02 -0.11779723017E+02 -0.79728191299E+02  0.89568808970E+02  0.00000000000E+00 0. -1.
         11    1    1    2    0    0  0.19065014105E+02 -0.56372586752E+02 -0.18404903714E+02  0.62290318515E+02  0.00000000000E+00 0.  1.
</event>
<event>
 7    1  0.2384639E-009  0.9391342E+02  0.7561462E-02  0.1293642E+00
          1   -1    0    0  501    0  0.00000000000E+00  0.00000000000E+00  0.44206764518E+02  0.44206764518E+02  0.00000000000E+00 0. -1.
         -1   -1    0    0    0  501 -0.00000000000E+00 -0.00000000000E+00 -0.33613144899E+03  0.33613144899E+03  0.00000000000E+00 0.  1.
         25    2    1    2    0    0 -0.50410438211E+02  0.19669417940E+02 -0.17275586919E+03  0.22004529352E+03  0.12508893866E+03 0.  0.
          5    1    3    3  502    0 -0.54829368631E+02  0.65046404567E+02 -0.81189663968E+02  0.11767127239E+03  0.41800000000E+01 0. -1.
         -5    1    3    3    0  502  0.44189304198E+01 -0.45376986627E+02 -0.91566205226E+02  0.10237402112E+03  0.41800000000E+01 0. -1.
        -11    1    1    2    0    0  0.25806962489E+02 -0.72500077242E+00  0.98180722657E+01  0.27620997123E+02  0.00000000000E+00 0. -1.
         11    1    1    2    0    0  0.24603475722E+02 -0.18944417168E+02 -0.12898688754E+03  0.13267192287E+03  0.00000000000E+00 0.  1.
</event>
<event>
 7    1  0.2384639E-009  0.9681314E+02  0.7561462E-02  0.1287144E+00
          2   -1    0    0  501    0  0.00000000000E+00  0.00000000000E+00  0.30719762954E+03  0.30719762954E+03  0.00000000000E+00 0. -1.
         -2   -1    0    0    0  501 -0.00000000000E+00 -0.00000000000E+00 -0.38915096520E+02  0.38915096520E+02  0.00000000000E+00 0.  1.
         25    2    1    2    0    0 -0.16031255063E+02 -0.27225394981E+02  0.17141980499E+03  0.21454494696E+03  0.12508621608E+03 0.  0.
          5    1    3    3  502    0 -0.13195679910E+02  0.40170175771E+02  0.12637140965E+03  0.13332282087E+03  0.41800000000E+01 0. -1.
         -5    1    3    3    0  502 -0.28355751532E+01 -0.67395570753E+02  0.45048395346E+02  0.81222126091E+02  0.41800000000E+01 0. -1.
        -11    1    1    2    0    0  0.38515434531E+02 -0.10245208757E+02  0.23760120549E+02  0.46399852674E+02  0.00000000000E+00 0.  1.
         11    1    1    2    0    0 -0.22484179468E+02  0.37470603739E+02  0.73102607481E+02  0.85167926424E+02  0.00000000000E+00 0. -1.
</event>
<event>
 7    1  0.2384639E-009  0.2173765E+03  0.7561462E-02  0.1135854E+00
          2   -1    0    0  501    0  0.00000000000E+00  0.00000000000E+00  0.65244742634E+03  0.65244742634E+03  0.00000000000E+00 0.  1.
         -2   -1    0    0    0  501 -0.00000000000E+00 -0.00000000000E+00 -0.11555168404E+03  0.11555168404E+03  0.00000000000E+00 0. -1.
         25    2    1    2    0    0  0.19837807735E+03 -0.25137593954E+02  0.59642996082E+02  0.24329124523E+03  0.12509029866E+03 0.  0.
          5    1    3    3  502    0  0.19131545131E+02 -0.49596327058E+02  0.25646962303E+02  0.59169677641E+02  0.41800000000E+01 0. -1.
         -5    1    3    3    0  502  0.17924653222E+03  0.24458733104E+02  0.33996033778E+02  0.18412156759E+03  0.41800000000E+01 0. -1.
        -11    1    1    2    0    0 -0.72313006605E+02  0.16116353255E+02  0.85813622323E+02  0.11337056736E+03  0.00000000000E+00 0. -1.
         11    1    1    2    0    0 -0.12606507075E+03  0.90212406985E+01  0.39143912389E+03  0.41133729780E+03  0.00000000000E+00 0.  1.
</event>
<event>
 7    1  0.2384639E-009  0.9182024E+02  0.7561462E-02  0.1298503E+00
         -3   -1    0    0    0  501 -0.00000000000E+00  0.00000000000E+00  0.52516371316E+02  0.52516371316E+02  0.00000000000E+00 0.  1.
          3   -1    0    0  501    0  0.00000000000E+00 -0.00000000000E+00 -0.36206886361E+03  0.36206886361E+03  0.00000000000E+00 0. -1.
         25    2    1    2    0    0  0.13019583205E+02 -0.79563446595E+02 -0.13664506680E+03  0.20203858062E+03  0.12509141536E+03 0.  0.
          5    1    3    3  502    0  0.28468388259E+02 -0.20002010100E+02 -0.13591524903E+03  0.14036009710E+03  0.41800000000E+01 0. -1.
         -5    1    3    3    0  502 -0.15448805054E+02 -0.59561436495E+02 -0.72981776732E+00  0.61678483517E+02  0.41800000000E+01 0. -1.
        -11    1    1    2    0    0  0.10025411686E+02  0.12577172470E+02  0.82174339305E+01  0.18061571560E+02  0.00000000000E+00 0.  1.
         11    1    1    2    0    0 -0.23044994890E+02  0.66986274125E+02 -0.18112485942E+03  0.19448508275E+03  0.00000000000E+00 0. -1.
</event>
<event>
 7    1  0.2384639E-009  0.8676052E+02  0.7561462E-02  0.1310892E+00
         -2   -1    0    0    0  501 -0.00000000000E+00  0.00000000000E+00  0.36196022079E+02  0.36196022079E+02  0.00000000000E+00 0.  1.
          2   -1    0    0  501    0  0.00000000000E+00 -0.00000000000E+00 -0.34814266288E+03  0.34814266288E+03  0.00000000000E+00 0. -1.
         25    2    1    2    0    0 -0.22749007468E+01 -0.25335348042E+01 -0.12778506840E+03  0.17885168615E+03  0.12508920003E+03 0.  0.
          5    1    3    3  502    0 -0.38369087653E+02 -0.39299532871E+02 -0.18754086988E+02  0.58187871159E+02  0.41800000000E+01 0. -1.
         -5    1    3    3    0  502  0.36094186907E+02  0.36765998067E+02 -0.10903098141E+03  0.12066381500E+03  0.41800000000E+01 0. -1.
        -11    1    1    2    0    0 -0.21225943259E+02 -0.23505486489E+02 -0.15948805015E+03  0.16260223462E+03  0.00000000000E+00 0. -1.
         11    1    1    2    0    0  0.23500844006E+02  0.26039021293E+02 -0.24673522254E+02  0.42884764186E+02  0.00000000000E+00 0.  1.
</event>
<event>
 7    1  0.2384639E-009  0.1197349E+03  0.7561462E-02  0.1243535E+00
         -2   -1    0    0    0  501 -0.00000000000E+00  0.00000000000E+00  0.49000908780E+02  0.49000908780E+02  0.00000000000E+00 0.  1.
          2   -1    0    0  501    0  0.00000000000E+00 -0.00000000000E+00 -0.77726247213E+03  0.77726247213E+03  0.00000000000E+00 0. -1.
         25    2    1    2    0    0  0.41732667062E+02 -0.67879851225E+02 -0.67755151812E+03  0.69359401034E+03  0.12508917527E+03 0.  0.
          5    1    3    3  502    0 -0.74557261308E+01 -0.90814491916E+02 -0.35790168304E+03  0.36934258747E+03  0.41800000000E+01 0. -1.
         -5    1    3    3    0  502  0.49188393193E+02  0.22934640691E+02 -0.31964983508E+03  0.32425142287E+03  0.41800000000E+01 0. -1.
        -11    1    1    2    0    0  0.11515819492E+02  0.11789171552E+02  0.21343524976E+02  0.26965621129E+02  0.00000000000E+00 0.  1.
         11    1    1    2    0    0 -0.53248486554E+02  0.56090679673E+02 -0.72053570205E+02  0.10570374944E+03  0.00000000000E+00 0. -1.
</event>
<event>
 7    1  0.2384639E-009  0.1222904E+03  0.7561462E-02  0.1239366E+00
          2   -1    0    0  501    0  0.00000000000E+00  0.00000000000E+00  0.49644408471E+03  0.49644408471E+03  0.00000000000E+00 0.  1.
         -2   -1    0    0    0  501 -0.00000000000E+00 -0.00000000000E+00 -0.48814703592E+02  0.48814703592E+02  0.00000000000E+00 0. -1.
         25    2    1    2    0    0 -0.19129671126E+02  0.57537699283E+02  0.39830710690E+03  0.42187049222E+03  0.12509847978E+03 0.  0.
          5    1    3    3  502    0  0.94738110065E+01  0.88529242212E+02  0.32690172670E+03  0.33883534517E+03  0.41800000000E+01 0. -1.
         -5    1    3    3    0  502 -0.28603482132E+02 -0.30991542929E+02  0.71405380208E+02  0.83035147052E+02  0.41800000000E+01 0. -1.
        -11    1    1    2    0    0 -0.29278634916E+02  0.91384863238E+01  0.12038402216E+02  0.32949560282E+02  0.00000000000E+00 0.  1.
         11    1    1    2    0    0  0.48408306042E+02 -0.66676185607E+02  0.37283871997E+02  0.90438735794E+02  0.00000000000E+00 0. -1.
</event>
<event>
 7    1  0.2384639E-009  0.1282373E+03  0.7561462E-02  0.1230095E+00
         -1   -1    0    0    0  501 -0.00000000000E+00  0.00000000000E+00  0.91477952351E+03  0.91477952351E+03  0.00000000000E+00 0.  1.
          1   -1    0    0  501    0  0.00000000000E+00 -0.00000000000E+00 -0.28750622705E+02  0.28750622705E+02  0.00000000000E+00 0. -1.
         25    2    1    2    0    0  0.87268407151E+02 -0.25296189416E+02  0.70523736544E+03  0.72198566911E+03  0.12509153730E+03 0.  0.
          5    1    3    3  502    0 -0.26978671578E+02 -0.24632944693E+02  0.11357653851E+03  0.11938062315E+03  0.41800000000E+01 0.  1.
         -5    1    3    3    0  502  0.11424707873E+03 -0.66324472254E+00  0.59166082693E+03  0.60260504596E+03  0.41800000000E+01 0.  1.
        -11    1    1    2    0    0 -0.14021173512E+02  0.28816330425E+02  0.12597989362E+03  0.12999195284E+03  0.00000000000E+00 0. -1.
         11    1    1    2    0    0 -0.73247233639E+02 -0.35201410089E+01  0.54811641742E+02  0.91552524263E+02  0.00000000000E+00 0.  1.
</event>
<event>
 7    1  0.2384639E-009  0.1644797E+03  0.7561462E-02  0.1183730E+00
          1   -1    0    0  501    0  0.00000000000E+00  0.00000000000E+00  0.14967793563E+03  0.14967793563E+03  0.00000000000E+00 0. -1.
         -1   -1    0    0    0  501 -0.00000000000E+00 -0.00000000000E+00 -0.18564702276E+03  0.18564702276E+03  0.00000000000E+00 0.  1.
         25    2    1    2    0    0 -0.83436650508E+02 -0.88213611963E+02 -0.31195110625E+01  0.17435825655E+03  0.12509098407E+03 0.  0.
          5    1    3    3  502    0 -0.68318727584E+02  0.12457216209E+02  0.14216342497E+02  0.71008503493E+02  0.41800000000E+01 0. -1.
         -5    1    3    3    0  502 -0.15117922924E+02 -0.10067082817E+03 -0.17335853559E+02  0.10334975306E+03  0.41800000000E+01 0. -1.
        -11    1    1    2    0    0 -0.17752571250E+02  0.43292840690E+02 -0.74822199847E+01  0.47385730520E+02  0.00000000000E+00 0.  1.
         11    1    1    2    0    0  0.10118922176E+03  0.44920771273E+02 -0.25367356074E+02  0.11358097132E+03  0.00000000000E+00 0. -1.
</event>
<event>
 7    1  0.2384639E-009  0.1214871E+03  0.7561462E-02  0.1240664E+00
         -3   -1    0    0    0  501 -0.00000000000E+00  0.00000000000E+00  0.50892023792E+03  0.50892023792E+03  0.00000000000E+00 0.  1.
          3   -1    0    0  501    0  0.00000000000E+00 -0.00000000000E+00 -0.34895776939E+02  0.34895776939E+02  0.00000000000E+00 0. -1.
         25    2    1    2    0    0  0.51078875778E+02 -0.46519673179E+02  0.32756785481E+03  0.35738164052E+03  0.12509119046E+03 0.  0.
          5    1    3    3  502    0  0.23944308074E+02 -0.80635099979E+02  0.12911050261E+03  0.15415039254E+03  0.41800000000E+01 0.  1.
         -5    1    3    3    0  502  0.27134567704E+02  0.34115426800E+02  0.19845735220E+03  0.20323124797E+03  0.41800000000E+01 0.  1.
        -11    1    1    2    0    0  0.12528564811E+02  0.49722508674E+02  0.57698043915E+02  0.77190394977E+02  0.00000000000E+00 0. -1.
         11    1    1    2    0    0 -0.63607440589E+02 -0.32028354955E+01  0.88758562258E+02  0.10924397937E+03  0.00000000000E+00 0.  1.
</event>
<event>
 7    1  0.2384639E-009  0.1011062E+03  0.7561462E-02  0.1277987E+00
          3   -1    0    0  501    0  0.00000000000E+00  0.00000000000E+00  0.22374047977E+03  0.22374047977E+03  0.00000000000E+00 0. -1.
         -3   -1    0    0    0  501 -0.00000000000E+00 -0.00000000000E+00 -0.60833779400E+02  0.60833779400E+02  0.00000000000E+00 0.  1.
         25    2    1    2    0    0 -0.34868984292E+02  0.12617270588E+02  0.12007006933E+03  0.17731140699E+03  0.12508985537E+03 0.  0.
          5    1    3    3  502    0  0.46761168290E+02  0.13009468154E+02  0.46165261306E+02  0.67115995656E+02  0.41800000000E+01 0. -1.
         -5    1    3    3    0  502 -0.81630152582E+02 -0.39219756537E+00  0.73904808024E+02  0.11019541133E+03  0.41800000000E+01 0. -1.
        -11    1    1    2    0    0  0.20569637945E+01 -0.33043206784E+02 -0.16075594254E+02  0.36803659400E+02  0.00000000000E+00 0.  1.
         11    1    1    2    0    0  0.32812020497E+02  0.20425936196E+02  0.58912225297E+02  0.70459192786E+02  0.00000000000E+00 0. -1.
</event>
<event>
 7    1  0.2384639E-009  0.1243678E+03  0.7561462E-02  0.1236061E+00
         -2   -1    0    0    0  501 -0.00000000000E+00  0.00000000000E+00  0.31061204545E+02  0.31061204545E+02  0.00000000000E+00 0. -1.
          2   -1    0    0  501    0  0.00000000000E+00 -0.00000000000E+00 -0.13002727465E+04  0.13002727465E+04  0.00000000000E+00 0.  1.
         25    2    1    2    0    0  0.11206600557E+03 -0.11637027180E+02 -0.10913528012E+04  0.11042614330E+04  0.12509262818E+03 0.  0.
          5    1    3    3  502    0  0.57960977407E+02 -0.10229209825E+01 -0.95982791634E+03  0.96158599338E+03  0.41800000000E+01 0. -1.
         -5    1    3    3    0  502  0.54105028164E+02 -0.10614106198E+02 -0.13152488487E+03  0.14267543960E+03  0.41800000000E+01 0. -1.
        -11    1    1    2    0    0  0.97347073609E+00  0.21803203443E+02 -0.89816643896E+01  0.23600797039E+02  0.00000000000E+00 0. -1.
         11    1    1    2    0    0 -0.11303947631E+03 -0.10166176263E+02 -0.16887707635E+03  0.20347172104E+03  0.00000000000E+00 0.  1.
</event>
<event>
 7    1  0.2384639E-009  0.1600321E+03  0.7561462E-02  0.1188660E+00
         -1   -1    0    0    0  501 -0.00000000000E+00  0.00000000000E+00  0.34799613530E+02  0.34799613530E+02  0.00000000000E+00 0.  1.
          1   -1    0    0  501    0  0.00000000000E+00 -0.00000000000E+00 -0.80202540043E+03  0.80202540043E+03  0.00000000000E+00 0. -1.
         25    2    1    2    0    0  0.12414662243E+03 -0.15564306497E+02 -0.37349358524E+03  0.41327986114E+03  0.12509258135E+03 0.  0.
          5    1    3    3  502    0  0.21583418366E+02 -0.59016979148E+02 -0.16944566114E+03  0.18077099396E+03  0.41800000000E+01 0.  1.
         -5    1    3    3    0  502  0.10256320407E+03  0.43452672651E+02 -0.20404792410E+03  0.23250886718E+03  0.41800000000E+01 0.  1.
        -11    1    1    2    0    0 -0.17353990437E+02  0.33121673892E+02 -0.45559011413E+02  0.58939204155E+02  0.00000000000E+00 0.  1.
         11    1    1    2    0    0 -0.10679263199E+03 -0.17557367395E+02 -0.34817319024E+03  0.36460594866E+03  0.00000000000E+00 0. -1.
</event>
<event>
 7    1  0.2384639E-009  0.1161979E+03  0.7561462E-02  0.1249505E+00
          1   -1    0    0  501    0  0.00000000000E+00  0.00000000000E+00  0.30460480965E+02  0.30460480965E+02  0.00000000000E+00 0. -1.
         -1   -1    0    0    0  501 -0.00000000000E+00 -0.00000000000E+00 -0.47089756832E+03  0.47089756832E+03  0.00000000000E+00 0.  1.
         25    2    1    2    0    0  0.41023445680E+02  0.22886648254E+01 -0.30719156141E+03  0.33421914618E+03  0.12509045202E+03 0.  0.
          5    1    3    3  502    0  0.68758078518E+02  0.43647951159E+02 -0.19796105234E+03  0.21410013462E+03  0.41800000000E+01 0.  1.
         -5    1    3    3    0  502 -0.27734632838E+02 -0.41359286334E+02 -0.10923050907E+03  0.12011901155E+03  0.41800000000E+01 0.  1.
        -11    1    1    2    0    0  0.83650612163E+01 -0.38649230131E+02 -0.54146244286E+02  0.67048885219E+02  0.00000000000E+00 0. -1.
         11    1    1    2    0    0 -0.49388506896E+02  0.36360565305E+02 -0.79099281663E+02  0.10009001790E+03  0.00000000000E+00 0.  1.
</event>
<event>
 7    1  0.2384639E-009  0.1043352E+03  0.7561462E-02  0.1271435E+00
          1   -1    0    0  501    0  0.00000000000E+00  0.00000000000E+00  0.10541410016E+03  0.10541410016E+03  0.00000000000E+00 0. -1.
         -1   -1    0    0    0  501 -0.00000000000E+00 -0.00000000000E+00 -0.11568468669E+03  0.11568468669E+03  0.00000000000E+00 0.  1.
         25    2    1    2    0    0  0.79729430884E+01  0.11019386655E+02 -0.14556993275E+02  0.12666118015E+03  0.12508458658E+03 0.  0.
          5    1    3    3  502    0 -0.26545962719E+02  0.59815032506E+02 -0.30219290147E+01  0.65643969299E+02  0.41800000000E+01 0. -1.
         -5    1    3    3    0  502  0.34518905807E+02 -0.48795645850E+02 -0.11535064260E+02  0.61017210847E+02  0.41800000000E+01 0. -1.
        -11    1    1    2    0    0 -0.21393288564E+02  0.31788533238E+02 -0.20213162467E+02  0.43321537114E+02  0.00000000000E+00 0.  1.
         11    1    1    2    0    0  0.13420345475E+02 -0.42807919893E+02  0.24499569218E+02  0.51116069588E+02  0.00000000000E+00 0. -1.
</event>
<event>
 7    1  0.2384639E-009  0.1101324E+03  0.7561462E-02  0.1260325E+00
          1   -1    0    0  501    0  0.00000000000E+00  0.00000000000E+00  0.44105040240E+03  0.44105040240E+03  0.00000000000E+00 0. -1.
         -1   -1    0    0    0  501 -0.00000000000E+00 -0.00000000000E+00 -0.32031800924E+02  0.32031800924E+02  0.00000000000E+00 0.  1.
         25    2    1    2    0    0  0.25523132411E+02 -0.38776677338E+02  0.25451403058E+03  0.28736647193E+03  0.12508811469E+03 0.  0.
          5    1    3    3  502    0 -0.16853197697E+02  0.37901997526E+02  0.51811143762E+02  0.66501569207E+02  0.41800000000E+01 0. -1.
         -5    1    3    3    0  502  0.42376330108E+02 -0.76678674864E+02  0.20270288682E+03  0.22086490272E+03  0.41800000000E+01 0. -1.
        -11    1    1    2    0    0 -0.69915716830E+01  0.61300755834E+02  0.14031294842E+03  0.15327879252E+03  0.00000000000E+00 0.  1.
         11    1    1    2    0    0 -0.18531560728E+02 -0.22524078496E+02  0.14191622476E+02  0.32436938876E+02  0.00000000000E+00 0. -1.
</event>
<event>
 7    1  0.2384639E-009  0.1240684E+03  0.7561462E-02  0.1236532E+00
          1   -1    0    0  501    0  0.00000000000E+00  0.00000000000E+00  0.73027789918E+03  0.73027789918E+03  0.00000000000E+00 0. -1.
         -1   -1    0    0    0  501 -0.00000000000E+00 -0.00000000000E+00 -0.27816550524E+02  0.27816550524E+02  0.00000000000E+00 0.  1.
         25    2    1    2    0    0 -0.15151318783E+02  0.62661793688E+02  0.53141744783E+03  0.54973471377E+03  0.12509072232E+03 0.  0.
          5    1    3    3  502    0 -0.33425176875E+02  0.96245061974E+02  0.40124806316E+03  0.41400221617E+03  0.41800000000E+01 0.  1.
         -5    1    3    3    0  502  0.18273858092E+02 -0.33583268286E+02  0.13016938467E+03  0.13573249760E+03  0.41800000000E+01 0.  1.
        -11    1    1    2    0    0  0.43457200149E+02 -0.66190207319E+02  0.78417022640E+02  0.11144012397E+03  0.00000000000E+00 0. -1.
         11    1    1    2    0    0 -0.28305881366E+02  0.35284136304E+01  0.92626878180E+02  0.96919611968E+02  0.00000000000E+00 0.  1.
</event>
<event>
 7    1  0.2384639E-009  0.1246040E+03  0.7561462E-02  0.1235690E+00
         -1   -1    0    0    0  501 -0.00000000000E+00  0.00000000000E+00  0.27852897660E+02  0.27852897660E+02  0.00000000000E+00 0.  1.
          1   -1    0    0  501    0  0.00000000000E+00 -0.00000000000E+00 -0.75576736545E+03  0.75576736545E+03  0.00000000000E+00 0. -1.
         25    2    1    2    0    0  0.65608104616E+02 -0.28543526524E+01 -0.58614237242E+03  0.60292616254E+03  0.12507799970E+03 0.  0.
          5    1    3    3  502    0  0.75832910121E+01 -0.57032955428E+02 -0.32025649011E+03  0.32541044262E+03  0.41800000000E+01 0. -1.
         -5    1    3    3    0  502  0.58024813604E+02  0.54178602776E+02 -0.26588588231E+03  0.27751571992E+03  0.41800000000E+01 0. -1.
        -11    1    1    2    0    0  0.22839605354E+02 -0.44760141649E+01 -0.30240225571E+02  0.38159579637E+02  0.00000000000E+00 0.  1.
         11    1    1    2    0    0 -0.88447709970E+02  0.73303668172E+01 -0.11153186980E+03  0.14253452094E+03  0.00000000000E+00 0. -1.
</event>
<event>
 7    1  0.2384639E-009  0.9428037E+02  0.7561462E-02  0.1292805E+00
          2   -1    0    0  501    0  0.00000000000E+00  0.00000000000E+00  0.74518542741E+02  0.74518542741E+02  0.00000000000E+00 0. -1.
         -2   -1    0    0    0  501 -0.00000000000E+00 -0.00000000000E+00 -0.19620093673E+03  0.19620093673E+03  0.00000000000E+00 0.  1.
         25    2    1    2    0    0 -0.26797761855E+02  0.40522455590E+02 -0.92405780465E+02  0.16292970474E+03  0.12508825275E+03 0.  0.
          5    1    3    3  502    0 -0.52763089301E+02  0.11868905518E+02  0.83923470387E+01  0.54888235530E+02  0.41800000000E+01 0. -1.
         -5    1    3    3    0  502  0.25965327446E+02  0.28653550072E+02 -0.10079812750E+03  0.10804146921E+03  0.41800000000E+01 0. -1.
        -11    1    1    2    0    0 -0.29758091550E+02 -0.12041260843E+02 -0.30745488989E+02  0.44450208870E+02  0.00000000000E+00 0.  1.
         11    1    1    2    0    0  0.56555853405E+02 -0.28481194746E+02  0.14688754623E+01  0.63339565863E+02  0.00000000000E+00 0. -1.
</event>
<event>
 7    1  0.2384639E-009  0.4004448E+03  0.7561462E-02  0.1043626E+00
          1   -1    0    0  501    0  0.00000000000E+00  0.00000000000E+00  0.43661048945E+03  0.43661048945E+03  0.00000000000E+00 0. -1.
         -1   -1    0    0    0  501 -0.00000000000E+00 -0.00000000000E+00 -0.73191868625E+03  0.73191868625E+03  0.00000000000E+00 0.  1.
         25    2    1    2    0    0 -0.29501152716E+02 -0.39187957422E+03  0.25606068328E+03  0.48544308015E+03  0.12509193355E+03 0.  0.
          5    1    3    3  502    0 -0.60598793017E+02 -0.28589054460E+03  0.22989282548E+03  0.37185185331E+03  0.41800000000E+01 0. -1.
         -5    1    3    3    0  502  0.31097640301E+02 -0.10598902963E+03  0.26167857810E+02  0.11359122684E+03  0.41800000000E+01 0. -1.
        -11    1    1    2    0    0  0.47724549339E+02  0.21327132165E+03 -0.35619304746E+03  0.41789445595E+03  0.00000000000E+00 0.  1.
         11    1    1    2    0    0 -0.18223396623E+02  0.17860825257E+03 -0.19517583262E+03  0.26519163959E+03  0.00000000000E+00 0. -1.
</event>
<event>
 7    1  0.2384639E-009  0.1412420E+03  0.7561462E-02  0.1211667E+00
         -3   -1    0    0    0  501 -0.00000000000E+00  0.00000000000E+00  0.35348360572E+03  0.35348360572E+03  0.00000000000E+00 0.  1.
          3   -1    0    0  501    0  0.00000000000E+00 -0.00000000000E+00 -0.10164243925E+03  0.10164243925E+03  0.00000000000E+00 0. -1.
         25    2    1    2    0    0 -0.93118290148E+02 -0.92320798166E+02  0.22672947853E+03  0.29025674212E+03  0.12509426117E+03 0.  0.
          5    1    3    3  502    0 -0.55761919075E+02 -0.98338486983E+02  0.22536512825E+03  0.25216415898E+03  0.41800000000E+01 0. -1.
         -5    1    3    3    0  502 -0.37356371073E+02  0.60176888174E+01  0.13643502751E+01  0.38092583138E+02  0.41800000000E+01 0. -1.
        -11    1    1    2    0    0  0.73353513153E+02  0.76372942088E+02  0.60004143510E+02  0.12171302894E+03  0.00000000000E+00 0.  1.
         11    1    1    2    0    0  0.19764776996E+02  0.15947856078E+02 -0.34892455563E+02  0.43156273917E+02  0.00000000000E+00 0. -1.
</event>
<event>
 7    1  0.2384639E-009  0.7906146E+02  0.7561462E-02  0.1331736E+00
          1   -1    0    0  501    0  0.00000000000E+00  0.00000000000E+00  0.96666829663E+03  0.96666829663E+03  0.00000000000E+00 0. -1.
         -1   -1    0    0    0  501 -0.00000000000E+00 -0.00000000000E+00 -0.16853000859E+02  0.16853000859E+02  0.00000000000E+00 0.  1.
         25    2    1    2    0    0 -0.53307595316E+02 -0.19595673097E+02  0.67292141341E+03  0.68680159100E+03  0.12508999419E+03 0.  0.
          5    1    3    3  502    0 -0.15990444630E+02 -0.56100667647E+01  0.62085904843E+03  0.62110433712E+03  0.41800000000E+01 0.  1.
         -5    1    3    3    0  502 -0.37317150686E+02 -0.13985606332E+02  0.52062364978E+02  0.65697253876E+02  0.41800000000E+01 0.  1.
        -11    1    1    2    0    0 -0.11808749204E+02 -0.20836922238E+02  0.31108327134E+02  0.39260054804E+02  0.00000000000E+00 0.  1.
         11    1    1    2    0    0  0.65116344521E+02  0.40432595335E+02  0.24578555523E+03  0.25745965169E+03  0.00000000000E+00 0. -1.
</event>
<event>
 7    1  0.2384639E-009  0.1276266E+03  0.7561462E-02  0.1231021E+00
         -1   -1    0    0    0  501 -0.00000000000E+00  0.00000000000E+00  0.57227224062E+02  0.57227224062E+02  0.00000000000E+00 0.  1.
          1   -1    0    0  501    0  0.00000000000E+00 -0.00000000000E+00 -0.40037104383E+03  0.40037104383E+03  0.00000000000E+00 0. -1.
         25    2    1    2    0    0  0.36682693350E+01  0.67057236167E+02 -0.64259398739E+02  0.15584325140E+03  0.12509084523E+03 0.  0.
          5    1    3    3  502    0 -0.14431607157E+02  0.10067285126E+03 -0.35275108426E+02  0.10772696942E+03  0.41800000000E+01 0. -1.
         -5    1    3    3    0  502  0.18099876492E+02 -0.33615615092E+02 -0.28984290313E+02  0.48116281984E+02  0.41800000000E+01 0. -1.
        -11    1    1    2    0    0 -0.45835582283E+02 -0.15350734951E+02 -0.10894465229E+03  0.11918675652E+03  0.00000000000E+00 0.  1.
         11    1    1    2    0    0  0.42167312948E+02 -0.51706501216E+02 -0.16993976874E+03  0.18256825997E+03  0.00000000000E+00 0. -1.
</event>
<event>
 7    1  0.2384639E-009  0.8650654E+02  0.7561462E-02  0.1311539E+00
          2   -1    0    0  501    0  0.00000000000E+00  0.00000000000E+00  0.29368670617E+03  0.29368670617E+03  0.00000000000E+00 0.  1.
         -2   -1    0    0    0  501 -0.00000000000E+00 -0.00000000000E+00 -0.61735107332E+02  0.61735107332E+02  0.00000000000E+00 0. -1.
         25    2    1    2    0    0  0.43087850622E+02  0.22387935078E+02  0.20827641657E+03  0.24775924705E+03  0.12509115194E+03 0.  0.
          5    1    3    3  502    0  0.71333957728E+02  0.23921461077E+02  0.58823054581E+02  0.95594947437E+02  0.41800000000E+01 0.  1.
         -5    1    3    3    0  502 -0.28246107106E+02 -0.15335259988E+01  0.14945336199E+03  0.15216429962E+03  0.41800000000E+01 0.  1.
        -11    1    1    2    0    0  0.10899323594E+02 -0.82673355251E+00  0.44567897499E+02  0.45888737514E+02  0.00000000000E+00 0.  1.
         11    1    1    2    0    0 -0.53987174216E+02 -0.21561201526E+02 -0.20892715232E+02  0.61773828932E+02  0.00000000000E+00 0. -1.
</event>
<event>
 7    1  0.2384639E-009  0.1490216E+03  0.7561462E-02  0.1201680E+00
         -2   -1    0    0    0  501 -0.00000000000E+00  0.00000000000E+00  0.25422029930E+02  0.25422029930E+02  0.00000000000E+00 0.  1.
          2   -1    0    0  501    0  0.00000000000E+00 -0.00000000000E+00 -0.13422212592E+04  0.13422212592E+04  0.00000000000E+00 0. -1.
         25    2    1    2    0    0 -0.14238994883E+03  0.18066028523E+02 -0.84567234062E+03  0.86683921232E+03  0.12508890203E+03 0.  0.
          5    1    3    3  502    0 -0.10022926254E+03  0.14701301541E+02 -0.25176621674E+03  0.27141432097E+03  0.41800000000E+01 0.  1.
         -5    1    3    3    0  502 -0.42160686289E+02  0.33647269820E+01 -0.59390612388E+03  0.59542489135E+03  0.41800000000E+01 0.  1.
        -11    1    1    2    0    0  0.12739346952E+03  0.40217782906E+01 -0.44701152852E+03  0.46482747058E+03  0.00000000000E+00 0. -1.
         11    1    1    2    0    0  0.14996479310E+02 -0.22087806813E+02 -0.24115360132E+02  0.35976606230E+02  0.00000000000E+00 0.  1.
</event>
<event>
 7    1  0.2384639E-009  0.2688644E+03  0.7561462E-02  0.1101931E+00
         -2   -1    0    0    0  501 -0.00000000000E+00  0.00000000000E+00  0.17646690909E+03  0.17646690909E+03  0.00000000000E+00 0.  1.
          2   -1    0    0  501    0  0.00000000000E+00 -0.00000000000E+00 -0.48188800535E+03  0.48188800535E+03  0.00000000000E+00 0. -1.
         25    2    1    2    0    0 -0.11958747632E+03 -0.23728510818E+03 -0.21274482215E+03  0.36264681527E+03  0.12508783403E+03 0.  0.
          5    1    3    3  502    0 -0.47004714613E+02 -0.62520237699E+02 -0.59894781819E+00  0.78332971706E+02  0.41800000000E+01 0. -1.
         -5    1    3    3    0  502 -0.72582761710E+02 -0.17476487048E+03 -0.21214587433E+03  0.28431384357E+03  0.41800000000E+01 0. -1.
        -11    1    1    2    0    0  0.26750474912E+02  0.18722111732E+02 -0.41480209795E+02  0.52789328281E+02  0.00000000000E+00 0. -1.
         11    1    1    2    0    0  0.92837001411E+02  0.21856299645E+03 -0.51196064319E+02  0.24291877088E+03  0.00000000000E+00 0.  1.
</event>
<event>
 7    1  0.2384639E-009  0.6660139E+02  0.7561462E-02  0.1372047E+00
         -1   -1    0    0    0  501 -0.00000000000E+00  0.00000000000E+00  0.82739439261E+02  0.82739439261E+02  0.00000000000E+00 0.  1.
          1   -1    0    0  501    0  0.00000000000E+00 -0.00000000000E+00 -0.13970083722E+03  0.13970083722E+03  0.00000000000E+00 0. -1.
         25    2    1    2    0    0 -0.91703429277E+01 -0.18361526724E+01 -0.50720523897E+02  0.13530648616E+03  0.12509119476E+03 0.  0.
          5    1    3    3  502    0 -0.24870015581E+02  0.37418182042E+02  0.22676593631E+02  0.50500874458E+02  0.41800000000E+01 0. -1.
         -5    1    3    3    0  502  0.15699672653E+02 -0.39254334714E+02 -0.73397117529E+02  0.84805611706E+02  0.41800000000E+01 0. -1.
        -11    1    1    2    0    0 -0.17293465930E+02  0.69584722781E+01  0.33955790734E+02  0.38736030059E+02  0.00000000000E+00 0.  1.
         11    1    1    2    0    0  0.26463808858E+02 -0.51223196057E+01 -0.40196664798E+02  0.48397760262E+02  0.00000000000E+00 0. -1.
</event>
<event>
 7    1  0.2384639E-009  0.1219322E+03  0.7561462E-02  0.1239943E+00
          1   -1    0    0  501    0  0.00000000000E+00  0.00000000000E+00  0.18608989414E+03  0.18608989414E+03  0.00000000000E+00 0. -1.
         -1   -1    0    0    0  501 -0.00000000000E+00 -0.00000000000E+00 -0.98918226439E+02  0.98918226439E+02  0.00000000000E+00 0.  1.
         25    2    1    2    0    0 -0.33104602175E+02  0.69229737536E+02  0.79566571943E+02  0.16693365624E+03  0.12508930798E+03 0.  0.
          5    1    3    3  502    0  0.40451947164E+02  0.35393260550E+02  0.65190854796E+02  0.84595288703E+02  0.41800000000E+01 0. -1.
         -5    1    3    3    0  502 -0.73556549339E+02  0.33836476986E+02  0.14375717148E+02  0.82338367539E+02  0.41800000000E+01 0. -1.
        -11    1    1    2    0    0 -0.14208443550E+02 -0.58717055574E+02 -0.18295132431E+02  0.63121187837E+02  0.00000000000E+00 0.  1.
         11    1    1    2    0    0  0.47313045725E+02 -0.10512681963E+02  0.25900228192E+02  0.54953276501E+02  0.00000000000E+00 0. -1.
</event>
<event>
 7    1  0.2384639E-009  0.7591879E+02  0.7561462E-02  0.1341049E+00
          3   -1    0    0  501    0  0.00000000000E+00  0.00000000000E+00  0.10361022016E+03  0.10361022016E+03  0.00000000000E+00 0. -1.
         -3   -1    0    0    0  501 -0.00000000000E+00 -0.00000000000E+00 -0.13040996652E+03  0.13040996652E+03  0.00000000000E+00 0.  1.
         25    2    1    2    0    0 -0.38979935109E+01  0.19195261282E+02  0.17608150492E+02  0.12783424932E+03  0.12509155018E+03 0.  0.
          5    1    3    3  502    0 -0.26027720581E+02 -0.29233692112E+02  0.51317856775E+02  0.64676470351E+02  0.41800000000E+01 0.  1.
         -5    1    3    3    0  502  0.22129727070E+02  0.48428953394E+02 -0.33709706283E+02  0.63157778972E+02  0.41800000000E+01 0.  1.
        -11    1    1    2    0    0 -0.49665506452E+01 -0.37974501503E+02 -0.65950484414E+02  0.76263987466E+02  0.00000000000E+00 0.  1.
         11    1    1    2    0    0  0.88645441561E+01  0.18779240221E+02  0.21542587567E+02  0.29921949894E+02  0.00000000000E+00 0. -1.
</event>
<event>
 7    1  0.2384639E-009  0.1529952E+03  0.7561462E-02  0.1196840E+00
         -2   -1    0    0    0  501 -0.00000000000E+00  0.00000000000E+00  0.47232510986E+02  0.47232510986E+02  0.00000000000E+00 0. -1.
          2   -1    0    0  501    0  0.00000000000E+00 -0.00000000000E+00 -0.69531768571E+03  0.69531768571E+03  0.00000000000E+00 0.  1.
         25    2    1    2    0    0  0.11793173914E+03  0.76509238199E+02 -0.40955704003E+03  0.45071724223E+03  0.12508998672E+03 0.  0.
          5    1    3    3  502    0  0.72782292800E+02  0.90263928362E+02 -0.37369524588E+03  0.39129330188E+03  0.41800000000E+01 0. -1.
         -5    1    3    3    0  502  0.45149446340E+02 -0.13754690163E+02 -0.35861794155E+02  0.59423940346E+02  0.41800000000E+01 0. -1.
        -11    1    1    2    0    0 -0.80694620957E+02 -0.64962258022E+02 -0.86724903653E+02  0.13510338905E+03  0.00000000000E+00 0.  1.
         11    1    1    2    0    0 -0.37237118183E+02 -0.11546980176E+02 -0.15180323104E+03  0.15672956541E+03  0.00000000000E+00 0. -1.
</event>
<event>
 7    1  0.3146906E-009  0.1693277E+03  0.7561462E-02  0.1178551E+00
          2   -1    0    0  501    0  0.00000000000E+00  0.00000000000E+00  0.94277246128E+03  0.94277246128E+03  0.00000000000E+00 0.  1.
         -2   -1    0    0    0  501 -0.00000000000E+00 -0.00000000000E+00 -0.42549246309E+02  0.42549246309E+02  0.00000000000E+00 0. -1.
         25    2    1    2    0    0  0.65475401419E+02  0.13897910220E+03  0.30389769552E+03  0.36277442467E+03  0.12509698161E+03 0.  0.
          5    1    3    3  502    0  0.71855047616E+01 -0.15871531910E+02  0.92873109951E+02  0.94585537773E+02  0.41800000000E+01 0. -1.
         -5    1    3    3    0  502  0.58289896657E+02  0.15485063411E+03  0.21102458557E+03  0.26818888689E+03  0.41800000000E+01 0. -1.
        -11    1    1    2    0    0 -0.43361961934E+02 -0.65984422571E+02  0.14765454808E+03  0.16743974837E+03  0.00000000000E+00 0.  1.
         11    1    1    2    0    0 -0.22113439485E+02 -0.72994679632E+02  0.44867097137E+03  0.45510753455E+03  0.00000000000E+00 0. -1.
</event>
<event>
 7    1  0.2384639E-009  0.9153731E+02  0.7561462E-02  0.1299171E+00
         -2   -1    0    0    0  501 -0.00000000000E+00  0.00000000000E+00  0.36496168786E+02  0.36496168786E+02  0.00000000000E+00 0.  1.
          2   -1    0    0  501    0  0.00000000000E+00 -0.00000000000E+00 -0.40645797936E+03  0.40645797936E+03  0.00000000000E+00 0. -1.
         25    2    1    2    0    0  0.42132512600E+01 -0.42808509403E+02 -0.17906588490E+03  0.22263051949E+03  0.12509771024E+03 0.  0.
          5    1    3    3  502    0 -0.28167032543E+02 -0.12931355062E+02  0.64299955139E+01  0.31928340206E+02  0.41800000000E+01 0.  1.
         -5    1    3    3    0  502  0.32380283803E+02 -0.29877154341E+02 -0.18549588042E+03  0.19070217928E+03  0.41800000000E+01 0.  1.
        -11    1    1    2    0    0  0.47102273990E+02  0.16752829686E+02 -0.65918271244E+02  0.82731493407E+02  0.00000000000E+00 0.  1.
         11    1    1    2    0    0 -0.51315525250E+02  0.26055679717E+02 -0.12497765443E+03  0.13759213525E+03  0.00000000000E+00 0. -1.
</event>
<event>
 7    1  0.2384639E-009  0.8793627E+02  0.7561462E-02  0.1307928E+00
         -1   -1    0    0    0  501 -0.00000000000E+00  0.00000000000E+00  0.25691417104E+03  0.25691417104E+03  0.00000000000E+00 0.  1.
          1   -1    0    0  501    0  0.00000000000E+00 -0.00000000000E+00 -0.55458348453E+02  0.55458348453E+02  0.00000000000E+00 0. -1.
         25    2    1    2    0    0  0.41154002435E+02  0.20050206856E+02  0.14476713223E+03  0.19671918707E+03  0.12508098688E+03 0.  0.
          5    1    3    3  502    0  0.21096562447E+02 -0.48499641015E+02  0.28559389613E+02  0.60252728244E+02  0.41800000000E+01 0.  1.
         -5    1    3    3    0  502  0.20057439987E+02  0.68549847871E+02  0.11620774261E+03  0.13646645883E+03  0.41800000000E+01 0.  1.
        -11    1    1    2    0    0 -0.33294813225E+02 -0.41717996170E+01  0.79779401180E+02  0.86548837961E+02  0.00000000000E+00 0.  1.
         11    1    1    2    0    0 -0.78591892096E+01 -0.15878407239E+02 -0.23090710821E+02  0.29104494459E+02  0.00000000000E+00 0. -1.
</event>
<event>
 7    1  0.2384639E-009  0.1386139E+03  0.7561462E-02  0.1215206E+00
         -2   -1    0    0    0  501 -0.00000000000E+00  0.00000000000E+00  0.38687627477E+02  0.38687627477E+02  0.00000000000E+00 0.  1.
          2   -1    0    0  501    0  0.00000000000E+00 -0.00000000000E+00 -0.53751383015E+03  0.53751383015E+03  0.00000000000E+00 0. -1.
         25    2    1    2    0    0  0.59199581944E+02 -0.65406206033E+02 -0.33092456978E+03  0.36461055682E+03  0.12508886830E+03 0.  0.
          5    1    3    3  502    0 -0.36868985841E+02 -0.22974645173E+02 -0.61507810680E+02  0.75417767220E+02  0.41800000000E+01 0.  1.
         -5    1    3    3    0  502  0.96068567785E+02 -0.42431560860E+02 -0.26941675910E+03  0.28919278960E+03  0.41800000000E+01 0.  1.
        -11    1    1    2    0    0 -0.32570357547E+02  0.87825630861E+02 -0.11602207813E+03  0.14911503023E+03  0.00000000000E+00 0.  1.
         11    1    1    2    0    0 -0.26629224397E+02 -0.22419424828E+02 -0.51879554762E+02  0.62475870574E+02  0.00000000000E+00 0. -1.
</event>
<event>
 7    1  0.2384639E-009  0.1154006E+03  0.7561462E-02  0.1250884E+00
          2   -1    0    0  501    0  0.00000000000E+00  0.00000000000E+00  0.16384553320E+03  0.16384553320E+03  0.00000000000E+00 0. -1.
         -2   -1    0    0    0  501 -0.00000000000E+00 -0.00000000000E+00 -0.88196063677E+02  0.88196063677E+02  0.00000000000E+00 0.  1.
         25    2    1    2    0    0  0.17182342705E+02 -0.45905634962E+02  0.61276767021E+02  0.14766620495E+03  0.12509158918E+03 0.  0.
          5    1    3    3  502    0 -0.27790040610E+02  0.30482319346E+02  0.37233744925E+02  0.55725059991E+02  0.41800000000E+01 0. -1.
         -5    1    3    3    0  502  0.44972383315E+02 -0.76387954308E+02  0.24043022096E+02  0.91941144956E+02  0.41800000000E+01 0. -1.
        -11    1    1    2    0    0 -0.48509115461E+02  0.49208946008E+02  0.20931032979E+02  0.72199465314E+02  0.00000000000E+00 0. -1.
         11    1    1    2    0    0  0.31326772756E+02 -0.33033110459E+01 -0.65583304747E+01  0.32175926619E+02  0.00000000000E+00 0.  1.
</event>
<event>
 7    1  0.2384639E-009  0.1776493E+03  0.7561462E-02  0.1170098E+00
          1   -1    0    0  501    0  0.00000000000E+00  0.00000000000E+00  0.20428233677E+04  0.20428233677E+04  0.00000000000E+00 0. -1.
         -1   -1    0    0    0  501 -0.00000000000E+00 -0.00000000000E+00 -0.22133705825E+02  0.22133705825E+02  0.00000000000E+00 0.  1.
         25    2    1    2    0    0 -0.13192611051E+03 -0.97024341152E+02  0.14421740810E+04  0.14568224078E+04  0.12508887478E+03 0.  0.
          5    1    3    3  502    0 -0.22930904518E+01 -0.54664357441E+02  0.70467078225E+03  0.70680395726E+03  0.41800000000E+01 0.  1.
         -5    1    3    3    0  502 -0.12963302006E+03 -0.42359983711E+02  0.73750329878E+03  0.75001845059E+03  0.41800000000E+01 0.  1.
        -11    1    1    2    0    0  0.88355590235E+02  0.59940107035E+02  0.49826672705E+03  0.50957752898E+03  0.00000000000E+00 0.  1.
         11    1    1    2    0    0  0.43570520279E+02  0.37084234117E+02  0.80248853757E+02  0.98557136661E+02  0.00000000000E+00 0. -1.
</event>
<event>
 7    1  0.2460055E-009  0.6402001E+02  0.7561462E-02  0.1381696E+00
          1   -1    0    0  501    0  0.00000000000E+00  0.00000000000E+00  0.10476405844E+03  0.10476405844E+03  0.00000000000E+00 0. -1.
         -1   -1    0    0    0  501 -0.00000000000E+00 -0.00000000000E+00 -0.13267175200E+03  0.13267175200E+03  0.00000000000E+00 0.  1.
         25    2    1    2    0    0  0.24329075853E+02  0.13235280653E+02  0.21522106752E+02  0.12991463307E+03  0.12509010441E+03 0.  0.
          5    1    3    3  502    0  0.50693188108E+01 -0.29144265847E+02 -0.41696692551E+02  0.51294958765E+02  0.41800000000E+01 0.  1.
         -5    1    3    3    0  502  0.19259757042E+02  0.42379546501E+02  0.63218799304E+02  0.78619674308E+02  0.41800000000E+01 0.  1.
        -11    1    1    2    0    0 -0.36985368915E+02 -0.88249870276E+01 -0.71912771671E+02  0.81346448227E+02  0.00000000000E+00 0.  1.
         11    1    1    2    0    0  0.12656293062E+02 -0.44102936256E+01  0.22482971361E+02  0.26174729132E+02  0.00000000000E+00 0. -1.
</event>
<event>
 7    1  0.2384639E-009  0.1106517E+03  0.7561462E-02  0.1259368E+00
          2   -1    0    0  501    0  0.00000000000E+00  0.00000000000E+00  0.41158393953E+02  0.41158393953E+02  0.00000000000E+00 0.  1.
         -2   -1    0    0    0  501 -0.00000000000E+00 -0.00000000000E+00 -0.34564531139E+03  0.34564531139E+03  0.00000000000E+00 0. -1.
         25    2    1    2    0    0 -0.18929623929E+02 -0.21464907936E+02 -0.10435996317E+03  0.16541147580E+03  0.12510348308E+03 0.  0.
          5    1    3    3  502    0 -0.78055497437E+01 -0.73940572475E+02 -0.63116753927E+02  0.97618296907E+02  0.41800000000E+01 0. -1.
         -5    1    3    3    0  502 -0.11124074185E+02  0.52475664539E+02 -0.41243209241E+02  0.67793178889E+02  0.41800000000E+01 0. -1.
        -11    1    1    2    0    0  0.54662041147E+02  0.15369376699E+02 -0.14145376875E+03  0.15242481811E+03  0.00000000000E+00 0. -1.
         11    1    1    2    0    0 -0.35732417218E+02  0.60955312366E+01 -0.58673185518E+02  0.68967411435E+02  0.00000000000E+00 0.  1.
</event>
<event>
 7    1  0.2384639E-009  0.2283073E+03  0.7561462E-02  0.1127837E+00
          2   -1    0    0  501    0  0.00000000000E+00  0.00000000000E+00  0.43662375007E+03  0.43662375007E+03  0.00000000000E+00 0. -1.
         -2   -1    0    0    0  501 -0.00000000000E+00 -0.00000000000E+00 -0.25194015612E+03  0.25194015612E+03  0.00000000000E+00 0.  1.
         25    2    1    2    0    0 -0.14041947923E+03 -0.14472167818E+03 -0.15500523796E+03  0.28343295875E+03  0.12508246890E+03 0.  0.
          5    1    3    3  502    0 -0.58505664398E+02 -0.14372324160E+03 -0.99110323362E+02  0.18417277633E+03  0.41800000000E+01 0.  1.
         -5    1    3    3    0  502 -0.81913814833E+02 -0.99843657847E+00 -0.55894914598E+02  0.99260182420E+02  0.41800000000E+01 0.  1.
        -11    1    1    2    0    0 -0.89910197196E+01  0.29031933968E+02  0.32677539094E+02  0.44626373220E+02  0.00000000000E+00 0.  1.
         11    1    1    2    0    0  0.14941049895E+03  0.11568974421E+03  0.30701129282E+03  0.36050457422E+03  0.00000000000E+00 0. -1.
</event>
<event>
 7    1  0.2384639E-009  0.1156925E+03  0.7561462E-02  0.1250377E+00
         -3   -1    0    0    0  501 -0.00000000000E+00  0.00000000000E+00  0.42106696072E+03  0.42106696072E+03  0.00000000000E+00 0.  1.
          3   -1    0    0  501    0  0.00000000000E+00 -0.00000000000E+00 -0.40477358801E+02  0.40477358801E+02  0.00000000000E+00 0. -1.
         25    2    1    2    0    0  0.53222670705E+02 -0.32946550201E+02  0.17660155235E+03  0.22528902426E+03  0.12509559669E+03 0.  0.
          5    1    3    3  502    0  0.58108704008E+02 -0.65016917484E+02  0.64581266482E+02  0.10859112957E+03  0.41800000000E+01 0. -1.
         -5    1    3    3    0  502 -0.48860333023E+01  0.32070367283E+02  0.11202028587E+03  0.11669789469E+03  0.41800000000E+01 0. -1.
        -11    1    1    2    0    0 -0.73274358242E+02  0.54991607108E+00  0.89939225136E+02  0.11601076761E+03  0.00000000000E+00 0. -1.
         11    1    1    2    0    0  0.20051687537E+02  0.32396634129E+02  0.11404882443E+03  0.12024452765E+03  0.00000000000E+00 0.  1.
</event>
<event>
 7    1  0.2384639E-009  0.1079511E+03  0.7561462E-02  0.1264412E+00
          2   -1    0    0  501    0  0.00000000000E+00  0.00000000000E+00  0.12215995804E+03  0.12215995804E+03  0.00000000000E+00 0. -1.
         -2   -1    0    0    0  501 -0.00000000000E+00 -0.00000000000E+00 -0.18222619216E+03  0.18222619216E+03  0.00000000000E+00 0.  1.
         25    2    1    2    0    0  0.98706776409E+01 -0.78810733294E+02 -0.98782954101E+02  0.17809114715E+03  0.12509925144E+03 0.  0.
          5    1    3    3  502    0  0.52458476350E+02 -0.73914443497E+02 -0.99965851604E+02  0.13500326139E+03  0.41800000000E+01 0. -1.
         -5    1    3    3    0  502 -0.42587798709E+02 -0.48962897965E+01  0.11828975024E+01  0.43087885759E+02  0.41800000000E+01 0. -1.
        -11    1    1    2    0    0  0.46738591627E+01  0.45617104173E+02 -0.25565418026E+02  0.52501007147E+02  0.00000000000E+00 0.  1.
         11    1    1    2    0    0 -0.14544536804E+02  0.33193629121E+02  0.64282138010E+02  0.73793995908E+02  0.00000000000E+00 0. -1.
</event>
<event>
 7    1  0.2384639E-009  0.1850890E+03  0.7561462E-02  0.1162967E+00
         -2   -1    0    0    0  501 -0.00000000000E+00  0.00000000000E+00  0.87970698951E+02  0.87970698951E+02  0.00000000000E+00 0.  1.
          2   -1    0    0  501    0  0.00000000000E+00 -0.00000000000E+00 -0.46386866553E+03  0.46386866553E+03  0.00000000000E+00 0. -1.
         25    2    1    2    0    0  0.15727931310E+03  0.92653416532E+01 -0.10869771780E+03  0.22865988184E+03  0.12509004286E+03 0.  0.
          5    1    3    3  502    0  0.47201643850E+02 -0.53889154342E+02 -0.56666531026E+02  0.91436340021E+02  0.41800000000E+01 0. -1.
         -5    1    3    3    0  502  0.11007766925E+03  0.63154495995E+02 -0.52031186772E+02  0.13722354182E+03  0.41800000000E+01 0. -1.
        -11    1    1    2    0    0 -0.35709489346E+02  0.26785404766E+02 -0.12460487339E+03  0.13235935936E+03  0.00000000000E+00 0.  1.
         11    1    1    2    0    0 -0.12156982376E+03 -0.36050746419E+02 -0.14259537539E+03  0.19082012328E+03  0.00000000000E+00 0. -1.
</event>
<event>
 7    1  0.2384639E-009  0.3559254E+03  0.7561462E-02  0.1060209E+00
          2   -1    0    0  501    0  0.00000000000E+00  0.00000000000E+00  0.11251267827E+04  0.11251267827E+04  0.00000000000E+00 0. -1.
         -2   -1    0    0    0  501 -0.00000000000E+00 -0.00000000000E+00 -0.11929957153E+03  0.11929957153E+03  0.00000000000E+00 0.  1.
         25    2    1    2    0    0 -0.17527287639E+02 -0.33967441264E+03  0.37050474392E+03  0.51827061999E+03  0.12507900651E+03 0.  0.
          5    1    3    3  502    0  0.40447883454E+02 -0.25859251283E+03  0.25189670081E+03  0.36328437793E+03  0.41800000000E+01 0. -1.
         -5    1    3    3    0  502 -0.57975171093E+02 -0.81081899809E+02  0.11860804311E+03  0.15498624207E+03  0.41800000000E+01 0. -1.
        -11    1    1    2    0    0  0.50257268557E+02  0.24621168525E+03  0.48329425310E+03  0.54471948935E+03  0.00000000000E+00 0.  1.
         11    1    1    2    0    0 -0.32729980917E+02  0.93462727390E+02  0.15202821419E+03  0.18143624493E+03  0.00000000000E+00 0. -1.
</event>
<event>
 7    1  0.2384639E-009  0.1191009E+03  0.7561462E-02  0.1244588E+00
         -3   -1    0    0    0  501 -0.00000000000E+00  0.00000000000E+00  0.46545308278E+02  0.46545308278E+02  0.00000000000E+00 0.  1.
          3   -1    0    0  501    0  0.00000000000E+00 -0.00000000000E+00 -0.51519132508E+03  0.51519132508E+03  0.00000000000E+00 0. -1.
         25    2    1    2    0    0  0.49134526403E+02 -0.98706333939E+02 -0.24177046648E+03  0.29369833837E+03  0.12509441815E+03 0.  0.
          5    1    3    3  502    0  0.44378360101E+02 -0.95205648078E+02 -0.80859016307E+02  0.13262430844E+03  0.41800000000E+01 0. -1.
         -5    1    3    3    0  502  0.47561663017E+01 -0.35006858608E+01 -0.16091145018E+03  0.16107402993E+03  0.41800000000E+01 0. -1.
        -11    1    1    2    0    0 -0.11698670773E+02  0.85269938584E+02 -0.20569557002E+03  0.22297643115E+03  0.00000000000E+00 0. -1.
         11    1    1    2    0    0 -0.37435855630E+02  0.13436395354E+02 -0.21179980299E+02  0.45061863835E+02  0.00000000000E+00 0.  1.
</event>
<event>
 7    1  0.2384639E-009  0.1248273E+03  0.7561462E-02  0.1235339E+00
         -2   -1    0    0    0  501 -0.00000000000E+00  0.00000000000E+00  0.41836280187E+02  0.41836280187E+02  0.00000000000E+00 0.  1.
          2   -1    0    0  501    0  0.00000000000E+00 -0.00000000000E+00 -0.59071407968E+03  0.59071407968E+03  0.00000000000E+00 0. -1.
         25    2    1    2    0    0  0.60919525239E+02 -0.56900262816E+02 -0.44892013623E+03  0.47341966543E+03  0.12509221575E+03 0.  0.
          5    1    3    3  502    0  0.46380583591E+02 -0.90819182001E+02 -0.23364294718E+03  0.25496231392E+03  0.41800000000E+01 0. -1.
         -5    1    3    3    0  502  0.14538941648E+02  0.33918919186E+02 -0.21527718905E+03  0.21845735151E+03  0.41800000000E+01 0. -1.
        -11    1    1    2    0    0 -0.49915281119E+02 -0.25615694542E+01 -0.82030564784E+02  0.96057849684E+02  0.00000000000E+00 0. -1.
         11    1    1    2    0    0 -0.11004244120E+02  0.59461832270E+02 -0.17927098485E+02  0.63072844756E+02  0.00000000000E+00 0.  1.
</event>
<event>
 7    1  0.2384639E-009  0.1011907E+03  0.7561462E-02  0.1277812E+00
         -1   -1    0    0    0  501 -0.00000000000E+00  0.00000000000E+00  0.55461813916E+03  0.55461813916E+03  0.00000000000E+00 0.  1.
          1   -1    0    0  501    0  0.00000000000E+00 -0.00000000000E+00 -0.25211661961E+02  0.25211661961E+02  0.00000000000E+00 0. -1.
         25    2    1    2    0    0  0.31055326407E+02  0.36948578639E+02  0.27425341079E+03  0.30527323060E+03  0.12508869345E+03 0.  0.
          5    1    3    3  502    0 -0.29949104252E+02  0.35644858458E+02  0.21533202566E+03  0.22034713172E+03  0.41800000000E+01 0. -1.
         -5    1    3    3    0  502  0.61004430658E+02  0.13037201818E+01  0.58921385126E+02  0.84926098883E+02  0.41800000000E+01 0. -1.
        -11    1    1    2    0    0  0.25008382797E+02  0.36267981940E+01  0.12093196990E+03  0.12354397686E+03  0.00000000000E+00 0.  1.
         11    1    1    2    0    0 -0.56063709203E+02 -0.40575376833E+02  0.13422109651E+03  0.15101259366E+03  0.00000000000E+00 0. -1.
</event>
<event>
 7    1  0.2384639E-009  0.1163772E+03  0.7561462E-02  0.1249196E+00
         -2   -1    0    0    0  501 -0.00000000000E+00  0.00000000000E+00  0.14469911627E+03  0.14469911627E+03  0.00000000000E+00 0. -1.
          2   -1    0    0  501    0  0.00000000000E+00 -0.00000000000E+00 -0.10333233233E+03  0.10333233233E+03  0.00000000000E+00 0.  1.
         25    2    1    2    0    0 -0.23058559823E+02  0.41225482124E+02 -0.13587758388E+02  0.13440322462E+03  0.12509341330E+03 0.  0.
          5    1    3    3  502    0  0.46007385345E+02  0.44891072431E+02 -0.73569872200E+01  0.64834293019E+02  0.41800000000E+01 0.  1.
         -5    1    3    3    0  502 -0.69065945168E+02 -0.36655903063E+01 -0.62307711680E+01  0.69568931597E+02  0.41800000000E+01 0.  1.
        -11    1    1    2    0    0  0.52844936809E+02 -0.44497422027E+02  0.33527110310E+02  0.76789810776E+02  0.00000000000E+00 0. -1.
         11    1    1    2    0    0 -0.29786376986E+02  0.32719399024E+01  0.21427432023E+02  0.36838413209E+02  0.00000000000E+00 0.  1.
</event>
<event>
 7    1  0.2384639E-009  0.1118391E+03  0.7561462E-02  0.1257202E+00
          1   -1    0    0  501    0  0.00000000000E+00  0.00000000000E+00  0.24338664950E+03  0.24338664950E+03  0.00000000000E+00 0. -1.
         -1   -1    0    0    0  501 -0.00000000000E+00 -0.00000000000E+00 -0.59277551301E+02  0.59277551301E+02  0.00000000000E+00 0.  1.
         25    2    1    2    0    0 -0.87725063204E+01  0.44473368682E+02  0.14081398514E+03  0.19372694267E+03  0.12508681991E+03 0.  0.
          5    1    3    3  502    0  0.49449666061E+02 -0.28218416934E+01  0.24895624754E+02  0.55592236832E+02  0.41800000000E+01 0.  1.
         -5    1    3    3    0  502 -0.58222172381E+02  0.47295210375E+02  0.11591836039E+03  0.13813470584E+03  0.41800000000E+01 0.  1.
        -11    1    1    2    0    0  0.34435485358E+02  0.12279323664E+02  0.82832013735E+01  0.37485942251E+02  0.00000000000E+00 0.  1.
         11    1    1    2    0    0 -0.25662979037E+02 -0.56752692346E+02  0.35011911684E+02  0.71451315883E+02  0.00000000000E+00 0. -1.
</event>
<event>
 7    1  0.2384639E-009  0.1566090E+03  0.7561462E-02  0.1192579E+00
         -2   -1    0    0    0  501 -0.00000000000E+00  0.00000000000E+00  0.28363647353E+02  0.28363647353E+02  0.00000000000E+00 0.  1.
          2   -1    0    0  501    0  0.00000000000E+00 -0.00000000000E+00 -0.11094085859E+04  0.11094085859E+04  0.00000000000E+00 0. -1.
         25    2    1    2    0    0  0.30951047219E+02  0.13409070160E+03 -0.67016660669E+03  0.69549176970E+03  0.12508891805E+03 0.  0.
          5    1    3    3  502    0 -0.39319586050E+02  0.52421944367E+02 -0.14220056522E+03  0.15662874336E+03  0.41800000000E+01 0. -1.
         -5    1    3    3    0  502  0.70270633269E+02  0.81668757230E+02 -0.52796604147E+03  0.53886302634E+03  0.41800000000E+01 0. -1.
        -11    1    1    2    0    0  0.28087946234E+01 -0.33766918422E+02 -0.24894968092E+02  0.42045850488E+02  0.00000000000E+00 0. -1.
         11    1    1    2    0    0 -0.33759841842E+02 -0.10032378318E+03 -0.38598336375E+03  0.40023461305E+03  0.00000000000E+00 0.  1.
</event>
<event>
 7    1  0.2384639E-009  0.1092977E+03  0.7561462E-02  0.1261876E+00
         -1   -1    0    0    0  501 -0.00000000000E+00  0.00000000000E+00  0.93162233275E+02  0.93162233275E+02  0.00000000000E+00 0.  1.
          1   -1    0    0  501    0  0.00000000000E+00 -0.00000000000E+00 -0.22313878519E+03  0.22313878519E+03  0.00000000000E+00 0. -1.
         25    2    1    2    0    0 -0.77069270589E+02  0.47909455601E+02 -0.19940184687E+02  0.15582091499E+03  0.12509020017E+03 0.  0.
          5    1    3    3  502    0 -0.76317334685E+02  0.54676082537E+02  0.35016355145E+02  0.10028672446E+03  0.41800000000E+01 0.  1.
         -5    1    3    3    0  502 -0.75193590440E+00 -0.67666269359E+01 -0.54956539832E+02  0.55534190532E+02  0.41800000000E+01 0.  1.
        -11    1    1    2    0    0  0.62541804334E+02 -0.67644209711E+02 -0.83143839638E+02  0.12409719766E+03  0.00000000000E+00 0. -1.
         11    1    1    2    0    0  0.14527466256E+02  0.19734754109E+02 -0.26892527595E+02  0.36382905821E+02  0.00000000000E+00 0.  1.
</event>
<event>
 7    1  0.2384639E-009  0.1157817E+03  0.7561462E-02  0.1250223E+00
         -1   -1    0    0    0  501 -0.00000000000E+00  0.00000000000E+00  0.30987157522E+03  0.30987157522E+03  0.00000000000E+00 0.  1.
          1   -1    0    0  501    0  0.00000000000E+00 -0.00000000000E+00 -0.52399906907E+02  0.52399906907E+02  0.00000000000E+00 0. -1.
         25    2    1    2    0    0  0.64375612692E+02  0.15352492601E+02  0.14775925828E+03  0.20459701313E+03  0.12508885176E+03 0.  0.
          5    1    3    3  502    0 -0.26471658241E+02 -0.12907770717E+01 -0.37654773609E+01  0.27093652674E+02  0.41800000000E+01 0. -1.
         -5    1    3    3    0  502  0.90847270933E+02  0.16643269672E+02  0.15152473564E+03  0.17750336045E+03  0.41800000000E+01 0. -1.
        -11    1    1    2    0    0 -0.83624957985E+02  0.56175602474E+01  0.90403297927E+02  0.12327792526E+03  0.00000000000E+00 0.  1.
         11    1    1    2    0    0  0.19249345293E+02 -0.20970052848E+02  0.19309112108E+02  0.34396543737E+02  0.00000000000E+00 0. -1.
</event>
<event>
 7    1  0.2384639E-009  0.2015089E+03  0.7561462E-02  0.1148472E+00
         -1   -1    0    0    0  501 -0.00000000000E+00  0.00000000000E+00  0.60221171865E+02  0.60221171865E+02  0.00000000000E+00 0.  1.
          1   -1    0    0  501    0  0.00000000000E+00 -0.00000000000E+00 -0.76638276302E+03  0.76638276302E+03  0.00000000000E+00 0. -1.
         25    2    1    2    0    0 -0.16932803971E+03  0.38363078596E+02 -0.49495213765E+03  0.53922990203E+03  0.12509019884E+03 0.  0.
          5    1    3    3  502    0 -0.38332890249E+02  0.68827975253E+02 -0.20174030245E+03  0.21661791866E+03  0.41800000000E+01 0. -1.
         -5    1    3    3    0  502 -0.13099514946E+03 -0.30464896657E+02 -0.29321183520E+03  0.32261198337E+03  0.41800000000E+01 0. -1.
        -11    1    1    2    0    0  0.12753920076E+03 -0.61727280675E+02 -0.12588476219E+03  0.18953489986E+03  0.00000000000E+00 0.  1.
         11    1    1    2    0    0  0.41788838947E+02  0.23364202079E+02 -0.85324691301E+02  0.97839132994E+02  0.00000000000E+00 0. -1.
</event>
<event>
 7    1  0.2384639E-009  0.1554001E+03  0.7561462E-02  0.1193990E+00
         -1   -1    0    0    0  501 -0.00000000000E+00  0.00000000000E+00  0.20368588616E+03  0.20368588616E+03  0.00000000000E+00 0.  1.
          1   -1    0    0  501    0  0.00000000000E+00 -0.00000000000E+00 -0.16427240803E+03  0.16427240803E+03  0.00000000000E+00 0. -1.
         25    2    1    2    0    0 -0.20425580070E+02 -0.11308397385E+03  0.11393074746E+03  0.20453371842E+03  0.12509451343E+03 0.  0.
          5    1    3    3  502    0 -0.63650115206E+02 -0.22911689677E+02  0.30887448617E+02  0.74483485228E+02  0.41800000000E+01 0.  1.
         -5    1    3    3    0  502  0.43224535137E+02 -0.90172284172E+02  0.83043298841E+02  0.13005023319E+03  0.41800000000E+01 0.  1.
        -11    1    1    2    0    0  0.49469121123E+02  0.37834613180E+02 -0.17642788660E+02  0.64729590536E+02  0.00000000000E+00 0.  1.
         11    1    1    2    0    0 -0.29043541053E+02  0.75249360669E+02 -0.56874480670E+02  0.98694985230E+02  0.00000000000E+00 0. -1.
</event>
<event>
 7    1  0.2384639E-009  0.1626968E+03  0.7561462E-02  0.1185685E+00
          2   -1    0    0  501    0  0.00000000000E+00  0.00000000000E+00  0.15765552232E+04  0.15765552232E+04  0.00000000000E+00 0. -1.
         -2   -1    0    0    0  501 -0.00000000000E+00 -0.00000000000E+00 -0.17648526419E+02  0.17648526419E+02  0.00000000000E+00 0.  1.
         25    2    1    2    0    0 -0.20288213689E+02 -0.12020313914E+03  0.74082698927E+03  0.76113856099E+03  0.12508746827E+03 0.  0.
          5    1    3    3  502    0  0.30675953708E+02 -0.11343772262E+03  0.59368117365E+03  0.60521396167E+03  0.41800000000E+01 0. -1.
         -5    1    3    3    0  502 -0.50964167397E+02 -0.67654165222E+01  0.14714581562E+03  0.15592459932E+03  0.41800000000E+01 0. -1.
        -11    1    1    2    0    0  0.59980665535E+02  0.75987844671E+02  0.55279598616E+03  0.56120872685E+03  0.00000000000E+00 0.  1.
         11    1    1    2    0    0 -0.39692451846E+02  0.44215294474E+02  0.26528372131E+03  0.27185646174E+03  0.00000000000E+00 0. -1.
</event>
<event>
 7    1  0.2384639E-009  0.1325809E+03  0.7561462E-02  0.1223676E+00
         -3   -1    0    0    0  501 -0.00000000000E+00  0.00000000000E+00  0.69961880746E+03  0.69961880746E+03  0.00000000000E+00 0.  1.
          3   -1    0    0  501    0  0.00000000000E+00 -0.00000000000E+00 -0.26893323898E+02  0.26893323898E+02  0.00000000000E+00 0. -1.
         25    2    1    2    0    0  0.25831600503E+02  0.68692850200E+02  0.28590716077E+03  0.32058819107E+03  0.12509158414E+03 0.  0.
          5    1    3    3  502    0  0.28241265973E+02  0.10375542557E+03  0.23629805299E+03  0.25964783782E+03  0.41800000000E+01 0. -1.
         -5    1    3    3    0  502 -0.24096654703E+01 -0.35062575372E+02  0.49609107784E+02  0.60940353252E+02  0.41800000000E+01 0. -1.
        -11    1    1    2    0    0 -0.45101645469E+02  0.55614786776E+01  0.16847159392E+03  0.17449288360E+03  0.00000000000E+00 0.  1.
         11    1    1    2    0    0  0.19270044966E+02 -0.74254328878E+02  0.21834672887E+03  0.23143105669E+03  0.00000000000E+00 0. -1.
</event>
<event>
 7    1  0.2384639E-009  0.1478553E+03  0.7561462E-02  0.1203133E+00
         -2   -1    0    0    0  501 -0.00000000000E+00  0.00000000000E+00  0.62024818023E+02  0.62024818023E+02  0.00000000000E+00 0. -1.
          2   -1    0    0  501    0  0.00000000000E+00 -0.00000000000E+00 -0.35778088456E+03  0.35778088456E+03  0.00000000000E+00 0.  1.
         25    2    1    2    0    0  0.68546355896E+02  0.73855003612E+02 -0.14556130103E+03  0.21677112914E+03  0.12509382720E+03 0.  0.
          5    1    3    3  502    0  0.10541463499E+03  0.52979313769E+02 -0.10744482919E+03  0.15962743084E+03  0.41800000000E+01 0. -1.
         -5    1    3    3    0  502 -0.36868279091E+02  0.20875689843E+02 -0.38116471837E+02  0.57143698296E+02  0.41800000000E+01 0. -1.
        -11    1    1    2    0    0 -0.84485825473E+02 -0.81515090480E+02 -0.13966561562E+03  0.18245286753E+03  0.00000000000E+00 0. -1.
         11    1    1    2    0    0  0.15939469578E+02  0.76600868677E+01 -0.10529149883E+02  0.20581705918E+02  0.00000000000E+00 0.  1.
</event>
<event>
 7    1  0.2384639E-009  0.8993763E+02  0.7561462E-02  0.1303003E+00
         -2   -1    0    0    0  501 -0.00000000000E+00  0.00000000000E+00  0.54525224122E+02  0.54525224122E+02  0.00000000000E+00 0.  1.
          2   -1    0    0  501    0  0.00000000000E+00 -0.00000000000E+00 -0.25486797509E+03  0.25486797509E+03  0.00000000000E+00 0. -1.
         25    2    1    2    0    0  0.13777336951E+01 -0.41443385597E+02 -0.13818222682E+03  0.19095426273E+03  0.12509896197E+03 0.  0.
          5    1    3    3  502    0 -0.46203900742E+02 -0.41862449616E+02 -0.23567899427E+02  0.66784604626E+02  0.41800000000E+01 0.  1.
         -5    1    3    3    0  502  0.47581634437E+02  0.41906401886E+00 -0.11461432739E+03  0.12416965811E+03  0.41800000000E+01 0.  1.
        -11    1    1    2    0    0 -0.28612966582E+02  0.23242899375E+02  0.10841165838E+02  0.38424798043E+02  0.00000000000E+00 0.  1.
         11    1    1    2    0    0  0.27235232887E+02  0.18200486223E+02 -0.73001689987E+02  0.80014138439E+02  0.00000000000E+00 0. -1.
</event>
<event>
 7    1  0.2384639E-009  0.7147619E+02  0.7561462E-02  0.1355144E+00
          2   -1    0    0  501    0  0.00000000000E+00  0.00000000000E+00  0.95614611773E+03  0.95614611773E+03  0.00000000000E+00 0. -1.
         -2   -1    0    0    0  501 -0.00000000000E+00 -0.00000000000E+00 -0.11612846696E+02  0.11612846696E+02  0.00000000000E+00 0.  1.
         25    2    1    2    0    0 -0.31320568546E+01 -0.46836858668E+00  0.65644292620E+03  0.66826305034E+03  0.12509260546E+03 0.  0.
          5    1    3    3  502    0 -0.22231441526E+02  0.22141106668E+02  0.62139215764E+03  0.62219783958E+03  0.41800000000E+01 0.  1.
         -5    1    3    3    0  502  0.19099384672E+02 -0.22609475255E+02  0.35050768566E+02  0.46065210769E+02  0.41800000000E+01 0.  1.
        -11    1    1    2    0    0  0.36940186900E+02 -0.19879085512E+02  0.16417689455E+03  0.16945149204E+03  0.00000000000E+00 0.  1.
         11    1    1    2    0    0 -0.33808130046E+02  0.20347454098E+02  0.12391345028E+03  0.13004442205E+03  0.00000000000E+00 0. -1.
</event>
<event>
 7    1  0.2384639E-009  0.1051421E+03  0.7561462E-02  0.1269840E+00
          2   -1    0    0  501    0  0.00000000000E+00  0.00000000000E+00  0.62145078988E+02  0.62145078988E+02  0.00000000000E+00 0. -1.
         -2   -1    0    0    0  501 -0.00000000000E+00 -0.00000000000E+00 -0.20129545940E+03  0.20129545940E+03  0.00000000000E+00 0.  1.
         25    2    1    2    0    0 -0.25483907883E+02  0.13973516757E+02 -0.77038513046E+02  0.14976527570E+03  0.12510002631E+03 0.  0.
          5    1    3    3  502    0 -0.52371780128E+02 -0.41155605659E+02 -0.44412701695E+02  0.80165751433E+02  0.41800000000E+01 0. -1.
         -5    1    3    3    0  502  0.26887872245E+02  0.55129122416E+02 -0.32625811351E+02  0.69599524269E+02  0.41800000000E+01 0. -1.
        -11    1    1    2    0    0  0.50180184351E+02  0.56851717755E+01 -0.81434305322E+01  0.51153568208E+02  0.00000000000E+00 0. -1.
         11    1    1    2    0    0 -0.24696276467E+02 -0.19658688532E+02 -0.53968436838E+02  0.62521694482E+02  0.00000000000E+00 0.  1.
</event>
<event>
 7    1  0.2384639E-009  0.1050497E+03  0.7561462E-02  0.1270022E+00
          2   -1    0    0  501    0  0.00000000000E+00  0.00000000000E+00  0.27555941689E+03  0.27555941689E+03  0.00000000000E+00 0. -1.
         -2   -1    0    0    0  501 -0.00000000000E+00 -0.00000000000E+00 -0.61800354248E+02  0.61800354248E+02  0.00000000000E+00 0.  1.
         25    2    1    2    0    0 -0.46512574912E+02  0.47312966529E+02  0.18044375138E+03  0.22936354363E+03  0.12508297769E+03 0.  0.
          5    1    3    3  502    0 -0.84522778215E+02  0.33604201279E+02  0.15949940692E+03  0.18365967328E+03  0.41800000000E+01 0. -1.
         -5    1    3    3    0  502  0.38010203304E+02  0.13708765251E+02  0.20944344454E+02  0.45703870345E+02  0.41800000000E+01 0. -1.
        -11    1    1    2    0    0  0.13162094836E+02 -0.42788521879E+02 -0.16641284558E+02  0.47760137111E+02  0.00000000000E+00 0.  1.
         11    1    1    2    0    0  0.33350480076E+02 -0.45244446502E+01  0.49956595827E+02  0.60236090405E+02  0.00000000000E+00 0. -1.
</event>
<event>
 7    1  0.2384639E-009  0.1614433E+03  0.7561462E-02  0.1187077E+00
         -1   -1    0    0    0  501 -0.00000000000E+00  0.00000000000E+00  0.78334151578E+02  0.78334151578E+02  0.00000000000E+00 0.  1.
          1   -1    0    0  501    0  0.00000000000E+00 -0.00000000000E+00 -0.55750180914E+03  0.55750180914E+03  0.00000000000E+00 0. -1.
         25    2    1    2    0    0 -0.12755081977E+03 -0.34922934049E+02 -0.43258918123E+03  0.46932918324E+03  0.12509060550E+03 0.  0.
          5    1    3    3  502    0 -0.29433699850E+02  0.37088771048E+02 -0.55547985196E+02  0.73109306412E+02  0.41800000000E+01 0. -1.
         -5    1    3    3    0  502 -0.98117119923E+02 -0.72011705097E+02 -0.37704119603E+03  0.39621987683E+03  0.41800000000E+01 0. -1.
        -11    1    1    2    0    0  0.40882983346E+02 -0.25262641080E+02 -0.36817187347E+02  0.60540272924E+02  0.00000000000E+00 0. -1.
         11    1    1    2    0    0  0.86667836427E+02  0.60185575130E+02 -0.97612889945E+01  0.10596650455E+03  0.00000000000E+00 0.  1.
</event>
<event>
 7    1  0.2384639E-009  0.1115450E+03  0.7561462E-02  0.1257735E+00
         -1   -1    0    0    0  501 -0.00000000000E+00  0.00000000000E+00  0.41643763323E+02  0.41643763323E+02  0.00000000000E+00 0.  1.
          1   -1    0    0  501    0  0.00000000000E+00 -0.00000000000E+00 -0.42231750271E+03  0.42231750271E+03  0.00000000000E+00 0. -1.
         25    2    1    2    0    0  0.81786994208E+01 -0.46018271705E+02 -0.10423484211E+03  0.16939974861E+03  0.12508716986E+03 0.  0.
          5    1    3    3  502    0  0.18212738161E+02 -0.82899447379E+02 -0.38607145639E+02  0.93338128873E+02  0.41800000000E+01 0.  1.
         -5    1    3    3    0  502 -0.10034038740E+02  0.36881175675E+02 -0.65627696469E+02  0.76061619733E+02  0.41800000000E+01 0.  1.
        -11    1    1    2    0    0 -0.80618129976E+01  0.72616418189E+02 -0.22633226542E+03  0.23783278031E+03  0.00000000000E+00 0. -1.
         11    1    1    2    0    0 -0.11688642320E+00 -0.26598146484E+02 -0.50106631861E+02  0.56728737120E+02  0.00000000000E+00 0.  1.
</event>
<event>
 7    1  0.2384639E-009  0.1312097E+03  0.7561462E-02  0.1225672E+00
         -2   -1    0    0    0  501 -0.00000000000E+00  0.00000000000E+00  0.89639534478E+02  0.89639534478E+02  0.00000000000E+00 0.  1.
          2   -1    0    0  501    0  0.00000000000E+00 -0.00000000000E+00 -0.28297821984E+03  0.28297821984E+03  0.00000000000E+00 0. -1.
         25    2    1    2    0    0 -0.11131617592E+03 -0.27731769246E+02 -0.11744830131E+03  0.20640345912E+03  0.12509173599E+03 0.  0.
          5    1    3    3  502    0 -0.62776805011E+02 -0.15752536177E+02 -0.13777052675E+03  0.15227363555E+03  0.41800000000E+01 0.  1.
         -5    1    3    3    0  502 -0.48539370907E+02 -0.11979233070E+02  0.20322225442E+02  0.54129823572E+02  0.41800000000E+01 0.  1.
        -11    1    1    2    0    0  0.65923008797E+02  0.62013918987E+02 -0.39986048061E+02  0.98946719382E+02  0.00000000000E+00 0. -1.
         11    1    1    2    0    0  0.45393167121E+02 -0.34282149740E+02 -0.35904335989E+02  0.67267575807E+02  0.00000000000E+00 0.  1.
</event>
<event>
 7    1  0.2384639E-009  0.9704182E+02  0.7561462E-02  0.1286643E+00
          1   -1    0    0  501    0  0.00000000000E+00  0.00000000000E+00  0.25359975498E+02  0.25359975498E+02  0.00000000000E+00 0. -1.
         -1   -1    0    0    0  501 -0.00000000000E+00 -0.00000000000E+00 -0.50665270453E+03  0.50665270453E+03  0.00000000000E+00 0.  1.
         25    2    1    2    0    0  0.28142994666E+02  0.10411478823E+02 -0.27216589204E+03  0.30103706373E+03  0.12509441998E+03 0.  0.
          5    1    3    3  502    0 -0.18244184078E+02  0.55470240210E+02 -0.17242682636E+03  0.18209415326E+03  0.41800000000E+01 0. -1.
         -5    1    3    3    0  502  0.46387178743E+02 -0.45058761388E+02 -0.99739065676E+02  0.11894291047E+03  0.41800000000E+01 0. -1.
        -11    1    1    2    0    0 -0.39540948658E+02  0.15467918585E+02 -0.19461204531E+03  0.19918983736E+03  0.00000000000E+00 0.  1.
         11    1    1    2    0    0  0.11397953992E+02 -0.25879397408E+02 -0.14514791686E+02  0.31785778944E+02  0.00000000000E+00 0. -1.
</event>
<event>
 7    1  0.2384639E-009  0.1348164E+03  0.7561462E-02  0.1220479E+00
          1   -1    0    0  501    0  0.00000000000E+00  0.00000000000E+00  0.47254024920E+02  0.47254024920E+02  0.00000000000E+00 0. -1.
         -1   -1    0    0    0  501 -0.00000000000E+00 -0.00000000000E+00 -0.50186067033E+03  0.50186067033E+03  0.00000000000E+00 0.  1.
         25    2    1    2    0    0  0.10168170146E+03 -0.31896183974E+02 -0.28616825191E+03  0.32999666861E+03  0.12509595487E+03 0.  0.
          5    1    3    3  502    0  0.71313133131E+02 -0.77366503815E+02 -0.22114476940E+03  0.24493595143E+03  0.41800000000E+01 0. -1.
         -5    1    3    3    0  502  0.30368568333E+02  0.45470319841E+02 -0.65023482510E+02  0.85060717177E+02  0.41800000000E+01 0. -1.
        -11    1    1    2    0    0 -0.36237722637E+02  0.24248861675E+02 -0.62391550685E+01  0.44046644485E+02  0.00000000000E+00 0. -1.
         11    1    1    2    0    0 -0.65443978827E+02  0.76473222993E+01 -0.16219923843E+03  0.17507138216E+03  0.00000000000E+00 0.  1.
</event>
<event>
 7    1  0.2384639E-009  0.1023050E+03  0.7561462E-02  0.1275522E+00
         -1   -1    0    0    0  501 -0.00000000000E+00  0.00000000000E+00  0.28035014304E+02  0.28035014304E+02  0.00000000000E+00 0.  1.
          1   -1    0    0  501    0  0.00000000000E+00 -0.00000000000E+00 -0.57564841842E+03  0.57564841842E+03  0.00000000000E+00 0. -1.
         25    2    1    2    0    0 -0.35030386775E+01  0.58323210361E+02 -0.23118230704E+03  0.26927003244E+03  0.12508886096E+03 0.  0.
          5    1    3    3  502    0 -0.39800001124E+02  0.34230623207E+02 -0.24638536490E+02  0.58140395037E+02  0.41800000000E+01 0.  1.
         -5    1    3    3    0  502  0.36296962446E+02  0.24092587154E+02 -0.20654377055E+03  0.21112963740E+03  0.41800000000E+01 0.  1.
        -11    1    1    2    0    0  0.29520527415E+02  0.13004915146E+02 -0.94747676777E+02  0.10008851888E+03  0.00000000000E+00 0.  1.
         11    1    1    2    0    0 -0.26017488737E+02 -0.71328125508E+02 -0.22168342030E+03  0.23432488140E+03  0.00000000000E+00 0. -1.
</event>
<event>
 7    1  0.2384639E-009  0.1283488E+03  0.7561462E-02  0.1229927E+00
          1   -1    0    0  501    0  0.00000000000E+00  0.00000000000E+00  0.43138419635E+03  0.43138419635E+03  0.00000000000E+00 0. -1.
         -1   -1    0    0    0  501 -0.00000000000E+00 -0.00000000000E+00 -0.39579263656E+02  0.39579263656E+02  0.00000000000E+00 0.  1.
         25    2    1    2    0    0  0.41774238823E+02  0.58323360361E+02  0.24529361400E+03  0.28454148645E+03  0.12509276180E+03 0.  0.
          5    1    3    3  502    0  0.48623118646E+02 -0.26976333744E+02  0.70563671753E+02  0.89936835726E+02  0.41800000000E+01 0. -1.
         -5    1    3    3    0  502 -0.68488798230E+01  0.85299694105E+02  0.17472994224E+03  0.19460465073E+03  0.41800000000E+01 0. -1.
        -11    1    1    2    0    0 -0.31063515177E+02 -0.82857593349E+02  0.11362840202E+03  0.14401991701E+03  0.00000000000E+00 0. -1.
         11    1    1    2    0    0 -0.10710723646E+02  0.24534232988E+02  0.32882916675E+02  0.42402056535E+02  0.00000000000E+00 0.  1.
</event>
<event>
 7    1  0.2384639E-009  0.8802599E+02  0.7561462E-02  0.1307704E+00
         -1   -1    0    0    0  501 -0.00000000000E+00  0.00000000000E+00  0.12226343636E+02  0.12226343636E+02  0.00000000000E+00 0.  1.
          1   -1    0    0  501    0  0.00000000000E+00 -0.00000000000E+00 -0.98574967148E+03  0.98574967148E+03  0.00000000000E+00 0. -1.
         25    2    1    2    0    0 -0.11836980234E+02 -0.10627591232E+02 -0.61310104925E+03  0.62593409384E+03  0.12509010127E+03 0.  0.
          5    1    3    3  502    0  0.36490474665E+02 -0.97957082253E+01 -0.51589683185E+03  0.51729539352E+03  0.41800000000E+01 0.  1.
         -5    1    3    3    0  502 -0.48327454899E+02 -0.83188300646E+00 -0.97204217405E+02  0.10863870032E+03  0.41800000000E+01 0.  1.
        -11    1    1    2    0    0 -0.34211365149E+02  0.23744464950E+02 -0.21321329341E+03  0.21724208986E+03  0.00000000000E+00 0. -1.
         11    1    1    2    0    0  0.46048345383E+02 -0.13116873718E+02 -0.14720898519E+03  0.15479983142E+03  0.00000000000E+00 0.  1.
</event>
<event>
 7    1  0.2384639E-009  0.1302790E+03  0.7561462E-02  0.1227042E+00
         -1   -1    0    0    0  501 -0.00000000000E+00  0.00000000000E+00  0.41834338446E+03  0.41834338446E+03  0.00000000000E+00 0.  1.
          1   -1    0    0  501    0  0.00000000000E+00 -0.00000000000E+00 -0.10100959895E+03  0.10100959895E+03  0.00000000000E+00 0. -1.
         25    2    1    2    0    0 -0.23681106784E+02 -0.77073372509E+02  0.35983382930E+03  0.38939757525E+03  0.12509591253E+03 0.  0.
          5    1    3    3  502    0 -0.73712031008E+02 -0.59502539369E+02  0.21044138898E+03  0.23081825384E+03  0.41800000000E+01 0.  1.
         -5    1    3    3    0  502  0.50030924224E+02 -0.17570833140E+02  0.14939244031E+03  0.15857932141E+03  0.41800000000E+01 0.  1.
        -11    1    1    2    0    0  0.22302885824E+02 -0.10715699382E+02 -0.33568520518E+02  0.41702403997E+02  0.00000000000E+00 0.  1.
         11    1    1    2    0    0  0.13782209591E+01  0.87789071892E+02 -0.89315232732E+01  0.88253004167E+02  0.00000000000E+00 0. -1.
</event>
<event>
 7    1  0.3188804E-009  0.1275693E+03  0.7561462E-02  0.1231108E+00
          2   -1    0    0  501    0  0.00000000000E+00  0.00000000000E+00  0.85095769520E+02  0.85095769520E+02  0.00000000000E+00 0. -1.
         -2   -1    0    0    0  501 -0.00000000000E+00 -0.00000000000E+00 -0.26433437343E+03  0.26433437343E+03  0.00000000000E+00 0.  1.
         25    2    1    2    0    0  0.50982294061E+02 -0.80868549699E+02 -0.14146565720E+03  0.21165800926E+03  0.12509062347E+03 0.  0.
          5    1    3    3  502    0  0.43554896017E+02 -0.11439344378E+03 -0.11614308097E+03  0.16878855590E+03  0.41800000000E+01 0. -1.
         -5    1    3    3    0  502  0.74273980441E+01  0.33524894079E+02 -0.25322576222E+02  0.42869453358E+02  0.41800000000E+01 0. -1.
        -11    1    1    2    0    0 -0.31225365931E+02  0.29187829382E+02 -0.63667143047E+02  0.76684144159E+02  0.00000000000E+00 0.  1.
         11    1    1    2    0    0 -0.19756928129E+02  0.51680720317E+02  0.25894196329E+02  0.61087989532E+02  0.00000000000E+00 0. -1.
</event>
<event>
 7    1  0.2384639E-009  0.1244705E+03  0.7561462E-02  0.1235899E+00
          1   -1    0    0  501    0  0.00000000000E+00  0.00000000000E+00  0.63479359513E+02  0.63479359513E+02  0.00000000000E+00 0. -1.
         -1   -1    0    0    0  501 -0.00000000000E+00 -0.00000000000E+00 -0.41270455499E+03  0.41270455499E+03  0.00000000000E+00 0.  1.
         25    2    1    2    0    0 -0.41338757117E+02 -0.67862285212E+02 -0.58708863567E+02  0.15940238662E+03  0.12509279598E+03 0.  0.
          5    1    3    3  502    0 -0.48685014530E+02  0.61315638301E+01 -0.68416028453E+02  0.84297402475E+02  0.41800000000E+01 0.  1.
         -5    1    3    3    0  502  0.73462574131E+01 -0.73993849042E+02  0.97071648867E+01  0.75104984150E+02  0.41800000000E+01 0.  1.
        -11    1    1    2    0    0  0.65624928088E+02  0.15399955513E+02 -0.13561247196E+03  0.15144151468E+03  0.00000000000E+00 0.  1.
         11    1    1    2    0    0 -0.24286170972E+02  0.52462329699E+02 -0.15490385995E+03  0.16534001320E+03  0.00000000000E+00 0. -1.
</event>
<event>
 7    1  0.2384639E-009  0.5493790E+02  0.7561462E-02  0.1420393E+00
         -4   -1    0    0    0  501 -0.00000000000E+00  0.00000000000E+00  0.46758203692E+02  0.46758203692E+02  0.00000000000E+00 0.  1.
          4   -1    0    0  501    0  0.00000000000E+00 -0.00000000000E+00 -0.25859079714E+03  0.25859079714E+03  0.00000000000E+00 0. -1.
         25    2    1    2    0    0 -0.44747684544E+01 -0.10994640202E+02 -0.10211862981E+03  0.16191244901E+03  0.12508605407E+03 0.  0.
          5    1    3    3  502    0  0.27124495132E+01 -0.20213992510E+02  0.25935538181E+02  0.33257892541E+02  0.41800000000E+01 0. -1.
         -5    1    3    3    0  502 -0.71872179676E+01  0.92193523077E+01 -0.12805416799E+03  0.12865455646E+03  0.41800000000E+01 0. -1.
        -11    1    1    2    0    0  0.15580682052E+02  0.41419746106E+02 -0.20976769917E+02  0.48973236536E+02  0.00000000000E+00 0.  1.
         11    1    1    2    0    0 -0.11105913598E+02 -0.30425105904E+02 -0.88737193716E+02  0.94463315286E+02  0.00000000000E+00 0. -1.
</event>
<event>
 7    1  0.2384639E-009  0.1859564E+03  0.7561462E-02  0.1162160E+00
          2   -1    0    0  501    0  0.00000000000E+00  0.00000000000E+00  0.52197239855E+03  0.52197239855E+03  0.00000000000E+00 0. -1.
         -2   -1    0    0    0  501 -0.00000000000E+00 -0.00000000000E+00 -0.15054494034E+03  0.15054494034E+03  0.00000000000E+00 0.  1.
         25    2    1    2    0    0  0.12478999450E+03 -0.11181947510E+03 -0.45314570166E+02  0.21395645052E+03  0.12509122556E+03 0.  0.
          5    1    3    3  502    0  0.45926711772E+02  0.11664498650E+02 -0.47691000576E+02  0.67358943868E+02  0.41800000000E+01 0.  1.
         -5    1    3    3    0  502  0.78863282727E+02 -0.12348397375E+03  0.23764304105E+01  0.14659750665E+03  0.41800000000E+01 0.  1.
        -11    1    1    2    0    0 -0.69612952110E+02  0.99158956998E+02  0.35348576687E+03  0.37367184699E+03  0.00000000000E+00 0.  1.
         11    1    1    2    0    0 -0.55177042389E+02  0.12660518102E+02  0.63256261507E+02  0.84889041373E+02  0.00000000000E+00 0. -1.
</event>
<event>
 7    1  0.2384639E-009  0.3815237E+03  0.7561462E-02  0.1050372E+00
          2   -1    0    0  501    0  0.00000000000E+00  0.00000000000E+00  0.64150170196E+03  0.64150170196E+03  0.00000000000E+00 0. -1.
         -2   -1    0    0    0  501 -0.00000000000E+00 -0.00000000000E+00 -0.23600332071E+03  0.23600332071E+03  0.00000000000E+00 0.  1.
         25    2    1    2    0    0 -0.36444498884E+03 -0.75853027798E+02  0.24100921961E+03  0.46076585463E+03  0.12508356064E+03 0.  0.
          5    1    3    3  502    0 -0.31771248383E+03 -0.96634446883E+02  0.23944360188E+03  0.40942661075E+03  0.41800000000E+01 0. -1.
         -5    1    3    3    0  502 -0.46732505008E+02  0.20781419085E+02  0.15656177222E+01  0.51339243882E+02  0.41800000000E+01 0. -1.
        -11    1    1    2    0    0  0.64718141894E+01  0.15235404997E+02 -0.31275368330E+01  0.16845872817E+02  0.00000000000E+00 0.  1.
         11    1    1    2    0    0  0.35797317465E+03  0.60617622801E+02  0.16761669848E+03  0.39989329523E+03  0.00000000000E+00 0. -1.
</event>
<event>
 7    1  0.2384639E-009  0.1038882E+03  0.7561462E-02  0.1272326E+00
          1   -1    0    0  501    0  0.00000000000E+00  0.00000000000E+00  0.28380646280E+03  0.28380646280E+03  0.00000000000E+00 0. -1.
         -1   -1    0    0    0  501 -0.00000000000E+00 -0.00000000000E+00 -0.50238996876E+02  0.50238996876E+02  0.00000000000E+00 0.  1.
         25    2    1    2    0    0 -0.45851975556E+02  0.19123824411E+02  0.11175388563E+03  0.17494158891E+03  0.12508998463E+03 0.  0.
          5    1    3    3  502    0 -0.77396391428E+02  0.86045745735E+01  0.24928592392E+02  0.81872750218E+02  0.41800000000E+01 0. -1.
         -5    1    3    3    0  502  0.31544415872E+02  0.10519249838E+02  0.86825293233E+02  0.93068838689E+02  0.41800000000E+01 0. -1.
        -11    1    1    2    0    0  0.14570381413E+02 -0.50146944925E+02  0.38568858418E+02  0.64919711487E+02  0.00000000000E+00 0.  1.
         11    1    1    2    0    0  0.31281594144E+02  0.31023120514E+02  0.83244721879E+02  0.94184159280E+02  0.00000000000E+00 0. -1.
</event>
<event>
 7    1  0.2384639E-009  0.1628382E+03  0.7561462E-02  0.1185529E+00
          2   -1    0    0  501    0  0.00000000000E+00  0.00000000000E+00  0.74980501708E+03  0.74980501708E+03  0.00000000000E+00 0. -1.
         -2   -1    0    0    0  501 -0.00000000000E+00 -0.00000000000E+00 -0.46267205775E+02  0.46267205775E+02  0.00000000000E+00 0.  1.
         25    2    1    2    0    0  0.13291165294E+03  0.57292891868E+02  0.27995864932E+03  0.33908171001E+03  0.12510626599E+03 0.  0.
          5    1    3    3  502    0 -0.56173433720E+01  0.26026000563E+02  0.21325178707E+01  0.27035666892E+02  0.41800000000E+01 0.  1.
         -5    1    3    3    0  502  0.13852899631E+03  0.31266891305E+02  0.27782613145E+03  0.31204604312E+03  0.41800000000E+01 0.  1.
        -11    1    1    2    0    0 -0.78642730468E+02 -0.12717111596E+01  0.11945341216E+03  0.14302242475E+03  0.00000000000E+00 0.  1.
         11    1    1    2    0    0 -0.54268922470E+02 -0.56021180708E+02  0.30412574983E+03  0.31396808810E+03  0.00000000000E+00 0. -1.
</event>
<event>
 7    1  0.2384639E-009  0.1938337E+03  0.7561462E-02  0.1155048E+00
          1   -1    0    0  501    0  0.00000000000E+00  0.00000000000E+00  0.63321990524E+02  0.63321990524E+02  0.00000000000E+00 0. -1.
         -1   -1    0    0    0  501 -0.00000000000E+00 -0.00000000000E+00 -0.86073542686E+03  0.86073542686E+03  0.00000000000E+00 0.  1.
         25    2    1    2    0    0 -0.96064528542E+02  0.14313972208E+03 -0.18694724108E+03  0.28339163026E+03  0.12507666239E+03 0.  0.
          5    1    3    3  502    0 -0.36140560448E+02  0.14742554388E+03 -0.14533847933E+03  0.21019318987E+03  0.41800000000E+01 0. -1.
         -5    1    3    3    0  502 -0.59923968094E+02 -0.42858217987E+01 -0.41608761756E+02  0.73198440390E+02  0.41800000000E+01 0. -1.
        -11    1    1    2    0    0  0.49110866631E+02 -0.10184535989E+03 -0.24426979774E+03  0.26916925649E+03  0.00000000000E+00 0.  1.
         11    1    1    2    0    0  0.46953661911E+02 -0.41294362185E+02 -0.36619639752E+03  0.37149653063E+03  0.00000000000E+00 0. -1.
</event>
<event>
 7    1  0.2384639E-009  0.7803580E+02  0.7561462E-02  0.1334720E+00
         -3   -1    0    0    0  501 -0.00000000000E+00  0.00000000000E+00  0.56117279894E+02  0.56117279894E+02  0.00000000000E+00 0.  1.
          3   -1    0    0  501    0  0.00000000000E+00 -0.00000000000E+00 -0.28228948829E+03  0.28228948829E+03  0.00000000000E+00 0. -1.
         25    2    1    2    0    0 -0.31208505772E+01 -0.58157147411E+01 -0.20949385302E+03  0.24408768193E+03  0.12509020652E+03 0.  0.
          5    1    3    3  502    0  0.16958110578E+02 -0.50807409003E+02 -0.38520653230E+02  0.66108119390E+02  0.41800000000E+01 0. -1.
         -5    1    3    3    0  502 -0.20078961155E+02  0.44991694262E+02 -0.17097319979E+03  0.17797956254E+03  0.41800000000E+01 0. -1.
        -11    1    1    2    0    0 -0.14407499662E+02  0.23778182828E+02  0.30259416679E+02  0.41092704010E+02  0.00000000000E+00 0.  1.
         11    1    1    2    0    0  0.17528350240E+02 -0.17962468087E+02 -0.46937772047E+02  0.53226382243E+02  0.00000000000E+00 0. -1.
</event>
<event>
 7    1  0.2437888E-009  0.1647399E+03  0.7561462E-02  0.1183447E+00
          1   -1    0    0  501    0  0.00000000000E+00  0.00000000000E+00  0.18491954387E+03  0.18491954387E+03  0.00000000000E+00 0. -1.
         -1   -1    0    0    0  501 -0.00000000000E+00 -0.00000000000E+00 -0.16031840225E+03  0.16031840225E+03  0.00000000000E+00 0.  1.
         25    2    1    2    0    0 -0.10541902087E+03  0.69472289703E+02  0.55491893678E+02  0.18619269167E+03  0.12509516046E+03 0.  0.
          5    1    3    3  502    0 -0.32829388573E+02 -0.34637256394E+02  0.30439783567E+02  0.56758797628E+02  0.41800000000E+01 0.  1.
         -5    1    3    3    0  502 -0.72589632300E+02  0.10410954610E+03  0.25052110111E+02  0.12943389404E+03  0.41800000000E+01 0.  1.
        -11    1    1    2    0    0  0.81918039662E+02 -0.71105333278E+00 -0.27072711666E+02  0.86278633136E+02  0.00000000000E+00 0.  1.
         11    1    1    2    0    0  0.23500981211E+02 -0.68761236370E+02 -0.38180403984E+01  0.72766621315E+02  0.00000000000E+00 0. -1.
</event>
<event>
 7    1  0.2384639E-009  0.9895655E+02  0.7561462E-02  0.1282506E+00
         -1   -1    0    0    0  501 -0.00000000000E+00  0.00000000000E+00  0.45039244502E+02  0.45039244502E+02  0.00000000000E+00 0.  1.
          1   -1    0    0  501    0  0.00000000000E+00 -0.00000000000E+00 -0.29467476258E+03  0.29467476258E+03  0.00000000000E+00 0. -1.
         25    2    1    2    0    0 -0.27776421343E+02 -0.72245126511E+01 -0.10576887416E+03  0.16630754576E+03  0.12508965532E+03 0.  0.
          5    1    3    3  502    0 -0.65435545726E+02 -0.33744506263E+01 -0.10987968344E+03  0.12800083904E+03  0.41800000000E+01 0.  1.
         -5    1    3    3    0  502  0.37659124383E+02 -0.38500620248E+01  0.41108092775E+01  0.38306706721E+02  0.41800000000E+01 0.  1.
        -11    1    1    2    0    0  0.87579701153E+01  0.48204596385E+02 -0.94778534792E+02  0.10669281049E+03  0.00000000000E+00 0. -1.
         11    1    1    2    0    0  0.19018451227E+02 -0.40980083733E+02 -0.49088109117E+02  0.66713650826E+02  0.00000000000E+00 0.  1.
</event>
<event>
 7    1  0.2384639E-009  0.1114937E+03  0.7561462E-02  0.1257829E+00
         -2   -1    0    0    0  501 -0.00000000000E+00  0.00000000000E+00  0.82536655649E+02  0.82536655649E+02  0.00000000000E+00 0.  1.
          2   -1    0    0  501    0  0.00000000000E+00 -0.00000000000E+00 -0.23813182061E+03  0.23813182061E+03  0.00000000000E+00 0. -1.
         25    2    1    2    0    0 -0.37788928280E+02  0.38862503854E+02 -0.16207268724E+03  0.21178213796E+03  0.12508325508E+03 0.  0.
          5    1    3    3  502    0 -0.57520389766E+02  0.61388326505E+02 -0.55178346900E+02  0.10069381429E+03  0.41800000000E+01 0.  1.
         -5    1    3    3    0  502  0.19731461486E+02 -0.22525822650E+02 -0.10689434034E+03  0.11108832366E+03  0.41800000000E+01 0.  1.
        -11    1    1    2    0    0  0.59348759554E+02  0.50897247336E+01  0.65975071367E+01  0.59930857318E+02  0.00000000000E+00 0.  1.
         11    1    1    2    0    0 -0.21559831274E+02 -0.43952228588E+02 -0.11998486295E+00  0.48955480988E+02  0.00000000000E+00 0. -1.
</event>
<event>
 7    1  0.2384639E-009  0.6265646E+02  0.7561462E-02  0.1387010E+00
          2   -1    0    0  501    0  0.00000000000E+00  0.00000000000E+00  0.30184897276E+03  0.30184897276E+03  0.00000000000E+00 0.  1.
         -2   -1    0    0    0  501 -0.00000000000E+00 -0.00000000000E+00 -0.42635170957E+02  0.42635170957E+02  0.00000000000E+00 0. -1.
         25    2    1    2    0    0 -0.12801735799E+02 -0.18888613277E+02  0.11260199377E+03  0.16984507733E+03  0.12508987626E+03 0.  0.
          5    1    3    3  502    0  0.89470044984E+01 -0.38907014958E+02  0.12947420595E+03  0.13555385317E+03  0.41800000000E+01 0.  1.
         -5    1    3    3    0  502 -0.21748740297E+02  0.20018401681E+02 -0.16872212186E+02  0.34291224160E+02  0.41800000000E+01 0.  1.
        -11    1    1    2    0    0  0.32376403058E+02  0.10674758740E+02  0.14938953155E+03  0.15322993860E+03  0.00000000000E+00 0.  1.
         11    1    1    2    0    0 -0.19574667259E+02  0.82138545372E+01 -0.27777235045E+01  0.21409127786E+02  0.00000000000E+00 0. -1.
</event>
<event>
 7    1  0.2384639E-009  0.1283555E+03  0.7561462E-02  0.1229917E+00
          1   -1    0    0  501    0  0.00000000000E+00  0.00000000000E+00  0.33024815874E+03  0.33024815874E+03  0.00000000000E+00 0.  1.
         -1   -1    0    0    0  501 -0.00000000000E+00 -0.00000000000E+00 -0.70261474032E+02  0.70261474032E+02  0.00000000000E+00 0. -1.
         25    2    1    2    0    0 -0.10465232967E+02  0.82707508733E+02  0.22823355835E+03  0.27329813893E+03  0.12510500581E+03 0.  0.
          5    1    3    3  502    0  0.30034081743E+02 -0.12691159513E+02  0.14912025695E+02  0.36096433429E+02  0.41800000000E+01 0. -1.
         -5    1    3    3    0  502 -0.40499314710E+02  0.95398668246E+02  0.21332153266E+03  0.23720170550E+03  0.41800000000E+01 0. -1.
        -11    1    1    2    0    0  0.42437300045E+02 -0.14603431542E+02  0.25737481024E+02  0.51735892544E+02  0.00000000000E+00 0.  1.
         11    1    1    2    0    0 -0.31972067078E+02 -0.68104077192E+02  0.60156453339E+01  0.75475601304E+02  0.00000000000E+00 0. -1.
</event>
<event>
 7    1  0.2384639E-009  0.1351016E+03  0.7561462E-02  0.1220076E+00
         -1   -1    0    0    0  501 -0.00000000000E+00  0.00000000000E+00  0.22462945852E+03  0.22462945852E+03  0.00000000000E+00 0.  1.
          1   -1    0    0  501    0  0.00000000000E+00 -0.00000000000E+00 -0.12742405290E+03  0.12742405290E+03  0.00000000000E+00 0. -1.
         25    2    1    2    0    0  0.60626880300E+02 -0.11449237737E+03  0.59865382971E+02  0.18977669225E+03  0.12508879147E+03 0.  0.
          5    1    3    3  502    0  0.48754201257E+02 -0.94116751453E+02 -0.18637071924E+02  0.10770212576E+03  0.41800000000E+01 0.  1.
         -5    1    3    3    0  502  0.11872679043E+02 -0.20375625917E+02  0.78502454895E+02  0.82074566485E+02  0.41800000000E+01 0.  1.
        -11    1    1    2    0    0 -0.48157429675E+02  0.34555854501E+02 -0.20617317275E+02  0.62756026681E+02  0.00000000000E+00 0. -1.
         11    1    1    2    0    0 -0.12469450624E+02  0.79936522869E+02  0.57957339916E+02  0.99520792488E+02  0.00000000000E+00 0.  1.
</event>
<event>
 7    1  0.2384639E-009  0.1646009E+03  0.7561462E-02  0.1183598E+00
         -1   -1    0    0    0  501 -0.00000000000E+00  0.00000000000E+00  0.36049324045E+03  0.36049324045E+03  0.00000000000E+00 0.  1.
          1   -1    0    0  501    0  0.00000000000E+00 -0.00000000000E+00 -0.11577939945E+03  0.11577939945E+03  0.00000000000E+00 0. -1.
         25    2    1    2    0    0 -0.59500426585E+02  0.15272145989E+03  0.64103088639E+02  0.21591437169E+03  0.12508263210E+03 0.  0.
          5    1    3    3  502    0 -0.19243451758E+02  0.39012704325E+02 -0.37931946190E+02  0.57867145049E+02  0.41800000000E+01 0. -1.
         -5    1    3    3    0  502 -0.40256974827E+02  0.11370875557E+03  0.10203503483E+03  0.15804722664E+03  0.41800000000E+01 0. -1.
        -11    1    1    2    0    0  0.85825696503E+01 -0.95112684927E+01 -0.10224709356E+02  0.16391138202E+02  0.00000000000E+00 0. -1.
         11    1    1    2    0    0  0.50917856935E+02 -0.14321019140E+03  0.19083546172E+03  0.24396713001E+03  0.00000000000E+00 0.  1.
</event>
<event>
 7    1  0.2384639E-009  0.8947161E+02  0.7561462E-02  0.1304136E+00
          3   -1    0    0  501    0  0.00000000000E+00  0.00000000000E+00  0.98342082556E+01  0.98342082556E+01  0.00000000000E+00 0. -1.
         -3   -1    0    0    0  501 -0.00000000000E+00 -0.00000000000E+00 -0.16183941385E+04  0.16183941385E+04  0.00000000000E+00 0.  1.
         25    2    1    2    0    0  0.27383387610E+02  0.37675921259E+01 -0.12672865124E+04  0.12737441842E+04  0.12508036438E+03 0.  0.
          5    1    3    3  502    0  0.53604926771E+02 -0.14476810811E+02 -0.25785368628E+03  0.26379738845E+03  0.41800000000E+01 0. -1.
         -5    1    3    3    0  502 -0.26221539160E+02  0.18244402937E+02 -0.10094328262E+04  0.10099467958E+04  0.41800000000E+01 0. -1.
        -11    1    1    2    0    0 -0.34888894228E+02 -0.40556093054E+02 -0.25236048649E+03  0.25796869338E+03  0.00000000000E+00 0. -1.
         11    1    1    2    0    0  0.75055066176E+01  0.36788500929E+02 -0.88912931269E+02  0.96515469107E+02  0.00000000000E+00 0.  1.
</event>
<event>
 7    1  0.2384639E-009  0.1049426E+03  0.7561462E-02  0.1270233E+00
          1   -1    0    0  501    0  0.00000000000E+00  0.00000000000E+00  0.10290349048E+03  0.10290349048E+03  0.00000000000E+00 0. -1.
         -1   -1    0    0    0  501 -0.00000000000E+00 -0.00000000000E+00 -0.12765476667E+03  0.12765476667E+03  0.00000000000E+00 0.  1.
         25    2    1    2    0    0 -0.29999060597E+02 -0.11816109832E+02  0.45038290035E+01  0.12926486649E+03  0.12509819002E+03 0.  0.
          5    1    3    3  502    0 -0.28950644635E+02  0.51836996293E+02  0.21426810710E+02  0.63259739382E+02  0.41800000000E+01 0. -1.
         -5    1    3    3    0  502 -0.10484159622E+01 -0.63653106125E+02 -0.16922981706E+02  0.66005127113E+02  0.41800000000E+01 0. -1.
        -11    1    1    2    0    0  0.53633044255E+02  0.25359767357E+02 -0.40491305212E+02  0.71827341829E+02  0.00000000000E+00 0.  1.
         11    1    1    2    0    0 -0.23633983658E+02 -0.13543657525E+02  0.11236200021E+02  0.29466048829E+02  0.00000000000E+00 0. -1.
</event>
<event>
 7    1  0.2384639E-009  0.1101081E+03  0.7561462E-02  0.1260370E+00
          2   -1    0    0  501    0  0.00000000000E+00  0.00000000000E+00  0.55067722789E+02  0.55067722789E+02  0.00000000000E+00 0. -1.
         -2   -1    0    0    0  501 -0.00000000000E+00 -0.00000000000E+00 -0.28743169333E+03  0.28743169333E+03  0.00000000000E+00 0.  1.
         25    2    1    2    0    0  0.73557111296E+01 -0.56911598651E+02 -0.96727260225E+02  0.16821521109E+03  0.12508859990E+03 0.  0.
          5    1    3    3  502    0  0.64163920455E+02 -0.46058383204E+02 -0.63126914606E+02  0.10119714966E+03  0.41800000000E+01 0.  1.
         -5    1    3    3    0  502 -0.56808209325E+02 -0.10853215447E+02 -0.33600345619E+02  0.67018061432E+02  0.41800000000E+01 0.  1.
        -11    1    1    2    0    0 -0.32648409139E+02  0.19665570949E+02 -0.80060557834E+01  0.38945477648E+02  0.00000000000E+00 0. -1.
         11    1    1    2    0    0  0.25292698010E+02  0.37246027702E+02 -0.12763065454E+03  0.13533872738E+03  0.00000000000E+00 0.  1.
</event>
<event>
 7    1  0.2384639E-009  0.8068014E+02  0.7561462E-02  0.1327132E+00
          4   -1    0    0  501    0  0.00000000000E+00  0.00000000000E+00  0.36591902957E+02  0.36591902957E+02  0.00000000000E+00 0. -1.
         -4   -1    0    0    0  501 -0.00000000000E+00 -0.00000000000E+00 -0.39176492623E+03  0.39176492623E+03  0.00000000000E+00 0.  1.
         25    2    1    2    0    0 -0.18112219404E+01 -0.71253129068E+01 -0.28175120450E+03  0.30835879455E+03  0.12508938535E+03 0.  0.
          5    1    3    3  502    0  0.20806747945E+01  0.42514604344E+02 -0.23840219404E+03  0.24220837994E+03  0.41800000000E+01 0. -1.
         -5    1    3    3    0  502 -0.38918967349E+01 -0.49639917251E+02 -0.43349010469E+02  0.66150414614E+02  0.41800000000E+01 0. -1.
        -11    1    1    2    0    0 -0.32973793265E+02 -0.64594260810E+00 -0.77400651491E+02  0.84134113981E+02  0.00000000000E+00 0.  1.
         11    1    1    2    0    0  0.34785015205E+02  0.77712555149E+01  0.39788327224E+01  0.35863920657E+02  0.00000000000E+00 0. -1.
</event>
<event>
 7    1  0.2384639E-009  0.2340103E+03  0.7561462E-02  0.1123849E+00
          1   -1    0    0  501    0  0.00000000000E+00  0.00000000000E+00  0.64251325084E+03  0.64251325084E+03  0.00000000000E+00 0. -1.
         -1   -1    0    0    0  501 -0.00000000000E+00 -0.00000000000E+00 -0.93091995483E+02  0.93091995483E+02  0.00000000000E+00 0.  1.
         25    2    1    2    0    0 -0.15380001921E+03  0.15144593279E+03  0.23397033682E+03  0.34202074013E+03  0.12508297927E+03 0.  0.
          5    1    3    3  502    0 -0.17255399489E+03  0.13594605737E+03  0.22797414672E+03  0.31661632244E+03  0.41800000000E+01 0. -1.
         -5    1    3    3    0  502  0.18753975688E+02  0.15499875420E+02  0.59961901013E+01  0.25404417684E+02  0.41800000000E+01 0. -1.
        -11    1    1    2    0    0  0.15868565257E+03 -0.14180893951E+03  0.31784935233E+03  0.38251682634E+03  0.00000000000E+00 0. -1.
         11    1    1    2    0    0 -0.48856333629E+01 -0.96369932798E+01 -0.23984337854E+01  0.11067679859E+02  0.00000000000E+00 0.  1.
</event>
<event>
 7    1  0.2384639E-009  0.9575509E+02  0.7561462E-02  0.1289484E+00
         -1   -1    0    0    0  501 -0.00000000000E+00  0.00000000000E+00  0.10992997018E+03  0.10992997018E+03  0.00000000000E+00 0.  1.
          1   -1    0    0  501    0  0.00000000000E+00 -0.00000000000E+00 -0.14866449235E+03  0.14866449235E+03  0.00000000000E+00 0. -1.
         25    2    1    2    0    0  0.22749573775E+02  0.63207672437E+02 -0.21618972935E+02  0.14361917674E+03  0.12508531079E+03 0.  0.
          5    1    3    3  502    0  0.42807737126E+02  0.34250267975E+02 -0.66580991803E+02  0.86348619466E+02  0.41800000000E+01 0. -1.
         -5    1    3    3    0  502 -0.20058163351E+02  0.28957404462E+02  0.44962018867E+02  0.57270557277E+02  0.41800000000E+01 0. -1.
        -11    1    1    2    0    0  0.28045696343E+02 -0.23093054710E+02 -0.32166172707E+02  0.48523323524E+02  0.00000000000E+00 0. -1.
         11    1    1    2    0    0 -0.50795270118E+02 -0.40114617726E+02  0.15050623479E+02  0.66451962264E+02  0.00000000000E+00 0.  1.
</event>
<event>
 7    1  0.2384639E-009  0.8814842E+02  0.7561462E-02  0.1307399E+00
         -2   -1    0    0    0  501 -0.00000000000E+00  0.00000000000E+00  0.72154039987E+02  0.72154039987E+02  0.00000000000E+00 0.  1.
          2   -1    0    0  501    0  0.00000000000E+00 -0.00000000000E+00 -0.19588545831E+03  0.19588545831E+03  0.00000000000E+00 0. -1.
         25    2    1    2    0    0 -0.25790790347E+01  0.43670363803E+02 -0.41508224883E+02  0.13886722818E+03  0.12508965587E+03 0.  0.
          5    1    3    3  502    0  0.49933939333E+02 -0.15703533658E+02 -0.99335205708E+01  0.53442927479E+02  0.41800000000E+01 0. -1.
         -5    1    3    3    0  502 -0.52513018367E+02  0.59373897461E+02 -0.31574704312E+02  0.85424300700E+02  0.41800000000E+01 0. -1.
        -11    1    1    2    0    0 -0.25443100112E+01 -0.21802340957E+02  0.16795127232E+02  0.27638594092E+02  0.00000000000E+00 0.  1.
         11    1    1    2    0    0  0.51233890459E+01 -0.21868022846E+02 -0.99018320672E+02  0.10153367603E+03  0.00000000000E+00 0. -1.
</event>
<event>
 7    1  0.2384639E-009  0.8456472E+02  0.7561462E-02  0.1316575E+00
          2   -1    0    0  501    0  0.00000000000E+00  0.00000000000E+00  0.54765594507E+03  0.54765594507E+03  0.00000000000E+00 0. -1.
         -2   -1    0    0    0  501 -0.00000000000E+00 -0.00000000000E+00 -0.44852454967E+02  0.44852454967E+02  0.00000000000E+00 0.  1.
         25    2    1    2    0    0  0.45211327927E+02 -0.15808876657E+02  0.46182819721E+03  0.48085885986E+03  0.12508387032E+03 0.  0.
          5    1    3    3  502    0  0.41194965765E+02  0.67805911971E+01  0.45447210186E+03  0.45640482621E+03  0.41800000000E+01 0.  1.
         -5    1    3    3    0  502  0.40163621619E+01 -0.22589467854E+02  0.73560953528E+01  0.24454033651E+02  0.41800000000E+01 0.  1.
        -11    1    1    2    0    0 -0.63071282538E+02  0.39320500105E+02  0.28670747058E+02  0.79662413636E+02  0.00000000000E+00 0.  1.
         11    1    1    2    0    0  0.17859954611E+02 -0.23511623448E+02  0.12304545830E+02  0.31987126534E+02  0.00000000000E+00 0. -1.
</event>
<event>
 7    1  0.2384639E-009  0.9086459E+02  0.7561462E-02  0.1300771E+00
         -1   -1    0    0    0  501 -0.00000000000E+00  0.00000000000E+00  0.49224770119E+02  0.49224770119E+02  0.00000000000E+00 0.  1.
          1   -1    0    0  501    0  0.00000000000E+00 -0.00000000000E+00 -0.37016370513E+03  0.37016370513E+03  0.00000000000E+00 0. -1.
         25    2    1    2    0    0  0.62400792218E+02  0.12856834691E+02 -0.25695570399E+03  0.29280189034E+03  0.12509019189E+03 0.  0.
          5    1    3    3  502    0  0.14594846743E+02  0.45924003272E+02 -0.26623657088E+02  0.55211549016E+02  0.41800000000E+01 0.  1.
         -5    1    3    3    0  502  0.47805945475E+02 -0.33067168582E+02 -0.23033204690E+03  0.23759034132E+03  0.41800000000E+01 0.  1.
        -11    1    1    2    0    0 -0.64213899220E+02 -0.21775578414E+01 -0.82842309601E+02  0.10483804115E+03  0.00000000000E+00 0. -1.
         11    1    1    2    0    0  0.18131070017E+01 -0.10679276849E+02  0.18859078578E+02  0.21748543764E+02  0.00000000000E+00 0.  1.
</event>
<event>
 7    1  0.2384639E-009  0.1067241E+03  0.7561462E-02  0.1266760E+00
          1   -1    0    0  501    0  0.00000000000E+00  0.00000000000E+00  0.44777253671E+03  0.44777253671E+03  0.00000000000E+00 0. -1.
         -1   -1    0    0    0  501 -0.00000000000E+00 -0.00000000000E+00 -0.40266945611E+02  0.40266945611E+02  0.00000000000E+00 0.  1.
         25    2    1    2    0    0 -0.12912295898E+02 -0.11238607467E+02  0.83854617575E+02  0.15156702981E+03  0.12509170218E+03 0.  0.
          5    1    3    3  502    0 -0.51153223865E+02  0.34426475402E+02  0.63180485607E+02  0.88380318409E+02  0.41800000000E+01 0.  1.
         -5    1    3    3    0  502  0.38240927967E+02 -0.45665082870E+02  0.20674131967E+02  0.63186711403E+02  0.41800000000E+01 0.  1.
        -11    1    1    2    0    0  0.45889726480E+00  0.50626742240E+02  0.18424604451E+03  0.19107559377E+03  0.00000000000E+00 0. -1.
         11    1    1    2    0    0  0.12453398633E+02 -0.39388134773E+02  0.13940492902E+03  0.14539685875E+03  0.00000000000E+00 0.  1.
</event>
<event>
 7    1  0.2384639E-009  0.1382124E+03  0.7561462E-02  0.1215755E+00
         -2   -1    0    0    0  501 -0.00000000000E+00  0.00000000000E+00  0.12413840390E+03  0.12413840390E+03  0.00000000000E+00 0.  1.
          2   -1    0    0  501    0  0.00000000000E+00 -0.00000000000E+00 -0.17394496126E+03  0.17394496126E+03  0.00000000000E+00 0. -1.
         25    2    1    2    0    0  0.94734881699E+02  0.25849428482E+02 -0.40961517483E+02  0.16421968362E+03  0.12508943924E+03 0.  0.
          5    1    3    3  502    0  0.57849163995E+01  0.61913280191E+02 -0.90046813092E+01  0.62970439154E+02  0.41800000000E+01 0. -1.
         -5    1    3    3    0  502  0.88949965299E+02 -0.36063851709E+02 -0.31956836173E+02  0.10124924447E+03  0.41800000000E+01 0. -1.
        -11    1    1    2    0    0 -0.12573586276E+02 -0.33236259041E+02  0.26287271143E+02  0.44201409604E+02  0.00000000000E+00 0.  1.
         11    1    1    2    0    0 -0.82161295423E+02  0.73868305592E+01 -0.35132311024E+02  0.89662271938E+02  0.00000000000E+00 0. -1.
</event>
<event>
 7    1  0.2384639E-009  0.1128492E+03  0.7561462E-02  0.1255383E+00
          2   -1    0    0  501    0  0.00000000000E+00  0.00000000000E+00  0.95939727652E+02  0.95939727652E+02  0.00000000000E+00 0. -1.
         -2   -1    0    0    0  501 -0.00000000000E+00 -0.00000000000E+00 -0.20735966834E+03  0.20735966834E+03  0.00000000000E+00 0.  1.
         25    2    1    2    0    0  0.34928924271E+02 -0.76371732361E+02 -0.95932285138E+02  0.17861675757E+03  0.12509305136E+03 0.  0.
          5    1    3    3  502    0 -0.26103664480E+02 -0.72321509698E+02 -0.87780544850E+02  0.11676771180E+03  0.41800000000E+01 0.  1.
         -5    1    3    3    0  502  0.61032588751E+02 -0.40502226639E+01 -0.81517402874E+01  0.61849045773E+02  0.41800000000E+01 0.  1.
        -11    1    1    2    0    0 -0.37143052958E+02  0.57943242850E+02  0.30356722476E+02  0.75223376516E+02  0.00000000000E+00 0. -1.
         11    1    1    2    0    0  0.22141286867E+01  0.18428489511E+02 -0.45844378024E+02  0.49459261902E+02  0.00000000000E+00 0.  1.
</event>
<event>
 7    1  0.2384639E-009  0.8822876E+02  0.7561462E-02  0.1307199E+00
         -1   -1    0    0    0  501 -0.00000000000E+00  0.00000000000E+00  0.95070819196E+02  0.95070819196E+02  0.00000000000E+00 0.  1.
          1   -1    0    0  501    0  0.00000000000E+00 -0.00000000000E+00 -0.13799796160E+03  0.13799796160E+03  0.00000000000E+00 0. -1.
         25    2    1    2    0    0 -0.60017581730E+01  0.25427742448E+02 -0.56539362432E+02  0.13973552680E+03  0.12508687684E+03 0.  0.
          5    1    3    3  502    0  0.26673908341E+02  0.51542566396E+02  0.11925083432E+02  0.59395400089E+02  0.41800000000E+01 0.  1.
         -5    1    3    3    0  502 -0.32675666514E+02 -0.26114823948E+02 -0.68464445863E+02  0.80340126707E+02  0.41800000000E+01 0.  1.
        -11    1    1    2    0    0  0.36705198395E+02 -0.26881746466E+02 -0.18287675089E+02  0.49034059004E+02  0.00000000000E+00 0. -1.
         11    1    1    2    0    0 -0.30703440222E+02  0.14540040187E+01  0.31899895114E+02  0.44299194997E+02  0.00000000000E+00 0.  1.
</event>
<event>
 7    1  0.2384639E-009  0.7946298E+02  0.7561462E-02  0.1330582E+00
         -2   -1    0    0    0  501 -0.00000000000E+00  0.00000000000E+00  0.12763820239E+02  0.12763820239E+02  0.00000000000E+00 0.  1.
          2   -1    0    0  501    0  0.00000000000E+00 -0.00000000000E+00 -0.95047376480E+03  0.95047376480E+03  0.00000000000E+00 0. -1.
         25    2    1    2    0    0  0.73659081971E+01  0.20565841240E+02 -0.54598230053E+03  0.56055365688E+03  0.12508604766E+03 0.  0.
          5    1    3    3  502    0  0.23657270487E+02  0.37274780582E+02 -0.63291929429E+02  0.77281410735E+02  0.41800000000E+01 0. -1.
         -5    1    3    3    0  502 -0.16291362290E+02 -0.16708939342E+02 -0.48269037110E+03  0.48327224614E+03  0.41800000000E+01 0. -1.
        -11    1    1    2    0    0 -0.27665208215E+02  0.27307842312E+02 -0.21414655113E+03  0.21764610578E+03  0.00000000000E+00 0.  1.
         11    1    1    2    0    0  0.20299300018E+02 -0.47873683551E+02 -0.17758109290E+03  0.18503782238E+03  0.00000000000E+00 0. -1.
</event>
<event>
 7    1  0.2384639E-009  0.2689456E+03  0.7561462E-02  0.1101885E+00
         -2   -1    0    0    0  501 -0.00000000000E+00  0.00000000000E+00  0.12793852235E+03  0.12793852235E+03  0.00000000000E+00 0.  1.
          2   -1    0    0  501    0  0.00000000000E+00 -0.00000000000E+00 -0.78699443584E+03  0.78699443584E+03  0.00000000000E+00 0. -1.
         25    2    1    2    0    0  0.16419097815E+03 -0.19991073931E+03 -0.12244284483E+03  0.31235330466E+03  0.12509738481E+03 0.  0.
          5    1    3    3  502    0  0.20545668185E+02 -0.99862390337E+02 -0.86115769108E+02  0.13352160714E+03  0.41800000000E+01 0.  1.
         -5    1    3    3    0  502  0.14364530996E+03 -0.10004834897E+03 -0.36327075726E+02  0.17883169752E+03  0.41800000000E+01 0.  1.
        -11    1    1    2    0    0 -0.92372315663E+02  0.13723461887E+03 -0.24367113777E+03  0.29451928408E+03  0.00000000000E+00 0.  1.
         11    1    1    2    0    0 -0.71818662485E+02  0.62676120439E+02 -0.29294193088E+03  0.30806036945E+03  0.00000000000E+00 0. -1.
</event>
<event>
 7    1  0.2384639E-009  0.1073563E+03  0.7561462E-02  0.1265545E+00
         -1   -1    0    0    0  501 -0.00000000000E+00  0.00000000000E+00  0.33407410027E+02  0.33407410027E+02  0.00000000000E+00 0.  1.
          1   -1    0    0  501    0  0.00000000000E+00 -0.00000000000E+00 -0.37699185369E+03  0.37699185369E+03  0.00000000000E+00 0. -1.
         25    2    1    2    0    0  0.75733663411E+01 -0.14339647918E+02 -0.23727968283E+03  0.26872325655E+03  0.12509020485E+03 0.  0.
          5    1    3    3  502    0 -0.28893969685E+02 -0.57499935426E+02 -0.88359511476E+02  0.10938912070E+03  0.41800000000E+01 0. -1.
         -5    1    3    3    0  502  0.36467336026E+02  0.43160287508E+02 -0.14892017135E+03  0.15933413586E+03  0.41800000000E+01 0. -1.
        -11    1    1    2    0    0  0.36152459488E+02 -0.16821307008E+02 -0.48358738336E+02  0.62677940857E+02  0.00000000000E+00 0. -1.
         11    1    1    2    0    0 -0.43725825829E+02  0.31160954927E+02 -0.57946022496E+02  0.78998066303E+02  0.00000000000E+00 0.  1.
</event>
<event>
 7    1  0.2384639E-009  0.2112515E+03  0.7561462E-02  0.1140579E+00
          2   -1    0    0  501    0  0.00000000000E+00  0.00000000000E+00  0.12343505560E+04  0.12343505560E+04  0.00000000000E+00 0. -1.
         -2   -1    0    0    0  501 -0.00000000000E+00 -0.00000000000E+00 -0.51795999857E+02  0.51795999857E+02  0.00000000000E+00 0.  1.
         25    2    1    2    0    0  0.12849394651E+03 -0.13349768285E+03  0.94221795050E+03  0.96837688526E+03  0.12508716979E+03 0.  0.
          5    1    3    3  502    0  0.13975475612E+03 -0.76691039210E+02  0.57950839561E+03  0.60104938261E+03  0.41800000000E+01 0. -1.
         -5    1    3    3    0  502 -0.11260809609E+02 -0.56806643645E+02  0.36270955489E+03  0.36732750265E+03  0.41800000000E+01 0. -1.
        -11    1    1    2    0    0 -0.70391744522E+02  0.12867333719E+03  0.19452486857E+03  0.24362214574E+03  0.00000000000E+00 0.  1.
         11    1    1    2    0    0 -0.58102201991E+02  0.48243456631E+01  0.45811737043E+02  0.74147524828E+02  0.00000000000E+00 0. -1.
</event>
<event>
 7    1  0.2384639E-009  0.1113551E+03  0.7561462E-02  0.1258081E+00
          1   -1    0    0  501    0  0.00000000000E+00  0.00000000000E+00  0.11911536040E+03  0.11911536040E+03  0.00000000000E+00 0. -1.
         -1   -1    0    0    0  501 -0.00000000000E+00 -0.00000000000E+00 -0.13676659354E+03  0.13676659354E+03  0.00000000000E+00 0.  1.
         25    2    1    2    0    0  0.44750760073E+02  0.68267085857E+01 -0.60112137520E+02  0.14598348305E+03  0.12509385984E+03 0.  0.
          5    1    3    3  502    0  0.87215917751E+01 -0.54627857121E+02 -0.47767874852E+01  0.55682663688E+02  0.41800000000E+01 0.  1.
         -5    1    3    3    0  502  0.36029168298E+02  0.61454565707E+02 -0.55335350035E+02  0.90300819365E+02  0.41800000000E+01 0.  1.
        -11    1    1    2    0    0 -0.66569179295E+02  0.11282142387E+02  0.45444309125E+02  0.81387515017E+02  0.00000000000E+00 0.  1.
         11    1    1    2    0    0  0.21818419221E+02 -0.18108850973E+02 -0.29834047403E+01  0.28510955872E+02  0.00000000000E+00 0. -1.
</event>
<event>
 7    1  0.2384639E-009  0.1148741E+03  0.7561462E-02  0.1251801E+00
          2   -1    0    0  501    0  0.00000000000E+00  0.00000000000E+00  0.40694837411E+02  0.40694837411E+02  0.00000000000E+00 0. -1.
         -2   -1    0    0    0  501 -0.00000000000E+00 -0.00000000000E+00 -0.40780121802E+03  0.40780121802E+03  0.00000000000E+00 0.  1.
         25    2    1    2    0    0 -0.29328806068E+02  0.62780807000E+02 -0.23304958522E+03  0.27342689824E+03  0.12509416821E+03 0.  0.
          5    1    3    3  502    0  0.44067614528E+02  0.45609811815E+02 -0.75263032575E+02  0.98509928720E+02  0.41800000000E+01 0. -1.
         -5    1    3    3    0  502 -0.73396420596E+02  0.17170995184E+02 -0.15778655264E+03  0.17491696952E+03  0.41800000000E+01 0. -1.
        -11    1    1    2    0    0  0.29371488058E+02 -0.14945729038E+01 -0.10149449319E+03  0.10566953301E+03  0.00000000000E+00 0.  1.
         11    1    1    2    0    0 -0.42681989574E-01 -0.61286234096E+02 -0.32562302201E+02  0.69399624178E+02  0.00000000000E+00 0. -1.
</event>
<event>
 7    1  0.2384639E-009  0.1447965E+03  0.7561462E-02  0.1207017E+00
          2   -1    0    0  501    0  0.00000000000E+00  0.00000000000E+00  0.14536904813E+04  0.14536904813E+04  0.00000000000E+00 0.  1.
         -2   -1    0    0    0  501 -0.00000000000E+00 -0.00000000000E+00 -0.21738584178E+02  0.21738584178E+02  0.00000000000E+00 0. -1.
         25    2    1    2    0    0 -0.11348508716E+03 -0.65998815003E+02  0.97655096408E+03  0.99324464117E+03  0.12509365763E+03 0.  0.
          5    1    3    3  502    0 -0.36213549949E+02 -0.16504359017E+02  0.60110142483E+02  0.72211610533E+02  0.41800000000E+01 0.  1.
         -5    1    3    3    0  502 -0.77271537213E+02 -0.49494455986E+02  0.91644082160E+03  0.92103303064E+03  0.41800000000E+01 0.  1.
        -11    1    1    2    0    0 -0.31719007806E+01  0.37495237521E+02  0.89779397908E+02  0.97346258685E+02  0.00000000000E+00 0. -1.
         11    1    1    2    0    0  0.11665698794E+03  0.28503577482E+02  0.36562153512E+03  0.38483816561E+03  0.00000000000E+00 0.  1.
</event>
<event>
 7    1  0.2384639E-009  0.2014414E+03  0.7561462E-02  0.1148529E+00
         -1   -1    0    0    0  501 -0.00000000000E+00  0.00000000000E+00  0.35093177041E+02  0.35093177041E+02  0.00000000000E+00 0.  1.
          1   -1    0    0  501    0  0.00000000000E+00 -0.00000000000E+00 -0.14498359220E+04  0.14498359220E+04  0.00000000000E+00 0. -1.
         25    2    1    2    0    0 -0.17506094001E+03  0.90435797579E+02 -0.70181845685E+03  0.73960877116E+03  0.12508805617E+03 0.  0.
          5    1    3    3  502    0 -0.11389730439E+03  0.29465788648E+02 -0.21451026995E+03  0.24468951134E+03  0.41800000000E+01 0.  1.
         -5    1    3    3    0  502 -0.61163635615E+02  0.60970008931E+02 -0.48730818690E+03  0.49491925981E+03  0.41800000000E+01 0.  1.
        -11    1    1    2    0    0  0.11727813017E+03 -0.46716250435E+02 -0.29075483201E+03  0.31697782290E+03  0.00000000000E+00 0. -1.
         11    1    1    2    0    0  0.57782809835E+02 -0.43719547144E+02 -0.42216945613E+03  0.42834250502E+03  0.00000000000E+00 0.  1.
</event>
<event>
 7    1  0.2762846E-009  0.3170108E+03  0.7561462E-02  0.1077033E+00
          1   -1    0    0  501    0  0.00000000000E+00  0.00000000000E+00  0.25264980099E+03  0.25264980099E+03  0.00000000000E+00 0. -1.
         -1   -1    0    0    0  501 -0.00000000000E+00 -0.00000000000E+00 -0.42494707002E+03  0.42494707002E+03  0.00000000000E+00 0.  1.
         25    2    1    2    0    0  0.23413086334E+03  0.18516747911E+03 -0.51820057479E+01  0.32369540308E+03  0.12509038452E+03 0.  0.
          5    1    3    3  502    0 -0.34259964120E+01 -0.12108276642E+02  0.62654361857E+01  0.14665466418E+02  0.41800000000E+01 0. -1.
         -5    1    3    3    0  502  0.23755685976E+03  0.19727575575E+03 -0.11447441934E+02  0.30902993666E+03  0.41800000000E+01 0. -1.
        -11    1    1    2    0    0 -0.11865235274E+03 -0.37402209983E+02 -0.68371402328E+02  0.14195758091E+03  0.00000000000E+00 0. -1.
         11    1    1    2    0    0 -0.11547851060E+03 -0.14776526913E+03 -0.98743860947E+02  0.21194388702E+03  0.00000000000E+00 0.  1.
</event>
<event>
 7    1  0.2384639E-009  0.1342342E+03  0.7561462E-02  0.1221305E+00
          1   -1    0    0  501    0  0.00000000000E+00  0.00000000000E+00  0.47932743597E+03  0.47932743597E+03  0.00000000000E+00 0. -1.
         -1   -1    0    0    0  501 -0.00000000000E+00 -0.00000000000E+00 -0.57042605615E+02  0.57042605615E+02  0.00000000000E+00 0.  1.
         25    2    1    2    0    0 -0.36320992888E+02  0.11532850646E+03  0.17726706335E+03  0.24837843872E+03  0.12509339770E+03 0.  0.
          5    1    3    3  502    0 -0.49885345493E+02  0.10726670118E+03  0.19254439162E+03  0.22602103447E+03  0.41800000000E+01 0. -1.
         -5    1    3    3    0  502  0.13564352605E+02  0.80618052744E+01 -0.15277328274E+02  0.22357404256E+02  0.41800000000E+01 0. -1.
        -11    1    1    2    0    0  0.37679011457E+02 -0.29294158494E+02  0.16024649114E+03  0.16720285149E+03  0.00000000000E+00 0. -1.
         11    1    1    2    0    0 -0.13580185688E+01 -0.86034347963E+02  0.84771275874E+02  0.12078875137E+03  0.00000000000E+00 0.  1.
</event>
<event>
 7    1  0.2384639E-009  0.1071159E+03  0.7561462E-02  0.1266006E+00
          1   -1    0    0  501    0  0.00000000000E+00  0.00000000000E+00  0.23980169797E+03  0.23980169797E+03  0.00000000000E+00 0. -1.
         -1   -1    0    0    0  501 -0.00000000000E+00 -0.00000000000E+00 -0.62988765525E+02  0.62988765525E+02  0.00000000000E+00 0.  1.
         25    2    1    2    0    0  0.10902950498E+02 -0.45215261525E+02  0.59236992571E+02  0.14601279859E+03  0.12508965529E+03 0.  0.
          5    1    3    3  502    0 -0.54211078140E+02 -0.39616292527E+02  0.22571636270E+02  0.70959444689E+02  0.41800000000E+01 0.  1.
         -5    1    3    3    0  502  0.65114028638E+02 -0.55989689976E+01  0.36665356302E+02  0.75053353902E+02  0.41800000000E+01 0.  1.
        -11    1    1    2    0    0 -0.13285238722E+02 -0.15666918390E+02 -0.38718726181E+01  0.20903140848E+02  0.00000000000E+00 0.  1.
         11    1    1    2    0    0  0.23822882246E+01  0.60882179915E+02  0.12144781249E+03  0.13587452406E+03  0.00000000000E+00 0. -1.
</event>
<event>
 7    1  0.2384639E-009  0.1243757E+03  0.7561462E-02  0.1236048E+00
          1   -1    0    0  501    0  0.00000000000E+00  0.00000000000E+00  0.49453664586E+03  0.49453664586E+03  0.00000000000E+00 0. -1.
         -1   -1    0    0    0  501 -0.00000000000E+00 -0.00000000000E+00 -0.43502010733E+02  0.43502010733E+02  0.00000000000E+00 0.  1.
         25    2    1    2    0    0  0.76300417540E+02  0.31420462348E+02  0.13328708011E+03  0.20055790314E+03  0.12509607355E+03 0.  0.
          5    1    3    3  502    0  0.97714641406E+02  0.51410501615E+02  0.13026212706E+03  0.17081242627E+03  0.41800000000E+01 0.  1.
         -5    1    3    3    0  502 -0.21414223865E+02 -0.19990039268E+02  0.30249530519E+01  0.29745476877E+02  0.41800000000E+01 0.  1.
        -11    1    1    2    0    0  0.12747707169E+02 -0.12039866390E+02  0.98478794918E+02  0.10002767352E+03  0.00000000000E+00 0. -1.
         11    1    1    2    0    0 -0.89048124709E+02 -0.19380595958E+02  0.21926876010E+03  0.23745307993E+03  0.00000000000E+00 0.  1.
</event>
<event>
 7    1  0.2384639E-009  0.1304101E+03  0.7561462E-02  0.1226849E+00
         -1   -1    0    0    0  501 -0.00000000000E+00  0.00000000000E+00  0.14301737795E+03  0.14301737795E+03  0.00000000000E+00 0.  1.
          1   -1    0    0  501    0  0.00000000000E+00 -0.00000000000E+00 -0.16728383868E+03  0.16728383868E+03  0.00000000000E+00 0. -1.
         25    2    1    2    0    0 -0.55928627625E+02  0.87624389565E+02  0.23745503962E+02  0.16436591435E+03  0.12508501032E+03 0.  0.
          5    1    3    3  502    0 -0.40541204836E+01  0.78625123998E+02 -0.34220883200E+02  0.85947002645E+02  0.41800000000E+01 0.  1.
         -5    1    3    3    0  502 -0.51874507141E+02  0.89992655670E+01  0.57966387162E+02  0.78418911702E+02  0.41800000000E+01 0.  1.
        -11    1    1    2    0    0  0.40928640435E+02 -0.67842097651E+00 -0.40178468087E+02  0.57357851780E+02  0.00000000000E+00 0. -1.
         11    1    1    2    0    0  0.14999987190E+02 -0.86945968589E+02 -0.78334966019E+01  0.88577450508E+02  0.00000000000E+00 0.  1.
</event>
<event>
 7    1  0.2384639E-009  0.1877888E+03  0.7561462E-02  0.1160471E+00
          1   -1    0    0  501    0  0.00000000000E+00  0.00000000000E+00  0.26414686447E+03  0.26414686447E+03  0.00000000000E+00 0. -1.
         -1   -1    0    0    0  501 -0.00000000000E+00 -0.00000000000E+00 -0.28025133244E+03  0.28025133244E+03  0.00000000000E+00 0.  1.
         25    2    1    2    0    0  0.16774913500E+03  0.27446624868E+02  0.17425181256E+03  0.27368532274E+03  0.12508745817E+03 0.  0.
          5    1    3    3  502    0  0.13550823642E+03 -0.26704374113E+02  0.15501488151E+03  0.20766003859E+03  0.41800000000E+01 0.  1.
         -5    1    3    3    0  502  0.32240898577E+02  0.54150998981E+02  0.19236931054E+02  0.66025284157E+02  0.41800000000E+01 0.  1.
        -11    1    1    2    0    0 -0.70826216838E+02  0.74692019830E+01 -0.24214143634E+02  0.75222780603E+02  0.00000000000E+00 0. -1.
         11    1    1    2    0    0 -0.96922918163E+02 -0.34915826851E+02 -0.16614213689E+03  0.19549009356E+03  0.00000000000E+00 0.  1.
</event>
<event>
 7    1  0.2384639E-009  0.9361734E+02  0.7561462E-02  0.1294321E+00
         -1   -1    0    0    0  501 -0.00000000000E+00  0.00000000000E+00  0.44631010048E+02  0.44631010048E+02  0.00000000000E+00 0.  1.
          1   -1    0    0  501    0  0.00000000000E+00 -0.00000000000E+00 -0.30660837007E+03  0.30660837007E+03  0.00000000000E+00 0. -1.
         25    2    1    2    0    0  0.45968307100E+02  0.48596039074E+01 -0.17124533943E+03  0.21704894222E+03  0.12509426860E+03 0.  0.
          5    1    3    3  502    0  0.65624468561E+02  0.14177001050E+02 -0.18081275271E+03  0.19292040373E+03  0.41800000000E+01 0.  1.
         -5    1    3    3    0  502 -0.19656161461E+02 -0.93173971428E+01  0.95674132813E+01  0.24128538492E+02  0.41800000000E+01 0.  1.
        -11    1    1    2    0    0  0.25860858239E+02 -0.17172797597E+01 -0.33133156275E+02  0.42065889784E+02  0.00000000000E+00 0. -1.
         11    1    1    2    0    0 -0.71829165339E+02 -0.31423241477E+01 -0.57598864321E+02  0.92124548115E+02  0.00000000000E+00 0.  1.
</event>
<event>
 7    1  0.2384639E-009  0.8914033E+02  0.7561462E-02  0.1304947E+00
          1   -1    0    0  501    0  0.00000000000E+00  0.00000000000E+00  0.21692465035E+02  0.21692465035E+02  0.00000000000E+00 0. -1.
         -1   -1    0    0    0  501 -0.00000000000E+00 -0.00000000000E+00 -0.54734463602E+03  0.54734463602E+03  0.00000000000E+00 0.  1.
         25    2    1    2    0    0  0.19710350348E+02  0.77993923465E+01 -0.35287546337E+03  0.37499227215E+03  0.12509509618E+03 0.  0.
          5    1    3    3  502    0 -0.32358723344E+02  0.35893858690E+02 -0.65193338139E+02  0.81259459793E+02  0.41800000000E+01 0. -1.
         -5    1    3    3    0  502  0.52069073692E+02 -0.28094466344E+02 -0.28768212523E+03  0.29373281235E+03  0.41800000000E+01 0. -1.
        -11    1    1    2    0    0 -0.21532496914E+02 -0.36136652387E+02 -0.15485428927E+03  0.16046606175E+03  0.00000000000E+00 0.  1.
         11    1    1    2    0    0  0.18221465655E+01  0.28337260040E+02 -0.17922418348E+02  0.33578767162E+02  0.00000000000E+00 0. -1.
</event>
<event>
 7    1  0.2384639E-009  0.7524002E+02  0.7561462E-02  0.1343129E+00
          1   -1    0    0  501    0  0.00000000000E+00  0.00000000000E+00  0.40566503916E+02  0.40566503916E+02  0.00000000000E+00 0. -1.
         -1   -1    0    0    0  501 -0.00000000000E+00 -0.00000000000E+00 -0.31907784310E+03  0.31907784310E+03  0.00000000000E+00 0.  1.
         25    2    1    2    0    0  0.33184658685E+02 -0.92768704845E+01 -0.15194664795E+03  0.19980969006E+03  0.12509534971E+03 0.  0.
          5    1    3    3  502    0  0.28185740781E+02 -0.48753182694E+02 -0.16875109656E+02  0.58936835104E+02  0.41800000000E+01 0.  1.
         -5    1    3    3    0  502  0.49989179039E+01  0.39476312209E+02 -0.13507153830E+03  0.14087285496E+03  0.41800000000E+01 0.  1.
        -11    1    1    2    0    0 -0.16023299332E+02  0.25674525750E+02 -0.13204950547E+03  0.13547324197E+03  0.00000000000E+00 0.  1.
         11    1    1    2    0    0 -0.17161359353E+02 -0.16397655266E+02  0.54848142383E+01  0.24361414989E+02  0.00000000000E+00 0. -1.
</event>
<event>
 7    1  0.2384639E-009  0.1209991E+03  0.7561462E-02  0.1241458E+00
          1   -1    0    0  501    0  0.00000000000E+00  0.00000000000E+00  0.42424738288E+03  0.42424738288E+03  0.00000000000E+00 0. -1.
         -1   -1    0    0    0  501 -0.00000000000E+00 -0.00000000000E+00 -0.45414758361E+02  0.45414758361E+02  0.00000000000E+00 0.  1.
         25    2    1    2    0    0  0.51751433152E+02 -0.58778994761E+02  0.21578872642E+03  0.26143393446E+03  0.12509894715E+03 0.  0.
          5    1    3    3  502    0 -0.23133661220E+02 -0.16391460614E+02 -0.45351323453E+00  0.28662245843E+02  0.41800000000E+01 0.  1.
         -5    1    3    3    0  502  0.74885094372E+02 -0.42387534147E+02  0.21624223966E+03  0.23277168862E+03  0.41800000000E+01 0.  1.
        -11    1    1    2    0    0  0.19055195666E+02 -0.15503757492E+02  0.48971923405E+02  0.54787920751E+02  0.00000000000E+00 0. -1.
         11    1    1    2    0    0 -0.70806628818E+02  0.74282752253E+02  0.11407197469E+03  0.15344028603E+03  0.00000000000E+00 0.  1.
</event>
<event>
 7    1  0.2384639E-009  0.1848557E+03  0.7561462E-02  0.1163185E+00
         -2   -1    0    0    0  501 -0.00000000000E+00  0.00000000000E+00  0.10378244509E+03  0.10378244509E+03  0.00000000000E+00 0.  1.
          2   -1    0    0  501    0  0.00000000000E+00 -0.00000000000E+00 -0.39745869860E+03  0.39745869860E+03  0.00000000000E+00 0. -1.
         25    2    1    2    0    0 -0.91661829665E+02 -0.12626390249E+03 -0.66879358316E+02  0.21086913775E+03  0.12509388714E+03 0.  0.
          5    1    3    3  502    0 -0.82275554247E+02 -0.15155251957E+03 -0.60855055697E+02  0.18291594577E+03  0.41800000000E+01 0. -1.
         -5    1    3    3    0  502 -0.93862754186E+01  0.25288617079E+02 -0.60243026186E+01  0.27953191983E+02  0.41800000000E+01 0. -1.
        -11    1    1    2    0    0  0.56664069370E+02  0.23472923420E+02 -0.36775961807E+02  0.71514098319E+02  0.00000000000E+00 0.  1.
         11    1    1    2    0    0  0.34997760295E+02  0.10279097907E+03 -0.19002093338E+03  0.21885790762E+03  0.00000000000E+00 0. -1.
</event>
<event>
 7    1  0.2384639E-009  0.1129813E+03  0.7561462E-02  0.1255146E+00
          1   -1    0    0  501    0  0.00000000000E+00  0.00000000000E+00  0.37087472985E+02  0.37087472985E+02  0.00000000000E+00 0. -1.
         -1   -1    0    0    0  501 -0.00000000000E+00 -0.00000000000E+00 -0.41949326369E+03  0.41949326369E+03  0.00000000000E+00 0.  1.
         25    2    1    2    0    0 -0.66224615260E+01 -0.48983652649E+02 -0.28100435637E+03  0.31153498937E+03  0.12508935238E+03 0.  0.
          5    1    3    3  502    0 -0.11688535972E+02  0.41243301964E+02 -0.73919689136E+02  0.85552467364E+02  0.41800000000E+01 0.  1.
         -5    1    3    3    0  502  0.50660744461E+01 -0.90226954614E+02 -0.20708466724E+03  0.22598252201E+03  0.41800000000E+01 0.  1.
        -11    1    1    2    0    0 -0.32836108852E+02  0.47955693771E+01 -0.71192199041E+02  0.78546398610E+02  0.00000000000E+00 0.  1.
         11    1    1    2    0    0  0.39458570378E+02  0.44188083272E+02 -0.30209235289E+02  0.66499348691E+02  0.00000000000E+00 0. -1.
</event>
<event>
 7    1  0.2384639E-009  0.1114676E+03  0.7561462E-02  0.1257876E+00
         -3   -1    0    0    0  501 -0.00000000000E+00  0.00000000000E+00  0.96209695956E+03  0.96209695956E+03  0.00000000000E+00 0.  1.
          3   -1    0    0  501    0  0.00000000000E+00 -0.00000000000E+00 -0.21393822462E+02  0.21393822462E+02  0.00000000000E+00 0. -1.
         25    2    1    2    0    0  0.82518735763E+02 -0.39855488929E+02  0.57388433160E+03  0.59446839485E+03  0.12510653331E+03 0.  0.
          5    1    3    3  502    0  0.60843353267E+01 -0.10907372624E+02  0.41973274446E+03  0.41993932787E+03  0.41800000000E+01 0.  1.
         -5    1    3    3    0  502  0.76434400436E+02 -0.28948116305E+02  0.15415158713E+03  0.17452906699E+03  0.41800000000E+01 0.  1.
        -11    1    1    2    0    0 -0.82803640740E+02  0.63456634663E+02  0.27226486433E+03  0.29156704847E+03  0.00000000000E+00 0. -1.
         11    1    1    2    0    0  0.28490497760E+00 -0.23601145734E+02  0.94553941174E+02  0.97455338706E+02  0.00000000000E+00 0.  1.
</event>
<event>
 7    1  0.2384639E-009  0.1620735E+03  0.7561462E-02  0.1186375E+00
          2   -1    0    0  501    0  0.00000000000E+00  0.00000000000E+00  0.43387952633E+03  0.43387952633E+03  0.00000000000E+00 0. -1.
         -2   -1    0    0    0  501 -0.00000000000E+00 -0.00000000000E+00 -0.77861390720E+02  0.77861390720E+02  0.00000000000E+00 0.  1.
         25    2    1    2    0    0 -0.55765182840E+02  0.11990835238E+03  0.94990560953E+02  0.20532454423E+03  0.12508874131E+03 0.  0.
          5    1    3    3  502    0 -0.83122628824E+02  0.96560007797E+02  0.10776881988E+03  0.16692752160E+03  0.41800000000E+01 0. -1.
         -5    1    3    3    0  502  0.27357445984E+02  0.23348344585E+02 -0.12778258926E+02  0.38397022630E+02  0.41800000000E+01 0. -1.
        -11    1    1    2    0    0  0.77223430037E+02 -0.63068594280E+02  0.16481038520E+03  0.19262286677E+03  0.00000000000E+00 0.  1.
         11    1    1    2    0    0 -0.21458247197E+02 -0.56839758102E+02  0.96217189454E+02  0.11379350606E+03  0.00000000000E+00 0. -1.
</event>
<event>
 7    1  0.2384639E-009  0.1282907E+03  0.7561462E-02  0.1230014E+00
         -1   -1    0    0    0  501 -0.00000000000E+00  0.00000000000E+00  0.30373185323E+02  0.30373185323E+02  0.00000000000E+00 0.  1.
          1   -1    0    0  501    0  0.00000000000E+00 -0.00000000000E+00 -0.76420411463E+03  0.76420411463E+03  0.00000000000E+00 0. -1.
         25    2    1    2    0    0 -0.85894096281E+02 -0.30264861315E+01 -0.56740799049E+03  0.58735511469E+03  0.12508895906E+03 0.  0.
          5    1    3    3  502    0  0.19256171808E+02 -0.23608881658E+02 -0.25939519191E+03  0.26121163342E+03  0.41800000000E+01 0.  1.
         -5    1    3    3    0  502 -0.10515026809E+03  0.20582395526E+02 -0.30801279858E+03  0.32614348127E+03  0.41800000000E+01 0.  1.
        -11    1    1    2    0    0  0.82900038918E+02 -0.27947566330E+02 -0.14532613136E+03  0.16962655267E+03  0.00000000000E+00 0.  1.
         11    1    1    2    0    0  0.29940573631E+01  0.30974052462E+02 -0.21096807465E+02  0.37595632600E+02  0.00000000000E+00 0. -1.
</event>
<event>
 7    1  0.2896144E-009  0.1676457E+03  0.7561462E-02  0.1180326E+00
         -2   -1    0    0    0  501 -0.00000000000E+00  0.00000000000E+00  0.13989186550E+03  0.13989186550E+03  0.00000000000E+00 0. -1.
          2   -1    0    0  501    0  0.00000000000E+00 -0.00000000000E+00 -0.32415728448E+03  0.32415728448E+03  0.00000000000E+00 0.  1.
         25    2    1    2    0    0 -0.14075227601E+03 -0.90653541309E+02 -0.17573127054E+03  0.27305394704E+03  0.12509081019E+03 0.  0.
          5    1    3    3  502    0 -0.11352110476E+03 -0.75514953651E+02 -0.52969222739E+02  0.14633099606E+03  0.41800000000E+01 0. -1.
         -5    1    3    3    0  502 -0.27231171249E+02 -0.15138587658E+02 -0.12276204780E+03  0.12672295098E+03  0.41800000000E+01 0. -1.
        -11    1    1    2    0    0  0.48225500906E+02  0.32824273704E+02 -0.47402128964E+02  0.75167105253E+02  0.00000000000E+00 0.  1.
         11    1    1    2    0    0  0.92526775106E+02  0.57829267606E+02  0.38867980521E+02  0.11582809768E+03  0.00000000000E+00 0. -1.
</event>
<event>
 7    1  0.2384639E-009  0.1296047E+03  0.7561462E-02  0.1228044E+00
          1   -1    0    0  501    0  0.00000000000E+00  0.00000000000E+00  0.96134063339E+03  0.96134063339E+03  0.00000000000E+00 0. -1.
         -1   -1    0    0    0  501 -0.00000000000E+00 -0.00000000000E+00 -0.20417834326E+02  0.20417834326E+02  0.00000000000E+00 0.  1.
         25    2    1    2    0    0 -0.56424226826E+02  0.66354185884E+02  0.49227581036E+03  0.51533420332E+03  0.12508915334E+03 0.  0.
          5    1    3    3  502    0 -0.15774705787E+02 -0.33120355345E+02  0.21090180050E+03  0.21410941394E+03  0.41800000000E+01 0. -1.
         -5    1    3    3    0  502 -0.40649521039E+02  0.99474541229E+02  0.28137400986E+03  0.30122478938E+03  0.41800000000E+01 0. -1.
        -11    1    1    2    0    0 -0.84991665868E+01 -0.45894847620E+02  0.90092423124E+02  0.10146535160E+03  0.00000000000E+00 0.  1.
         11    1    1    2    0    0  0.64923393413E+02 -0.20459338264E+02  0.35855456558E+03  0.36495891280E+03  0.00000000000E+00 0. -1.
</event>
<event>
 7    1  0.2384639E-009  0.1535298E+03  0.7561462E-02  0.1196201E+00
          2   -1    0    0  501    0  0.00000000000E+00  0.00000000000E+00  0.42237874075E+03  0.42237874075E+03  0.00000000000E+00 0. -1.
         -2   -1    0    0    0  501 -0.00000000000E+00 -0.00000000000E+00 -0.13922222647E+03  0.13922222647E+03  0.00000000000E+00 0.  1.
         25    2    1    2    0    0  0.13595323619E+03  0.29748809967E+02  0.33896582537E+03  0.38718710050E+03  0.12509095051E+03 0.  0.
          5    1    3    3  502    0  0.30183020456E+02  0.49494971879E+02  0.43167831673E+02  0.72399592931E+02  0.41800000000E+01 0. -1.
         -5    1    3    3    0  502  0.10577021573E+03 -0.19746161912E+02  0.29579799369E+03  0.31478750756E+03  0.41800000000E+01 0. -1.
        -11    1    1    2    0    0 -0.42558205928E+02 -0.20991448815E+02 -0.64646745928E+02  0.80193787628E+02  0.00000000000E+00 0.  1.
         11    1    1    2    0    0 -0.93395030259E+02 -0.87573611521E+01  0.88374348449E+01  0.94220079102E+02  0.00000000000E+00 0. -1.
</event>
<event>
 7    1  0.2384639E-009  0.1101315E+03  0.7561462E-02  0.1260327E+00
          3   -1    0    0  501    0  0.00000000000E+00  0.00000000000E+00  0.11759388084E+03  0.11759388084E+03  0.00000000000E+00 0. -1.
         -3   -1    0    0    0  501 -0.00000000000E+00 -0.00000000000E+00 -0.16808763731E+03  0.16808763731E+03  0.00000000000E+00 0.  1.
         25    2    1    2    0    0  0.68479126829E+02 -0.54125980844E+02 -0.43348301197E+02  0.15857075728E+03  0.12508635910E+03 0.  0.
          5    1    3    3  502    0 -0.14993593859E+02 -0.11020781885E+02  0.32549200139E+02  0.37725168255E+02  0.41800000000E+01 0. -1.
         -5    1    3    3    0  502  0.83472720689E+02 -0.43105198959E+02 -0.75897501336E+02  0.12084558902E+03  0.41800000000E+01 0. -1.
        -11    1    1    2    0    0  0.11243065896E+02  0.13835482076E+02 -0.30009914590E+02  0.34905903064E+02  0.00000000000E+00 0.  1.
         11    1    1    2    0    0 -0.79722192726E+02  0.40290498768E+02  0.22864459322E+02  0.92204857812E+02  0.00000000000E+00 0. -1.
</event>
<event>
 7    1  0.2384639E-009  0.1045886E+03  0.7561462E-02  0.1270932E+00
         -1   -1    0    0    0  501 -0.00000000000E+00  0.00000000000E+00  0.13736990431E+02  0.13736990431E+02  0.00000000000E+00 0.  1.
          1   -1    0    0  501    0  0.00000000000E+00 -0.00000000000E+00 -0.14659522525E+04  0.14659522525E+04  0.00000000000E+00 0. -1.
         25    2    1    2    0    0  0.18382058945E+02  0.28186523503E+02 -0.12170859859E+04  0.12239599954E+04  0.12508953936E+03 0.  0.
          5    1    3    3  502    0  0.55085911951E+02 -0.26134388573E+02 -0.71241218962E+03  0.71502871571E+03  0.41800000000E+01 0.  1.
         -5    1    3    3    0  502 -0.36703853006E+02  0.54320912076E+02 -0.50467379632E+03  0.50893127965E+03  0.41800000000E+01 0.  1.
        -11    1    1    2    0    0  0.27014427890E+02  0.31675827655E+01 -0.20330044083E+02  0.33957673466E+02  0.00000000000E+00 0.  1.
         11    1    1    2    0    0 -0.45396486835E+02 -0.31354106269E+02 -0.21479923208E+03  0.22177157414E+03  0.00000000000E+00 0. -1.
</event>
<event>
 7    1  0.2384639E-009  0.1018977E+03  0.7561462E-02  0.1276355E+00
          2   -1    0    0  501    0  0.00000000000E+00  0.00000000000E+00  0.45885201110E+03  0.45885201110E+03  0.00000000000E+00 0.  1.
         -2   -1    0    0    0  501 -0.00000000000E+00 -0.00000000000E+00 -0.39298486358E+02  0.39298486358E+02  0.00000000000E+00 0. -1.
         25    2    1    2    0    0  0.32816956446E+02 -0.29067855899E+02  0.32220588312E+03  0.34840452827E+03  0.12508873381E+03 0.  0.
          5    1    3    3  502    0 -0.47528094113E+02 -0.19096465514E+02  0.13123500977E+03  0.14093862109E+03  0.41800000000E+01 0. -1.
         -5    1    3    3    0  502  0.80345050559E+02 -0.99713903849E+01  0.19097087335E+03  0.20746590718E+03  0.41800000000E+01 0. -1.
        -11    1    1    2    0    0  0.15741655373E+02  0.12249304560E+02 -0.15819326640E+02  0.25457735002E+02  0.00000000000E+00 0. -1.
         11    1    1    2    0    0 -0.48558611819E+02  0.16818551339E+02  0.11316696827E+03  0.12428823419E+03  0.00000000000E+00 0.  1.
</event>
<event>
 7    1  0.2384639E-009  0.1415460E+03  0.7561462E-02  0.1211264E+00
          2   -1    0    0  501    0  0.00000000000E+00  0.00000000000E+00  0.50580261726E+03  0.50580261726E+03  0.00000000000E+00 0. -1.
         -2   -1    0    0    0  501 -0.00000000000E+00 -0.00000000000E+00 -0.58738213792E+02  0.58738213792E+02  0.00000000000E+00 0.  1.
         25    2    1    2    0    0 -0.51444649191E+02 -0.12331244999E+03  0.23675779683E+03  0.29925521816E+03  0.12508764520E+03 0.  0.
          5    1    3    3  502    0 -0.36158640913E+02 -0.10278401438E+03  0.24805892003E+03  0.27096623615E+03  0.41800000000E+01 0.  1.
         -5    1    3    3    0  502 -0.15286008278E+02 -0.20528435611E+02 -0.11301123201E+02  0.28288982013E+02  0.41800000000E+01 0.  1.
        -11    1    1    2    0    0  0.65238642922E+02  0.83363918831E+02  0.19195872466E+03  0.21921171380E+03  0.00000000000E+00 0.  1.
         11    1    1    2    0    0 -0.13793993731E+02  0.39948531160E+02  0.18347881980E+02  0.46073899097E+02  0.00000000000E+00 0. -1.
</event>
<event>
 7    1  0.2384639E-009  0.8142211E+02  0.7561462E-02  0.1325063E+00
          1   -1    0    0  501    0  0.00000000000E+00  0.00000000000E+00  0.27818048346E+02  0.27818048346E+02  0.00000000000E+00 0. -1.
         -1   -1    0    0    0  501 -0.00000000000E+00 -0.00000000000E+00 -0.74924855673E+03  0.74924855673E+03  0.00000000000E+00 0.  1.
         25    2    1    2    0    0 -0.36602266050E+01  0.27779784600E+02 -0.63622182056E+03  0.64900757725E+03  0.12509003429E+03 0.  0.
          5    1    3    3  502    0 -0.22779141999E+02  0.62031474908E+02 -0.19317212568E+03  0.20420513149E+03  0.41800000000E+01 0. -1.
         -5    1    3    3    0  502  0.19118915394E+02 -0.34251690308E+02 -0.44304969488E+03  0.44480244576E+03  0.41800000000E+01 0. -1.
        -11    1    1    2    0    0  0.75197952029E+01  0.13643847003E+02  0.13706973030E+02  0.20750493743E+02  0.00000000000E+00 0. -1.
         11    1    1    2    0    0 -0.38595685979E+01 -0.41423631603E+02 -0.98915660852E+02  0.10730853408E+03  0.00000000000E+00 0.  1.
</event>
<event>
 7    1  0.2384639E-009  0.5356274E+02  0.7561462E-02  0.1427021E+00
         -1   -1    0    0    0  501 -0.00000000000E+00  0.00000000000E+00  0.11971910924E+03  0.11971910924E+03  0.00000000000E+00 0. -1.
          1   -1    0    0  501    0  0.00000000000E+00 -0.00000000000E+00 -0.11050165886E+03  0.11050165886E+03  0.00000000000E+00 0.  1.
         25    2    1    2    0    0 -0.38446837322E+02 -0.36031659403E+01 -0.12722583977E+02  0.13153153771E+03  0.12509012417E+03 0.  0.
          5    1    3    3  502    0 -0.29270388185E+02 -0.86522353363E-01  0.55282618522E+02  0.62692929595E+02  0.41800000000E+01 0. -1.
         -5    1    3    3    0  502 -0.91764491366E+01 -0.35166435870E+01 -0.68005202498E+02  0.68838608119E+02  0.41800000000E+01 0. -1.
        -11    1    1    2    0    0  0.52310455595E+02  0.65090692552E+01  0.46529428534E+02  0.70311730649E+02  0.00000000000E+00 0. -1.
         11    1    1    2    0    0 -0.13863618273E+02 -0.29059033149E+01 -0.24589394177E+02  0.28377499744E+02  0.00000000000E+00 0.  1.
</event>
<event>
 7    1  0.2384639E-009  0.1803723E+03  0.7561462E-02  0.1167443E+00
         -1   -1    0    0    0  501 -0.00000000000E+00  0.00000000000E+00  0.16517883839E+04  0.16517883839E+04  0.00000000000E+00 0.  1.
          1   -1    0    0  501    0  0.00000000000E+00 -0.00000000000E+00 -0.21060992372E+02  0.21060992372E+02  0.00000000000E+00 0. -1.
         25    2    1    2    0    0  0.85079512009E+02  0.12115233844E+03  0.10242349470E+04  0.10424112517E+04  0.12509028221E+03 0.  0.
          5    1    3    3  502    0  0.32262780069E+02 -0.21864040620E+02  0.27805990367E+03  0.28080901994E+03  0.41800000000E+01 0. -1.
         -5    1    3    3    0  502  0.52816731940E+02  0.14301637906E+03  0.74617504329E+03  0.76160223180E+03  0.41800000000E+01 0. -1.
        -11    1    1    2    0    0 -0.60838287293E+02 -0.18546613903E+02  0.17337026709E+03  0.18466868603E+03  0.00000000000E+00 0. -1.
         11    1    1    2    0    0 -0.24241224716E+02 -0.10260572454E+03  0.43312217748E+03  0.44576943851E+03  0.00000000000E+00 0.  1.
</event>
<event>
 7    1  0.2384639E-009  0.1559916E+03  0.7561462E-02  0.1193298E+00
          1   -1    0    0  501    0  0.00000000000E+00  0.00000000000E+00  0.26031077879E+03  0.26031077879E+03  0.00000000000E+00 0. -1.
         -1   -1    0    0    0  501 -0.00000000000E+00 -0.00000000000E+00 -0.15520999433E+03  0.15520999433E+03  0.00000000000E+00 0.  1.
         25    2    1    2    0    0  0.39137679845E+01  0.14927168662E+03 -0.27158564972E+02  0.19667839301E+03  0.12508976225E+03 0.  0.
          5    1    3    3  502    0 -0.48622073838E+01  0.12034621355E+03  0.36635021462E+02  0.12596209499E+03  0.41800000000E+01 0. -1.
         -5    1    3    3    0  502  0.87759753683E+01  0.28925473076E+02 -0.63793586434E+02  0.70716298025E+02  0.41800000000E+01 0. -1.
        -11    1    1    2    0    0 -0.26744665744E+02 -0.33086182550E+02  0.77448406606E+02  0.88364180001E+02  0.00000000000E+00 0. -1.
         11    1    1    2    0    0  0.22830897759E+02 -0.11618550407E+03  0.54810942831E+02  0.13047820011E+03  0.00000000000E+00 0.  1.
</event>
<event>
 7    1  0.2384639E-009  0.1063511E+03  0.7561462E-02  0.1267480E+00
          1   -1    0    0  501    0  0.00000000000E+00  0.00000000000E+00  0.63359848373E+02  0.63359848373E+02  0.00000000000E+00 0. -1.
         -1   -1    0    0    0  501 -0.00000000000E+00 -0.00000000000E+00 -0.20711194932E+03  0.20711194932E+03  0.00000000000E+00 0.  1.
         25    2    1    2    0    0 -0.81050266199E+01  0.28177725779E+02 -0.10143562501E+03  0.16369597474E+03  0.12509000935E+03 0.  0.
          5    1    3    3  502    0  0.39747297269E+02  0.50769617025E+02 -0.22195300608E+02  0.68319143892E+02  0.41800000000E+01 0.  1.
         -5    1    3    3    0  502 -0.47852323889E+02 -0.22591891246E+02 -0.79240324405E+02  0.95376830853E+02  0.41800000000E+01 0.  1.
        -11    1    1    2    0    0 -0.41276227273E+02 -0.14750973192E+02 -0.32747307565E+02  0.54714753958E+02  0.00000000000E+00 0.  1.
         11    1    1    2    0    0  0.49381253892E+02 -0.13426752587E+02 -0.95691683682E+01  0.52061068989E+02  0.00000000000E+00 0. -1.
</event>
<event>
 7    1  0.2384639E-009  0.1461694E+03  0.7561462E-02  0.1205261E+00
         -2   -1    0    0    0  501 -0.00000000000E+00  0.00000000000E+00  0.46024152372E+02  0.46024152372E+02  0.00000000000E+00 0.  1.
          2   -1    0    0  501    0  0.00000000000E+00 -0.00000000000E+00 -0.55567630800E+03  0.55567630800E+03  0.00000000000E+00 0. -1.
         25    2    1    2    0    0  0.21144295187E+02  0.11359860831E+03 -0.30832781287E+03  0.35222702481E+03  0.12508441866E+03 0.  0.
          5    1    3    3  502    0 -0.46553414339E+02  0.84326205825E+02 -0.17438464180E+03  0.19926265348E+03  0.41800000000E+01 0.  1.
         -5    1    3    3    0  502  0.67697709526E+02  0.29272402488E+02 -0.13394317107E+03  0.15296437134E+03  0.41800000000E+01 0.  1.
        -11    1    1    2    0    0  0.75449933782E+01 -0.66330005278E+02 -0.37499659228E+02  0.76569060119E+02  0.00000000000E+00 0.  1.
         11    1    1    2    0    0 -0.28689288565E+02 -0.47268603036E+02 -0.16382468353E+03  0.17290437543E+03  0.00000000000E+00 0. -1.
</event>
<event>
 7    1  0.2384639E-009  0.1211623E+03  0.7561462E-02  0.1241192E+00
         -2   -1    0    0    0  501 -0.00000000000E+00  0.00000000000E+00  0.33709405029E+02  0.33709405029E+02  0.00000000000E+00 0.  1.
          2   -1    0    0  501    0  0.00000000000E+00 -0.00000000000E+00 -0.60376252307E+03  0.60376252307E+03  0.00000000000E+00 0. -1.
         25    2    1    2    0    0  0.57103408688E+02 -0.39815367839E+02 -0.44546561506E+03  0.46790235905E+03  0.12508773163E+03 0.  0.
          5    1    3    3  502    0  0.62102879889E+01 -0.75740815086E+02 -0.30193598095E+03  0.31138087247E+03  0.41800000000E+01 0. -1.
         -5    1    3    3    0  502  0.50893120700E+02  0.35925447247E+02 -0.14352963411E+03  0.15652148658E+03  0.41800000000E+01 0. -1.
        -11    1    1    2    0    0 -0.72936809486E+02  0.46600853179E+02 -0.66983407894E+02  0.10944493880E+03  0.00000000000E+00 0.  1.
         11    1    1    2    0    0  0.15833400798E+02 -0.67854853401E+01 -0.57604095091E+02  0.60124630256E+02  0.00000000000E+00 0. -1.
</event>
<event>
 7    1  0.2384639E-009  0.1057730E+03  0.7561462E-02  0.1268604E+00
         -3   -1    0    0    0  501 -0.00000000000E+00  0.00000000000E+00  0.56427921473E+02  0.56427921473E+02  0.00000000000E+00 0.  1.
          3   -1    0    0  501    0  0.00000000000E+00 -0.00000000000E+00 -0.28577910747E+03  0.28577910747E+03  0.00000000000E+00 0. -1.
         25    2    1    2    0    0 -0.19758751422E+02 -0.18207076085E+02 -0.46922955465E+02  0.13627378313E+03  0.12508746677E+03 0.  0.
          5    1    3    3  502    0 -0.10882950938E+02  0.53911511136E+02 -0.20302775031E+02  0.58775545323E+02  0.41800000000E+01 0.  1.
         -5    1    3    3    0  502 -0.88758004839E+01 -0.72118587220E+02 -0.26620180434E+02  0.77498237807E+02  0.41800000000E+01 0.  1.
        -11    1    1    2    0    0 -0.28002889445E+02  0.22117628167E+02 -0.31563525758E+02  0.47640397262E+02  0.00000000000E+00 0.  1.
         11    1    1    2    0    0  0.47761640866E+02 -0.39105520819E+01 -0.15086470477E+03  0.15829284855E+03  0.00000000000E+00 0. -1.
</event>
<event>
 7    1  0.2384639E-009  0.1319076E+03  0.7561462E-02  0.1224652E+00
         -2   -1    0    0    0  501 -0.00000000000E+00  0.00000000000E+00  0.18667445485E+03  0.18667445485E+03  0.00000000000E+00 0. -1.
          2   -1    0    0  501    0  0.00000000000E+00 -0.00000000000E+00 -0.18171255795E+03  0.18171255795E+03  0.00000000000E+00 0.  1.
         25    2    1    2    0    0  0.77625066311E+02  0.47664125432E+02 -0.11454189382E+03  0.19252394880E+03  0.12509238845E+03 0.  0.
          5    1    3    3  502    0  0.10451736909E+03  0.18151614335E+02 -0.52022708625E+02  0.11822519257E+03  0.41800000000E+01 0. -1.
         -5    1    3    3    0  502 -0.26892302782E+02  0.29512511096E+02 -0.62519185196E+02  0.74298756232E+02  0.41800000000E+01 0. -1.
        -11    1    1    2    0    0 -0.31632605318E+02 -0.61770112064E+02  0.32916395252E+02  0.76809228222E+02  0.00000000000E+00 0. -1.
         11    1    1    2    0    0 -0.45992460993E+02  0.14105986633E+02  0.86587395470E+02  0.99053835773E+02  0.00000000000E+00 0.  1.
</event>
<event>
 7    1  0.2384639E-009  0.1049486E+03  0.7561462E-02  0.1270221E+00
         -2   -1    0    0    0  501 -0.00000000000E+00  0.00000000000E+00  0.19070546442E+02  0.19070546442E+02  0.00000000000E+00 0. -1.
          2   -1    0    0  501    0  0.00000000000E+00 -0.00000000000E+00 -0.20690895612E+04  0.20690895612E+04  0.00000000000E+00 0.  1.
         25    2    1    2    0    0 -0.65706575208E+02  0.32845652225E+02 -0.18553938156E+04  0.18610559579E+04  0.12508747584E+03 0.  0.
          5    1    3    3  502    0 -0.87160620971E+02  0.54999473646E+02 -0.10483049215E+04  0.10533672659E+04  0.41800000000E+01 0.  1.
         -5    1    3    3    0  502  0.21454045763E+02 -0.22153821421E+02 -0.80708889409E+03  0.80768869204E+03  0.41800000000E+01 0.  1.
        -11    1    1    2    0    0  0.26887794823E+02 -0.23477486461E+02 -0.18163800474E+03  0.18511215694E+03  0.00000000000E+00 0.  1.
         11    1    1    2    0    0  0.38818780385E+02 -0.93681657636E+01 -0.12987194427E+02  0.41991992801E+02  0.00000000000E+00 0. -1.
</event>
<event>
 7    1  0.2384639E-009  0.1506434E+03  0.7561462E-02  0.1199685E+00
         -2   -1    0    0    0  501 -0.00000000000E+00  0.00000000000E+00  0.22517990752E+03  0.22517990752E+03  0.00000000000E+00 0.  1.
          2   -1    0    0  501    0  0.00000000000E+00 -0.00000000000E+00 -0.13840527541E+03  0.13840527541E+03  0.00000000000E+00 0. -1.
         25    2    1    2    0    0 -0.79102222753E+02 -0.11398955024E+03  0.42457142017E+02  0.19157550891E+03  0.12509111678E+03 0.  0.
          5    1    3    3  502    0 -0.57307255379E+01  0.29565591453E+01  0.52529228712E+02  0.53088367147E+02  0.41800000000E+01 0. -1.
         -5    1    3    3    0  502 -0.73371497215E+02 -0.11694610939E+03 -0.10072086695E+02  0.13848714177E+03  0.41800000000E+01 0. -1.
        -11    1    1    2    0    0  0.19488283972E+02  0.88545545040E+02 -0.46366400445E+01  0.90783286950E+02  0.00000000000E+00 0.  1.
         11    1    1    2    0    0  0.59613938781E+02  0.25444005202E+02  0.48954130144E+02  0.81226387067E+02  0.00000000000E+00 0. -1.
</event>
<event>
 7    1  0.2384639E-009  0.1039055E+03  0.7561462E-02  0.1272291E+00
         -2   -1    0    0    0  501 -0.00000000000E+00  0.00000000000E+00  0.13012681832E+03  0.13012681832E+03  0.00000000000E+00 0.  1.
          2   -1    0    0  501    0  0.00000000000E+00 -0.00000000000E+00 -0.34670166421E+03  0.34670166421E+03  0.00000000000E+00 0. -1.
         25    2    1    2    0    0 -0.51698862595E+02  0.36496389951E+02 -0.30412737277E+03  0.33488195058E+03  0.12509077938E+03 0.  0.
          5    1    3    3  502    0  0.19845826249E+02 -0.19947103251E+02 -0.15956283142E+02  0.32616240116E+02  0.41800000000E+01 0. -1.
         -5    1    3    3    0  502 -0.71544688844E+02  0.56443493202E+02 -0.28817108963E+03  0.30226571047E+03  0.41800000000E+01 0. -1.
        -11    1    1    2    0    0  0.18152038392E+02  0.17081686199E+02 -0.90345209638E+01  0.26512319216E+02  0.00000000000E+00 0. -1.
         11    1    1    2    0    0  0.33546824203E+02 -0.53578076150E+02  0.96587047842E+02  0.11543421273E+03  0.00000000000E+00 0.  1.
</event>
<event>
 7    1  0.2384639E-009  0.9321998E+02  0.7561462E-02  0.1295236E+00
         -1   -1    0    0    0  501 -0.00000000000E+00  0.00000000000E+00  0.38673795101E+02  0.38673795101E+02  0.00000000000E+00 0.  1.
          1   -1    0    0  501    0  0.00000000000E+00 -0.00000000000E+00 -0.44081360680E+03  0.44081360680E+03  0.00000000000E+00 0. -1.
         25    2    1    2    0    0 -0.31332815420E+02 -0.32569716489E+02 -0.25692697825E+03  0.28931344109E+03  0.12509301856E+03 0.  0.
          5    1    3    3  502    0  0.93127155033E+01  0.16367199622E+02  0.48462174278E+01  0.19888944589E+02  0.41800000000E+01 0.  1.
         -5    1    3    3    0  502 -0.40645530923E+02 -0.48936916111E+02 -0.26177319567E+03  0.26942449650E+03  0.41800000000E+01 0.  1.
        -11    1    1    2    0    0  0.18504562293E+02  0.65496701010E+02 -0.13833759828E+03  0.15417369350E+03  0.00000000000E+00 0. -1.
         11    1    1    2    0    0  0.12828253127E+02 -0.32926984521E+02 -0.68752351749E+01  0.36000267314E+02  0.00000000000E+00 0.  1.
</event>
<event>
 7    1  0.2384639E-009  0.1235032E+03  0.7561462E-02  0.1237427E+00
          1   -1    0    0  501    0  0.00000000000E+00  0.00000000000E+00  0.47093410538E+03  0.47093410538E+03  0.00000000000E+00 0. -1.
         -1   -1    0    0    0  501 -0.00000000000E+00 -0.00000000000E+00 -0.46842404828E+02  0.46842404828E+02  0.00000000000E+00 0.  1.
         25    2    1    2    0    0 -0.51831872189E+02 -0.78368496981E+02  0.29338544718E+03  0.33249175419E+03  0.12509029416E+03 0.  0.
          5    1    3    3  502    0 -0.17709649592E+02  0.24827367140E+02  0.16320155581E+02  0.34840346238E+02  0.41800000000E+01 0.  1.
         -5    1    3    3    0  502 -0.34122222597E+02 -0.10319586412E+03  0.27706529160E+03  0.29765140795E+03  0.41800000000E+01 0.  1.
        -11    1    1    2    0    0  0.61818905164E+02  0.57996783173E+02  0.13756396592E+03  0.16158294654E+03  0.00000000000E+00 0. -1.
         11    1    1    2    0    0 -0.99870329747E+01  0.20371713808E+02 -0.68577125451E+01  0.23701809477E+02  0.00000000000E+00 0.  1.
</event>
<event>
 7    1  0.2384639E-009  0.1127096E+03  0.7561462E-02  0.1255633E+00
         -1   -1    0    0    0  501 -0.00000000000E+00  0.00000000000E+00  0.40329390929E+02  0.40329390929E+02  0.00000000000E+00 0.  1.
          1   -1    0    0  501    0  0.00000000000E+00 -0.00000000000E+00 -0.36326919162E+03  0.36326919162E+03  0.00000000000E+00 0. -1.
         25    2    1    2    0    0 -0.33699008262E+01  0.49466223664E+02 -0.14354477709E+03  0.19675120293E+03  0.12509064436E+03 0.  0.
          5    1    3    3  502    0 -0.88934882002E+01  0.87633163971E+02 -0.66342298966E+02  0.11035143222E+03  0.41800000000E+01 0. -1.
         -5    1    3    3    0  502  0.55235873739E+01 -0.38166940307E+02 -0.77202478126E+02  0.86399770710E+02  0.41800000000E+01 0. -1.
        -11    1    1    2    0    0  0.42890832016E+02 -0.13381524581E+02 -0.11276603935E+03  0.12138726581E+03  0.00000000000E+00 0.  1.
         11    1    1    2    0    0 -0.39520931190E+02 -0.36084699083E+02 -0.66628984248E+02  0.85460113807E+02  0.00000000000E+00 0. -1.
</event>
<event>
 7    1  0.2384639E-009  0.1261203E+03  0.7561462E-02  0.1233329E+00
          1   -1    0    0  501    0  0.00000000000E+00  0.00000000000E+00  0.11447718398E+03  0.11447718398E+03  0.00000000000E+00 0. -1.
         -1   -1    0    0    0  501 -0.00000000000E+00 -0.00000000000E+00 -0.18348844892E+03  0.18348844892E+03  0.00000000000E+00 0.  1.
         25    2    1    2    0    0 -0.80776238461E+02  0.76745419219E+01  0.15542813515E+02  0.14990880480E+03  0.12508945364E+03 0.  0.
          5    1    3    3  502    0 -0.93241265754E+02  0.36862528251E+02 -0.19733634369E+02  0.10227252003E+03  0.41800000000E+01 0. -1.
         -5    1    3    3    0  502  0.12465027293E+02 -0.29187986329E+02  0.35276447884E+02  0.47636284770E+02  0.41800000000E+01 0. -1.
        -11    1    1    2    0    0  0.14352165781E+02 -0.42514033852E+02 -0.20124293730E+02  0.49177382353E+02  0.00000000000E+00 0.  1.
         11    1    1    2    0    0  0.66424072680E+02  0.34839491930E+02 -0.64429784724E+02  0.98879445735E+02  0.00000000000E+00 0. -1.
</event>
<event>
 7    1  0.2384639E-009  0.1454312E+03  0.7561462E-02  0.1206202E+00
          3   -1    0    0  501    0  0.00000000000E+00  0.00000000000E+00  0.59697771549E+03  0.59697771549E+03  0.00000000000E+00 0. -1.
         -3   -1    0    0    0  501 -0.00000000000E+00 -0.00000000000E+00 -0.47788761772E+02  0.47788761772E+02  0.00000000000E+00 0.  1.
         25    2    1    2    0    0  0.93342606793E+02  0.39662669074E+02  0.15614944526E+03  0.22431241118E+03  0.12508972377E+03 0.  0.
          5    1    3    3  502    0  0.10930034116E+03  0.58150872542E+01  0.15064727217E+03  0.18625910133E+03  0.41800000000E+01 0. -1.
         -5    1    3    3    0  502 -0.15957734371E+02  0.33847581820E+02  0.55021730883E+01  0.38053309843E+02  0.41800000000E+01 0. -1.
        -11    1    1    2    0    0 -0.11339835666E+03 -0.19182428989E+02  0.35262255356E+03  0.37090405518E+03  0.00000000000E+00 0. -1.
         11    1    1    2    0    0  0.20055749865E+02 -0.20480240085E+02  0.40416954904E+02  0.49550010901E+02  0.00000000000E+00 0.  1.
</event>
<event>
 7    1  0.2384639E-009  0.1059842E+03  0.7561462E-02  0.1268192E+00
          2   -1    0    0  501    0  0.00000000000E+00  0.00000000000E+00  0.26319033842E+03  0.26319033842E+03  0.00000000000E+00 0. -1.
         -2   -1    0    0    0  501 -0.00000000000E+00 -0.00000000000E+00 -0.52095147138E+02  0.52095147138E+02  0.00000000000E+00 0.  1.
         25    2    1    2    0    0 -0.31452823059E+01 -0.40213820998E+02  0.12524069596E+03  0.18155082658E+03  0.12509367093E+03 0.  0.
          5    1    3    3  502    0 -0.63695880054E+02 -0.24328750090E+02  0.58329234232E+02  0.89826639606E+02  0.41800000000E+01 0.  1.
         -5    1    3    3    0  502  0.60550597748E+02 -0.15885070908E+02  0.66911461733E+02  0.91724186977E+02  0.41800000000E+01 0.  1.
        -11    1    1    2    0    0  0.14507196471E+02  0.58013935340E+02  0.93742487370E+02  0.11119230810E+03  0.00000000000E+00 0. -1.
         11    1    1    2    0    0 -0.11361914165E+02 -0.17800114342E+02 -0.78879920548E+01  0.22542350870E+02  0.00000000000E+00 0.  1.
</event>
<event>
 7    1  0.2384639E-009  0.1403587E+03  0.7561462E-02  0.1212847E+00
          2   -1    0    0  501    0  0.00000000000E+00  0.00000000000E+00  0.12042127333E+04  0.12042127333E+04  0.00000000000E+00 0. -1.
         -2   -1    0    0    0  501 -0.00000000000E+00 -0.00000000000E+00 -0.18156459211E+02  0.18156459211E+02  0.00000000000E+00 0.  1.
         25    2    1    2    0    0  0.55932362410E+02 -0.62924980622E+02  0.63910153468E+03  0.65664755164E+03  0.12508898071E+03 0.  0.
          5    1    3    3  502    0  0.45930866901E+02 -0.97353784712E+02  0.55111953679E+03  0.56154930341E+03  0.41800000000E+01 0. -1.
         -5    1    3    3    0  502  0.10001495510E+02  0.34428804090E+02  0.87981997890E+02  0.95098248229E+02  0.41800000000E+01 0. -1.
        -11    1    1    2    0    0 -0.93316242305E-01 -0.29183752819E+02  0.56655656642E+02  0.63730397504E+02  0.00000000000E+00 0.  1.
         11    1    1    2    0    0 -0.55839046168E+02  0.92108733441E+02  0.49029908279E+03  0.50199124339E+03  0.00000000000E+00 0. -1.
</event>
<event>
 7    1  0.2384639E-009  0.1187919E+03  0.7561462E-02  0.1245103E+00
          3   -1    0    0  501    0  0.00000000000E+00  0.00000000000E+00  0.45501722264E+02  0.45501722264E+02  0.00000000000E+00 0. -1.
         -3   -1    0    0    0  501 -0.00000000000E+00 -0.00000000000E+00 -0.61041168276E+03  0.61041168276E+03  0.00000000000E+00 0.  1.
         25    2    1    2    0    0 -0.66093582948E+02 -0.75960220341E+02 -0.12719687251E+03  0.20485276846E+03  0.12508915055E+03 0.  0.
          5    1    3    3  502    0  0.55153840426E+01 -0.63010996883E+02 -0.11448416624E+03  0.13086214849E+03  0.41800000000E+01 0. -1.
         -5    1    3    3    0  502 -0.71608966991E+02 -0.12949223458E+02 -0.12712706275E+02  0.73990619963E+02  0.41800000000E+01 0. -1.
        -11    1    1    2    0    0  0.10724443166E+02  0.19313936584E+02 -0.41569153092E+02  0.47074794916E+02  0.00000000000E+00 0.  1.
         11    1    1    2    0    0  0.55369139782E+02  0.56646283757E+02 -0.39614393489E+03  0.40398584165E+03  0.00000000000E+00 0. -1.
</event>
<event>
 7    1  0.2384639E-009  0.7892630E+02  0.7561462E-02  0.1332126E+00
         -2   -1    0    0    0  501 -0.00000000000E+00  0.00000000000E+00  0.90729080795E+03  0.90729080795E+03  0.00000000000E+00 0. -1.
          2   -1    0    0  501    0  0.00000000000E+00 -0.00000000000E+00 -0.25296719623E+02  0.25296719623E+02  0.00000000000E+00 0.  1.
         25    2    1    2    0    0 -0.64166694639E+01 -0.69124342436E+02  0.72393117774E+03  0.73793137278E+03  0.12508801885E+03 0.  0.
          5    1    3    3  502    0 -0.12086720796E+02 -0.10000254359E+01  0.56156945556E+03  0.56171595552E+03  0.41800000000E+01 0.  1.
         -5    1    3    3    0  502  0.56700513321E+01 -0.68124317000E+02  0.16236172219E+03  0.17621541726E+03  0.41800000000E+01 0.  1.
        -11    1    1    2    0    0  0.19586231763E+02  0.38315654207E+02  0.15516986350E+03  0.16102607358E+03  0.00000000000E+00 0. -1.
         11    1    1    2    0    0 -0.13169562299E+02  0.30808688230E+02  0.28930470854E+01  0.33630081222E+02  0.00000000000E+00 0.  1.
</event>
<event>
 7    1  0.2384639E-009  0.7572894E+02  0.7561462E-02  0.1341628E+00
         -2   -1    0    0    0  501 -0.00000000000E+00  0.00000000000E+00  0.49420615966E+02  0.49420615966E+02  0.00000000000E+00 0. -1.
          2   -1    0    0  501    0  0.00000000000E+00 -0.00000000000E+00 -0.29114150715E+03  0.29114150715E+03  0.00000000000E+00 0.  1.
         25    2    1    2    0    0  0.40719871651E+02  0.17197554599E+02 -0.95927852705E+02  0.16372100557E+03  0.12509416816E+03 0.  0.
          5    1    3    3  502    0 -0.25983168735E+02 -0.13832906857E+02  0.12805618099E+02  0.32371756587E+02  0.41800000000E+01 0.  1.
         -5    1    3    3    0  502  0.66703040386E+02  0.31030461456E+02 -0.10873347080E+03  0.13134924898E+03  0.41800000000E+01 0.  1.
        -11    1    1    2    0    0 -0.17722043654E+02 -0.17686179758E+02 -0.15116065140E+03  0.15322014984E+03  0.00000000000E+00 0.  1.
         11    1    1    2    0    0 -0.22997827998E+02  0.48862515880E+00  0.53676129161E+01  0.23620967710E+02  0.00000000000E+00 0. -1.
</event>
<event>
 7    1  0.2384639E-009  0.1128603E+03  0.7561462E-02  0.1255363E+00
         -2   -1    0    0    0  501 -0.00000000000E+00  0.00000000000E+00  0.27813873757E+03  0.27813873757E+03  0.00000000000E+00 0.  1.
          2   -1    0    0  501    0  0.00000000000E+00 -0.00000000000E+00 -0.63420834294E+02  0.63420834294E+02  0.00000000000E+00 0. -1.
         25    2    1    2    0    0 -0.41203024470E+02  0.36301405142E+02  0.50430550150E+02  0.14562247674E+03  0.12508870493E+03 0.  0.
          5    1    3    3  502    0  0.22714297622E+02  0.61987206562E+02  0.35268214219E+02  0.74964474439E+02  0.41800000000E+01 0. -1.
         -5    1    3    3    0  502 -0.63917322091E+02 -0.25685801419E+02  0.15162335930E+02  0.70658002298E+02  0.41800000000E+01 0. -1.
        -11    1    1    2    0    0  0.15582694757E+02 -0.56071980507E+02  0.48638810589E+02  0.75846036610E+02  0.00000000000E+00 0. -1.
         11    1    1    2    0    0  0.25620329713E+02  0.19770575365E+02  0.11564854254E+03  0.12009105852E+03  0.00000000000E+00 0.  1.
</event>
<event>
 7    1  0.2384639E-009  0.1285302E+03  0.7561462E-02  0.1229653E+00
          2   -1    0    0  501    0  0.00000000000E+00  0.00000000000E+00  0.92620933893E+02  0.92620933893E+02  0.00000000000E+00 0.  1.
         -2   -1    0    0    0  501 -0.00000000000E+00 -0.00000000000E+00 -0.25387710213E+03  0.25387710213E+03  0.00000000000E+00 0. -1.
         25    2    1    2    0    0  0.55268296263E+02  0.29849386524E+02  0.72984673336E+01  0.14016356489E+03  0.12508791648E+03 0.  0.
          5    1    3    3  502    0  0.77971778509E+02 -0.23202643163E+02 -0.24295112039E+01  0.81494391330E+02  0.41800000000E+01 0. -1.
         -5    1    3    3    0  502 -0.22703482246E+02  0.53052029687E+02  0.97279785375E+01  0.58669173562E+02  0.41800000000E+01 0. -1.
        -11    1    1    2    0    0 -0.53431124997E+02  0.27687606515E+02 -0.10110230005E+03  0.11765697493E+03  0.00000000000E+00 0. -1.
         11    1    1    2    0    0 -0.18371712659E+01 -0.57536993039E+02 -0.67452335516E+02  0.88677496202E+02  0.00000000000E+00 0.  1.
</event>
<event>
 7    1  0.2384639E-009  0.7733125E+02  0.7561462E-02  0.1336800E+00
          2   -1    0    0  501    0  0.00000000000E+00  0.00000000000E+00  0.12596479017E+04  0.12596479017E+04  0.00000000000E+00 0. -1.
         -2   -1    0    0    0  501 -0.00000000000E+00 -0.00000000000E+00 -0.66051963428E+01  0.66051963428E+01  0.00000000000E+00 0.  1.
         25    2    1    2    0    0 -0.20178776085E+02  0.15047375153E+02  0.10503103582E+04  0.10580316651E+04  0.12508216953E+03 0.  0.
          5    1    3    3  502    0 -0.31350399829E+02 -0.40247535969E+02  0.78948999216E+03  0.79114766753E+03  0.41800000000E+01 0.  1.
         -5    1    3    3    0  502  0.11171623744E+02  0.55294911122E+02  0.26082036607E+03  0.26688399752E+03  0.41800000000E+01 0.  1.
        -11    1    1    2    0    0 -0.11085410504E+02  0.20511316121E+01  0.36009803478E+02  0.37733266668E+02  0.00000000000E+00 0. -1.
         11    1    1    2    0    0  0.31264186589E+02 -0.17098506765E+02  0.16672254365E+03  0.17048816633E+03  0.00000000000E+00 0.  1.
</event>
<event>
 7    1  0.2384639E-009  0.1431446E+03  0.7561462E-02  0.1209159E+00
         -1   -1    0    0    0  501 -0.00000000000E+00  0.00000000000E+00  0.85641146907E+02  0.85641146907E+02  0.00000000000E+00 0.  1.
          1   -1    0    0  501    0  0.00000000000E+00 -0.00000000000E+00 -0.31440358662E+03  0.31440358662E+03  0.00000000000E+00 0. -1.
         25    2    1    2    0    0 -0.82711712702E+02 -0.79663736888E+02 -0.68408755278E+02  0.18307005652E+03  0.12508936567E+03 0.  0.
          5    1    3    3  502    0 -0.11525795727E+03 -0.65234316035E+02 -0.63348158374E+02  0.14686856121E+03  0.41800000000E+01 0. -1.
         -5    1    3    3    0  502  0.32546244570E+02 -0.14429420852E+02 -0.50605969038E+01  0.36201495312E+02  0.41800000000E+01 0. -1.
        -11    1    1    2    0    0  0.40891443367E+02  0.21208373950E+02 -0.56748861557E+01  0.46412386268E+02  0.00000000000E+00 0.  1.
         11    1    1    2    0    0  0.41820269335E+02  0.58455362938E+02 -0.15467879828E+03  0.17056229074E+03  0.00000000000E+00 0. -1.
</event>
<event>
 7    1  0.2384639E-009  0.8309119E+02  0.7561462E-02  0.1320501E+00
         -4   -1    0    0    0  501 -0.00000000000E+00  0.00000000000E+00  0.29188797948E+03  0.29188797948E+03  0.00000000000E+00 0.  1.
          4   -1    0    0  501    0  0.00000000000E+00 -0.00000000000E+00 -0.43241190960E+02  0.43241190960E+02  0.00000000000E+00 0. -1.
         25    2    1    2    0    0 -0.46196314370E+00  0.11519375348E+02  0.10243253136E+03  0.16209039351E+03  0.12509181735E+03 0.  0.
          5    1    3    3  502    0  0.37801152589E+02 -0.88954031610E+01  0.11101342821E+03  0.11768393679E+03  0.41800000000E+01 0. -1.
         -5    1    3    3    0  502 -0.38263115733E+02  0.20414778509E+02 -0.85808968525E+01  0.44406456715E+02  0.41800000000E+01 0. -1.
        -11    1    1    2    0    0  0.35533302677E+02 -0.27580219228E+02  0.11477882440E+03  0.12327798921E+03  0.00000000000E+00 0.  1.
         11    1    1    2    0    0 -0.35071339533E+02  0.16060843879E+02  0.31435432757E+02  0.49760787729E+02  0.00000000000E+00 0. -1.
</event>
<event>
 7    1  0.2384639E-009  0.1864302E+03  0.7561462E-02  0.1161721E+00
          1   -1    0    0  501    0  0.00000000000E+00  0.00000000000E+00  0.33683321398E+03  0.33683321398E+03  0.00000000000E+00 0. -1.
         -1   -1    0    0    0  501 -0.00000000000E+00 -0.00000000000E+00 -0.14631436154E+03  0.14631436154E+03  0.00000000000E+00 0.  1.
         25    2    1    2    0    0  0.77144851238E+02  0.14064438512E+03 -0.18152094249E+02  0.20423900595E+03  0.12510756127E+03 0.  0.
          5    1    3    3  502    0 -0.49392898604E+01 -0.20860071960E+02  0.18725809025E+01  0.21920724115E+02  0.41800000000E+01 0.  1.
         -5    1    3    3    0  502  0.82084141098E+02  0.16150445708E+03 -0.20024675152E+02  0.18231828183E+03  0.41800000000E+01 0.  1.
        -11    1    1    2    0    0 -0.12669045867E+02 -0.80958392373E+02  0.45861043862E+02  0.93904213766E+02  0.00000000000E+00 0.  1.
         11    1    1    2    0    0 -0.64475805371E+02 -0.59685992743E+02  0.16280990283E+03  0.18500435581E+03  0.00000000000E+00 0. -1.
</event>
<event>
 7    1  0.2384639E-009  0.3224594E+03  0.7561462E-02  0.1074523E+00
          1   -1    0    0  501    0  0.00000000000E+00  0.00000000000E+00  0.86050232127E+02  0.86050232127E+02  0.00000000000E+00 0.  1.
         -1   -1    0    0    0  501 -0.00000000000E+00 -0.00000000000E+00 -0.15244418634E+04  0.15244418634E+04  0.00000000000E+00 0. -1.
         25    2    1    2    0    0 -0.23275984183E+03  0.20075946889E+03 -0.37886016822E+03  0.50364873990E+03  0.12508204435E+03 0.  0.
          5    1    3    3  502    0 -0.24139672636E+03  0.16522388755E+03 -0.35394297908E+03  0.45919975757E+03  0.41800000000E+01 0.  1.
         -5    1    3    3    0  502  0.86368845211E+01  0.35535581343E+02 -0.24917189144E+02  0.44448982333E+02  0.41800000000E+01 0.  1.
        -11    1    1    2    0    0  0.19555049772E+03 -0.12766466119E+03 -0.85917777704E+03  0.89035089456E+03  0.00000000000E+00 0. -1.
         11    1    1    2    0    0  0.37209344113E+02 -0.73094807702E+02 -0.20035368604E+03  0.21649246110E+03  0.00000000000E+00 0.  1.
</event>
<event>
 7    1  0.2852510E-009  0.2848366E+03  0.7561462E-02  0.1093076E+00
         -1   -1    0    0    0  501 -0.00000000000E+00  0.00000000000E+00  0.95790970700E+02  0.95790970700E+02  0.00000000000E+00 0.  1.
          1   -1    0    0  501    0  0.00000000000E+00 -0.00000000000E+00 -0.94874953807E+03  0.94874953807E+03  0.00000000000E+00 0. -1.
         25    2    1    2    0    0  0.25770177656E+03 -0.11181809917E+03 -0.44108922882E+03  0.53770022138E+03  0.12509327460E+03 0.  0.
          5    1    3    3  502    0  0.56050670003E+02 -0.40580505589E+02 -0.32628884921E+02  0.76619655265E+02  0.41800000000E+01 0.  1.
         -5    1    3    3    0  502  0.20165110656E+03 -0.71237593578E+02 -0.40846034389E+03  0.46108056612E+03  0.41800000000E+01 0.  1.
        -11    1    1    2    0    0 -0.12769763864E+03  0.85843881082E+02 -0.15862038838E+03  0.22098933559E+03  0.00000000000E+00 0. -1.
         11    1    1    2    0    0 -0.13000413792E+03  0.25974218085E+02 -0.25324895018E+03  0.28585095181E+03  0.00000000000E+00 0.  1.
</event>
<event>
 7    1  0.2384639E-009  0.2145521E+03  0.7561462E-02  0.1138011E+00
          1   -1    0    0  501    0  0.00000000000E+00  0.00000000000E+00  0.39762268295E+03  0.39762268295E+03  0.00000000000E+00 0. -1.
         -1   -1    0    0    0  501 -0.00000000000E+00 -0.00000000000E+00 -0.16347045198E+03  0.16347045198E+03  0.00000000000E+00 0.  1.
         25    2    1    2    0    0  0.73557246152E+01 -0.19281401048E+03  0.25897321766E+03  0.34633274415E+03  0.12509153804E+03 0.  0.
          5    1    3    3  502    0  0.32801838433E+02 -0.12636939799E+02  0.94888180297E+02  0.10127631516E+03  0.41800000000E+01 0.  1.
         -5    1    3    3    0  502 -0.25446113818E+02 -0.18017707068E+03  0.16408503736E+03  0.24505642899E+03  0.41800000000E+01 0.  1.
        -11    1    1    2    0    0 -0.37597522045E+02  0.16918786049E+03 -0.30461199382E+02  0.17597156154E+03  0.00000000000E+00 0. -1.
         11    1    1    2    0    0  0.30241797429E+02  0.23626149983E+02  0.56402126984E+01  0.38788829243E+02  0.00000000000E+00 0.  1.
</event>
<event>
 7    1  0.2384639E-009  0.7294686E+02  0.7561462E-02  0.1350349E+00
         -1   -1    0    0    0  501 -0.00000000000E+00  0.00000000000E+00  0.57455249637E+02  0.57455249637E+02  0.00000000000E+00 0.  1.
          1   -1    0    0  501    0  0.00000000000E+00 -0.00000000000E+00 -0.22402727624E+03  0.22402727624E+03  0.00000000000E+00 0. -1.
         25    2    1    2    0    0  0.51177800377E+01  0.15775496157E+02 -0.13243244976E+03  0.18292246378E+03  0.12508883266E+03 0.  0.
          5    1    3    3  502    0  0.59954321104E+02  0.86189489138E+01 -0.33086313822E+02  0.69144656061E+02  0.41800000000E+01 0.  1.
         -5    1    3    3    0  502 -0.54836541067E+02  0.71565472433E+01 -0.99346135936E+02  0.11377780772E+03  0.41800000000E+01 0.  1.
        -11    1    1    2    0    0 -0.15143883321E+02 -0.10026581620E+02  0.29083793943E+02  0.34289015897E+02  0.00000000000E+00 0.  1.
         11    1    1    2    0    0  0.10026103283E+02 -0.57489145375E+01 -0.63223370792E+02  0.64271046201E+02  0.00000000000E+00 0. -1.
</event>
<event>
 7    1  0.2384639E-009  0.1653337E+03  0.7561462E-02  0.1182803E+00
          2   -1    0    0  501    0  0.00000000000E+00  0.00000000000E+00  0.55832630174E+03  0.55832630174E+03  0.00000000000E+00 0. -1.
         -2   -1    0    0    0  501 -0.00000000000E+00 -0.00000000000E+00 -0.51966074722E+02  0.51966074722E+02  0.00000000000E+00 0.  1.
         25    2    1    2    0    0  0.39781056555E+02  0.12079072197E+03  0.33190191985E+03  0.37680183414E+03  0.12509119407E+03 0.  0.
          5    1    3    3  502    0  0.78115960539E+02  0.38087190460E+02  0.15495998066E+03  0.17771551810E+03  0.41800000000E+01 0.  1.
         -5    1    3    3    0  502 -0.38334903984E+02  0.82703531509E+02  0.17694193919E+03  0.19908631603E+03  0.41800000000E+01 0.  1.
        -11    1    1    2    0    0 -0.65182115520E+02 -0.70177434263E+02  0.87570302984E+02  0.12977726468E+03  0.00000000000E+00 0.  1.
         11    1    1    2    0    0  0.25401058965E+02 -0.50613287706E+02  0.86888004184E+02  0.10371327765E+03  0.00000000000E+00 0. -1.
</event>
<event>
 7    1  0.2384639E-009  0.1293218E+03  0.7561462E-02  0.1228466E+00
         -1   -1    0    0    0  501 -0.00000000000E+00  0.00000000000E+00  0.19289885077E+03  0.19289885077E+03  0.00000000000E+00 0.  1.
          1   -1    0    0  501    0  0.00000000000E+00 -0.00000000000E+00 -0.91635376269E+02  0.91635376269E+02  0.00000000000E+00 0. -1.
         25    2    1    2    0    0  0.60812986813E+02  0.29787779128E+02  0.22911347803E+02  0.14407783479E+03  0.12509181216E+03 0.  0.
          5    1    3    3  502    0 -0.38733128718E+02  0.30673695396E+01  0.71041970665E+01  0.39719089014E+02  0.41800000000E+01 0.  1.
         -5    1    3    3    0  502  0.99546115531E+02  0.26720409588E+02  0.15807150736E+02  0.10435874578E+03  0.41800000000E+01 0.  1.
        -11    1    1    2    0    0 -0.80080850971E+02  0.10039007000E+01  0.57285665931E+02  0.98466227865E+02  0.00000000000E+00 0.  1.
         11    1    1    2    0    0  0.19267864158E+02 -0.30791679828E+02  0.21066460770E+02  0.41990164386E+02  0.00000000000E+00 0. -1.
</event>
<event>
 7    1  0.3254140E-009  0.2002729E+03  0.7561462E-02  0.1149509E+00
         -1   -1    0    0    0  501 -0.00000000000E+00  0.00000000000E+00  0.99776972719E+02  0.99776972719E+02  0.00000000000E+00 0.  1.
          1   -1    0    0  501    0  0.00000000000E+00 -0.00000000000E+00 -0.65956861501E+03  0.65956861501E+03  0.00000000000E+00 0. -1.
         25    2    1    2    0    0 -0.17573440807E+03  0.44217144356E+01 -0.63447731659E+02  0.22488293933E+03  0.12507832750E+03 0.  0.
          5    1    3    3  502    0 -0.71763147850E+02 -0.49856786223E+02 -0.62505929019E+02  0.10751796168E+03  0.41800000000E+01 0.  1.
         -5    1    3    3    0  502 -0.10397126022E+03  0.54278500659E+02 -0.94180263994E+00  0.11736497765E+03  0.41800000000E+01 0.  1.
        -11    1    1    2    0    0  0.10029611534E+03  0.40203216684E+02 -0.23112544015E+03  0.25513639190E+03  0.00000000000E+00 0. -1.
         11    1    1    2    0    0  0.75438292731E+02 -0.44624931120E+02 -0.26521847048E+03  0.27932625650E+03  0.00000000000E+00 0.  1.
</event>
<event>
 7    1  0.2384639E-009  0.1293269E+03  0.7561462E-02  0.1228458E+00
          2   -1    0    0  501    0  0.00000000000E+00  0.00000000000E+00  0.83103775323E+02  0.83103775323E+02  0.00000000000E+00 0. -1.
         -2   -1    0    0    0  501 -0.00000000000E+00 -0.00000000000E+00 -0.28350865187E+03  0.28350865187E+03  0.00000000000E+00 0.  1.
         25    2    1    2    0    0  0.54504972391E+02  0.78669799030E+02 -0.48472779674E+02  0.16479400349E+03  0.12509086267E+03 0.  0.
          5    1    3    3  502    0  0.86704966120E+02  0.26986668685E+02 -0.73575783143E+01  0.91201084397E+02  0.41800000000E+01 0. -1.
         -5    1    3    3    0  502 -0.32199993729E+02  0.51683130345E+02 -0.41115201360E+02  0.73592919097E+02  0.41800000000E+01 0. -1.
        -11    1    1    2    0    0 -0.50917551859E+02 -0.32502406496E+02 -0.22684489529E+02  0.64525883028E+02  0.00000000000E+00 0.  1.
         11    1    1    2    0    0 -0.35874205324E+01 -0.46167392535E+02 -0.12924760734E+03  0.13729254067E+03  0.00000000000E+00 0. -1.
</event>
<event>
 7    1  0.2384639E-009  0.9180418E+02  0.7561462E-02  0.1298541E+00
         -4   -1    0    0    0  501 -0.00000000000E+00  0.00000000000E+00  0.32896775116E+02  0.32896775116E+02  0.00000000000E+00 0.  1.
          4   -1    0    0  501    0  0.00000000000E+00 -0.00000000000E+00 -0.50026382862E+03  0.50026382862E+03  0.00000000000E+00 0. -1.
         25    2    1    2    0    0 -0.19841681993E+02 -0.14210435282E+02 -0.39109297598E+03  0.41133464283E+03  0.12508734438E+03 0.  0.
          5    1    3    3  502    0 -0.40606060196E+02 -0.39497134058E+02 -0.77899437257E+02  0.96408871212E+02  0.41800000000E+01 0.  1.
         -5    1    3    3    0  502  0.20764378203E+02  0.25286698776E+02 -0.31319353872E+03  0.31492577162E+03  0.41800000000E+01 0.  1.
        -11    1    1    2    0    0  0.44875632156E+02 -0.21858917642E+02 -0.50040227566E+02  0.70679976066E+02  0.00000000000E+00 0.  1.
         11    1    1    2    0    0 -0.25033950162E+02  0.36069352924E+02 -0.26233849967E+02  0.51145984839E+02  0.00000000000E+00 0. -1.
</event>
<event>
 7    1  0.2384639E-009  0.1292143E+03  0.7561462E-02  0.1228626E+00
         -3   -1    0    0    0  501 -0.00000000000E+00  0.00000000000E+00  0.10795343774E+03  0.10795343774E+03  0.00000000000E+00 0.  1.
          3   -1    0    0  501    0  0.00000000000E+00 -0.00000000000E+00 -0.18649494965E+03  0.18649494965E+03  0.00000000000E+00 0. -1.
         25    2    1    2    0    0 -0.68661590824E+02 -0.45398560554E+02 -0.43351626058E+02  0.15589243657E+03  0.12509054698E+03 0.  0.
          5    1    3    3  502    0  0.16161232929E+02 -0.60382056597E+02 -0.10047852380E+02  0.63447694570E+02  0.41800000000E+01 0.  1.
         -5    1    3    3    0  502 -0.84822823753E+02  0.14983496043E+02 -0.33303773677E+02  0.92444742004E+02  0.41800000000E+01 0.  1.
        -11    1    1    2    0    0  0.38485015016E+02  0.63575174212E+02 -0.59962031285E+02  0.95490022268E+02  0.00000000000E+00 0. -1.
         11    1    1    2    0    0  0.30176575808E+02 -0.18176613658E+02  0.24772145434E+02  0.43065928539E+02  0.00000000000E+00 0.  1.
</event>
<event>
 7    1  0.2384639E-009  0.1117227E+03  0.7561462E-02  0.1257413E+00
         -2   -1    0    0    0  501 -0.00000000000E+00  0.00000000000E+00  0.60225015734E+02  0.60225015734E+02  0.00000000000E+00 0.  1.
          2   -1    0    0  501    0  0.00000000000E+00 -0.00000000000E+00 -0.21916814331E+03  0.21916814331E+03  0.00000000000E+00 0. -1.
         25    2    1    2    0    0 -0.37882191240E+02 -0.77982199958E+01 -0.92551904096E+02  0.16034339919E+03  0.12509307760E+03 0.  0.
          5    1    3    3  502    0  0.33611124966E+02 -0.39502528488E+02 -0.29634595934E+02  0.59881876679E+02  0.41800000000E+01 0. -1.
         -5    1    3    3    0  502 -0.71493316206E+02  0.31704308492E+02 -0.62917308162E+02  0.10046152251E+03  0.41800000000E+01 0. -1.
        -11    1    1    2    0    0 -0.38388502545E+01 -0.33893029166E+02 -0.59976842562E+01  0.34633024900E+02  0.00000000000E+00 0.  1.
         11    1    1    2    0    0  0.41721041494E+02  0.41691249162E+02 -0.60393539221E+02  0.84416734950E+02  0.00000000000E+00 0. -1.
</event>
<event>
 7    1  0.2384639E-009  0.6972823E+02  0.7561462E-02  0.1361020E+00
          3   -1    0    0  501    0  0.00000000000E+00  0.00000000000E+00  0.17543216831E+03  0.17543216831E+03  0.00000000000E+00 0. -1.
         -3   -1    0    0    0  501 -0.00000000000E+00 -0.00000000000E+00 -0.68691976204E+02  0.68691976204E+02  0.00000000000E+00 0.  1.
         25    2    1    2    0    0 -0.44577287636E+01  0.91816571912E+01  0.80445841233E+02  0.14907455823E+03  0.12509003303E+03 0.  0.
          5    1    3    3  502    0  0.29798066611E+02  0.52747649595E+01  0.10315195839E+03  0.10758042033E+03  0.41800000000E+01 0. -1.
         -5    1    3    3    0  502 -0.34255795375E+02  0.39068922318E+01 -0.22706117153E+02  0.41494137897E+02  0.41800000000E+01 0. -1.
        -11    1    1    2    0    0 -0.28773846898E+01 -0.41214865830E+02  0.41747745085E+02  0.58735157510E+02  0.00000000000E+00 0. -1.
         11    1    1    2    0    0  0.73351134535E+01  0.32033208639E+02 -0.15453394210E+02  0.36314428781E+02  0.00000000000E+00 0.  1.
</event>
<event>
 7    1  0.2384639E-009  0.1150446E+03  0.7561462E-02  0.1251503E+00
          1   -1    0    0  501    0  0.00000000000E+00  0.00000000000E+00  0.32703786911E+03  0.32703786911E+03  0.00000000000E+00 0.  1.
         -1   -1    0    0    0  501 -0.00000000000E+00 -0.00000000000E+00 -0.13233856252E+03  0.13233856252E+03  0.00000000000E+00 0. -1.
         25    2    1    2    0    0  0.46951576906E+02 -0.36589886471E+02  0.28570683748E+03  0.31752035078E+03  0.12508999086E+03 0.  0.
          5    1    3    3  502    0  0.38659836268E+02 -0.80306588110E+02  0.22571989834E+03  0.24271521571E+03  0.41800000000E+01 0.  1.
         -5    1    3    3    0  502  0.82917406379E+01  0.43716701640E+02  0.59986939144E+02  0.74805135071E+02  0.41800000000E+01 0.  1.
        -11    1    1    2    0    0 -0.33054226596E+02 -0.19505621274E+02 -0.56781365698E+01  0.38798097789E+02  0.00000000000E+00 0.  1.
         11    1    1    2    0    0 -0.13897350310E+02  0.56095507745E+02 -0.85329394327E+02  0.10305798305E+03  0.00000000000E+00 0. -1.
</event>
<event>
 7    1  0.2410157E-009  0.1686351E+03  0.7561462E-02  0.1179279E+00
         -1   -1    0    0    0  501 -0.00000000000E+00  0.00000000000E+00  0.15141210994E+02  0.15141210994E+02  0.00000000000E+00 0.  1.
          1   -1    0    0  501    0  0.00000000000E+00 -0.00000000000E+00 -0.24725057546E+04  0.24725057546E+04  0.00000000000E+00 0. -1.
         25    2    1    2    0    0  0.13678429380E+03  0.62522536688E+02 -0.16307938898E+04  0.16424849444E+04  0.12509624737E+03 0.  0.
          5    1    3    3  502    0  0.84676534544E+02 -0.29558374128E+01 -0.12355058282E+04  0.12384147029E+04  0.41800000000E+01 0. -1.
         -5    1    3    3    0  502  0.52107759257E+02  0.65478374101E+02 -0.39528806156E+03  0.40407024150E+03  0.41800000000E+01 0. -1.
        -11    1    1    2    0    0 -0.10726710764E+03 -0.91430591673E+01 -0.63660413252E+03  0.64564281879E+03  0.00000000000E+00 0. -1.
         11    1    1    2    0    0 -0.29517186164E+02 -0.53379477521E+02 -0.18996652128E+03  0.19951920235E+03  0.00000000000E+00 0.  1.
</event>
<event>
 7    1  0.2441468E-009  0.9676849E+02  0.7561462E-02  0.1287242E+00
         -2   -1    0    0    0  501 -0.00000000000E+00  0.00000000000E+00  0.29982624210E+02  0.29982624210E+02  0.00000000000E+00 0.  1.
          2   -1    0    0  501    0  0.00000000000E+00 -0.00000000000E+00 -0.56557911529E+03  0.56557911529E+03  0.00000000000E+00 0. -1.
         25    2    1    2    0    0 -0.69907709562E+02 -0.73209946381E+01 -0.26016405126E+03  0.29710952139E+03  0.12509216327E+03 0.  0.
          5    1    3    3  502    0 -0.35582828697E+02  0.25515098587E+02 -0.24218628463E+03  0.24614797748E+03  0.41800000000E+01 0. -1.
         -5    1    3    3    0  502 -0.34324880866E+02 -0.32836093225E+02 -0.17977766633E+02  0.50961543911E+02  0.41800000000E+01 0. -1.
        -11    1    1    2    0    0  0.52211259992E+02  0.39279230688E+02 -0.10139830698E+03  0.12062541313E+03  0.00000000000E+00 0.  1.
         11    1    1    2    0    0  0.17696449570E+02 -0.31958236049E+02 -0.17403413284E+03  0.17782680498E+03  0.00000000000E+00 0. -1.
</event>
<event>
 7    1  0.2384639E-009  0.9846845E+02  0.7561462E-02  0.1283550E+00
         -2   -1    0    0    0  501 -0.00000000000E+00  0.00000000000E+00  0.28723005520E+02  0.28723005520E+02  0.00000000000E+00 0.  1.
          2   -1    0    0  501    0  0.00000000000E+00 -0.00000000000E+00 -0.47298811144E+03  0.47298811144E+03  0.00000000000E+00 0. -1.
         25    2    1    2    0    0 -0.34741726108E+02  0.24194938110E+02 -0.21788680661E+03  0.25478363497E+03  0.12509059752E+03 0.  0.
          5    1    3    3  502    0  0.46199694537E+02  0.19682295584E+02 -0.94356362891E+02  0.10696915515E+03  0.41800000000E+01 0. -1.
         -5    1    3    3    0  502 -0.80941420645E+02  0.45126425257E+01 -0.12353044372E+03  0.14781447982E+03  0.41800000000E+01 0. -1.
        -11    1    1    2    0    0 -0.17539904542E+00 -0.29977609003E+02 -0.16765687261E+02  0.34347868576E+02  0.00000000000E+00 0.  1.
         11    1    1    2    0    0  0.34917125154E+02  0.57826708935E+01 -0.20961261205E+03  0.21257961342E+03  0.00000000000E+00 0. -1.
</event>
<event>
 7    1  0.2384639E-009  0.8321416E+02  0.7561462E-02  0.1320170E+00
         -2   -1    0    0    0  501 -0.00000000000E+00  0.00000000000E+00  0.20338596297E+02  0.20338596297E+02  0.00000000000E+00 0.  1.
          2   -1    0    0  501    0  0.00000000000E+00 -0.00000000000E+00 -0.63246445553E+03  0.63246445553E+03  0.00000000000E+00 0. -1.
         25    2    1    2    0    0  0.40857456017E+01  0.49303884580E+01 -0.44890481915E+03  0.46605021939E+03  0.12508504425E+03 0.  0.
          5    1    3    3  502    0 -0.40908438387E+02 -0.27285343097E+01 -0.51257998996E+02  0.65770814894E+02  0.41800000000E+01 0.  1.
         -5    1    3    3    0  502  0.44994183988E+02  0.76589227677E+01 -0.39764682015E+03  0.40027940450E+03  0.41800000000E+01 0.  1.
        -11    1    1    2    0    0 -0.21879031583E+02 -0.36840962783E+02 -0.41438959538E+02  0.59608186764E+02  0.00000000000E+00 0.  1.
         11    1    1    2    0    0  0.17793285982E+02  0.31910574325E+02 -0.12178208055E+03  0.12714464567E+03  0.00000000000E+00 0. -1.
</event>
<event>
 7    1  0.2384639E-009  0.1047980E+03  0.7561462E-02  0.1270518E+00
         -2   -1    0    0    0  501 -0.00000000000E+00  0.00000000000E+00  0.30772946906E+02  0.30772946906E+02  0.00000000000E+00 0.  1.
          2   -1    0    0  501    0  0.00000000000E+00 -0.00000000000E+00 -0.45123004477E+03  0.45123004477E+03  0.00000000000E+00 0. -1.
         25    2    1    2    0    0  0.17484680269E+02 -0.12374680736E+02 -0.33255050551E+03  0.35594267142E+03  0.12508596984E+03 0.  0.
          5    1    3    3  502    0 -0.75573043937E+01 -0.64502367054E+02 -0.21871226845E+03  0.22818895016E+03  0.41800000000E+01 0. -1.
         -5    1    3    3    0  502  0.25041984663E+02  0.52127686318E+02 -0.11383823706E+03  0.12775372125E+03  0.41800000000E+01 0. -1.
        -11    1    1    2    0    0  0.33949050380E+02  0.82528800958E+01 -0.54005297141E+02  0.64321226441E+02  0.00000000000E+00 0. -1.
         11    1    1    2    0    0 -0.51433730649E+02  0.41218006401E+01 -0.33901295212E+02  0.61739093823E+02  0.00000000000E+00 0.  1.
</event>
<event>
 7    1  0.2384639E-009  0.1276982E+03  0.7561462E-02  0.1230912E+00
          1   -1    0    0  501    0  0.00000000000E+00  0.00000000000E+00  0.47171297750E+03  0.47171297750E+03  0.00000000000E+00 0.  1.
         -1   -1    0    0    0  501 -0.00000000000E+00 -0.00000000000E+00 -0.45630121605E+02  0.45630121605E+02  0.00000000000E+00 0. -1.
         25    2    1    2    0    0 -0.90932447306E+02 -0.29252498543E+02  0.26958652162E+03  0.31216782062E+03  0.12508971560E+03 0.  0.
          5    1    3    3  502    0 -0.11824972334E+03 -0.18069949903E+02  0.16787377069E+03  0.20617612724E+03  0.41800000000E+01 0.  1.
         -5    1    3    3    0  502  0.27317276029E+02 -0.11182548640E+02  0.10171275093E+03  0.10599169338E+03  0.41800000000E+01 0.  1.
        -11    1    1    2    0    0  0.40894337224E+02  0.37128652717E+02  0.14218722828E+03  0.15253881983E+03  0.00000000000E+00 0.  1.
         11    1    1    2    0    0  0.50038110082E+02 -0.78761541737E+01  0.14309105996E+02  0.52636458654E+02  0.00000000000E+00 0. -1.
</event>
<event>
 7    1  0.2384639E-009  0.1276104E+03  0.7561462E-02  0.1231045E+00
          2   -1    0    0  501    0  0.00000000000E+00  0.00000000000E+00  0.67307962868E+03  0.67307962868E+03  0.00000000000E+00 0. -1.
         -2   -1    0    0    0  501 -0.00000000000E+00 -0.00000000000E+00 -0.57750484695E+02  0.57750484695E+02  0.00000000000E+00 0.  1.
         25    2    1    2    0    0 -0.14148767322E+02  0.70627796954E+02  0.54978327836E+02  0.15446386931E+03  0.12509195447E+03 0.  0.
          5    1    3    3  502    0  0.26463769463E+02 -0.12006300514E+02  0.54941914455E+02  0.62294210889E+02  0.41800000000E+01 0. -1.
         -5    1    3    3    0  502 -0.40612536785E+02  0.82634097467E+02  0.36413380847E-01  0.92169658425E+02  0.41800000000E+01 0. -1.
        -11    1    1    2    0    0  0.21222790529E+02  0.27819776361E+02  0.18336563361E+03  0.18667432171E+03  0.00000000000E+00 0. -1.
         11    1    1    2    0    0 -0.70740232071E+01 -0.98447573315E+02  0.37698518254E+03  0.38969192236E+03  0.00000000000E+00 0.  1.
</event>
<event>
 7    1  0.2384639E-009  0.9868610E+02  0.7561462E-02  0.1283083E+00
         -4   -1    0    0    0  501 -0.00000000000E+00  0.00000000000E+00  0.79818368537E+03  0.79818368537E+03  0.00000000000E+00 0. -1.
          4   -1    0    0  501    0  0.00000000000E+00 -0.00000000000E+00 -0.17640062008E+02  0.17640062008E+02  0.00000000000E+00 0.  1.
         25    2    1    2    0    0 -0.12583481181E+02  0.46707977430E+02  0.43419205784E+03  0.45443461053E+03  0.12509233790E+03 0.  0.
          5    1    3    3  502    0 -0.40242054310E+02 -0.91837143001E+00  0.35826216907E+03  0.36054059484E+03  0.41800000000E+01 0.  1.
         -5    1    3    3    0  502  0.27658573129E+02  0.47626348860E+02  0.75929888764E+02  0.93894015682E+02  0.41800000000E+01 0.  1.
        -11    1    1    2    0    0 -0.18671621740E+02 -0.63500833288E+02  0.25322690717E+03  0.26173431529E+03  0.00000000000E+00 0. -1.
         11    1    1    2    0    0  0.31255102921E+02  0.16792855858E+02  0.93124658357E+02  0.99654821563E+02  0.00000000000E+00 0.  1.
</event>
<event>
 7    1  0.2384639E-009  0.1841656E+03  0.7561462E-02  0.1163831E+00
         -1   -1    0    0    0  501 -0.00000000000E+00  0.00000000000E+00  0.26166573644E+02  0.26166573644E+02  0.00000000000E+00 0.  1.
          1   -1    0    0  501    0  0.00000000000E+00 -0.00000000000E+00 -0.13859958654E+04  0.13859958654E+04  0.00000000000E+00 0. -1.
         25    2    1    2    0    0  0.15334310784E+03 -0.57861092973E+01 -0.59635922629E+03  0.62836176996E+03  0.12508636773E+03 0.  0.
          5    1    3    3  502    0  0.51559430122E+02  0.56701708300E+02 -0.27463257535E+03  0.28515606675E+03  0.41800000000E+01 0. -1.
         -5    1    3    3    0  502  0.10178367772E+03 -0.62487817598E+02 -0.32172665094E+03  0.34320570322E+03  0.41800000000E+01 0. -1.
        -11    1    1    2    0    0 -0.82204508529E+02  0.41925977422E+02 -0.31304220011E+03  0.32635990540E+03  0.00000000000E+00 0. -1.
         11    1    1    2    0    0 -0.71138599312E+02 -0.36139868125E+02 -0.45042786535E+03  0.45744076367E+03  0.00000000000E+00 0.  1.
</event>
<event>
 7    1  0.2384639E-009  0.9487614E+02  0.7561462E-02  0.1291455E+00
         -1   -1    0    0    0  501 -0.00000000000E+00  0.00000000000E+00  0.44678993885E+03  0.44678993885E+03  0.00000000000E+00 0. -1.
          1   -1    0    0  501    0  0.00000000000E+00 -0.00000000000E+00 -0.38483394036E+02  0.38483394036E+02  0.00000000000E+00 0.  1.
         25    2    1    2    0    0 -0.46157347005E+02  0.27309081906E+02  0.32002773933E+03  0.34777021358E+03  0.12510028327E+03 0.  0.
          5    1    3    3  502    0 -0.36604163356E+02 -0.44604560101E+02  0.19235752515E+03  0.20086891605E+03  0.41800000000E+01 0.  1.
         -5    1    3    3    0  502 -0.95531836496E+01  0.71913642007E+02  0.12767021419E+03  0.14690129753E+03  0.41800000000E+01 0.  1.
        -11    1    1    2    0    0  0.40124237288E+02 -0.10646111947E+02 -0.56695621744E+01  0.41897948074E+02  0.00000000000E+00 0.  1.
         11    1    1    2    0    0  0.60331097172E+01 -0.16662969959E+02  0.93948367656E+02  0.95605171231E+02  0.00000000000E+00 0. -1.
</event>
<event>
 7    1  0.2384639E-009  0.1881640E+03  0.7561462E-02  0.1160128E+00
         -1   -1    0    0    0  501 -0.00000000000E+00  0.00000000000E+00  0.32412063312E+02  0.32412063312E+02  0.00000000000E+00 0.  1.
          1   -1    0    0  501    0  0.00000000000E+00 -0.00000000000E+00 -0.14919354863E+04  0.14919354863E+04  0.00000000000E+00 0. -1.
         25    2    1    2    0    0  0.16353792664E+03  0.70190692322E+02 -0.99061842571E+03  0.10142208474E+04  0.12509066788E+03 0.  0.
          5    1    3    3  502    0  0.46612650191E+01  0.42952215010E+01  0.11148551903E+01  0.76740876602E+01  0.41800000000E+01 0. -1.
         -5    1    3    3    0  502  0.15887666162E+03  0.65895470821E+02 -0.99173328090E+03  0.10065467597E+04  0.41800000000E+01 0. -1.
        -11    1    1    2    0    0  0.10097922406E+02 -0.38392139773E+01 -0.89412897958E+01  0.14023347107E+02  0.00000000000E+00 0.  1.
         11    1    1    2    0    0 -0.17363584904E+03 -0.66351478344E+02 -0.45996370747E+03  0.49610335510E+03  0.00000000000E+00 0. -1.
</event>
<event>
 7    1  0.2384639E-009  0.6756876E+02  0.7561462E-02  0.1368561E+00
         -3   -1    0    0    0  501 -0.00000000000E+00  0.00000000000E+00  0.48158504464E+03  0.48158504464E+03  0.00000000000E+00 0.  1.
          3   -1    0    0  501    0  0.00000000000E+00 -0.00000000000E+00 -0.39174298221E+02  0.39174298221E+02  0.00000000000E+00 0. -1.
         25    2    1    2    0    0 -0.20029886022E+02 -0.19002293527E+02  0.40005695140E+03  0.42006664418E+03  0.12509251656E+03 0.  0.
          5    1    3    3  502    0 -0.19846641168E+02  0.63770988944E+01  0.39275263000E+03  0.39332767170E+03  0.41800000000E+01 0. -1.
         -5    1    3    3    0  502 -0.18324485390E+00 -0.25379392421E+02  0.73043214021E+01  0.26738972484E+02  0.41800000000E+01 0. -1.
        -11    1    1    2    0    0  0.47158592900E+02  0.33067190254E+02  0.14613735742E+02  0.59421656220E+02  0.00000000000E+00 0. -1.
         11    1    1    2    0    0 -0.27128706878E+02 -0.14064896727E+02  0.27740059278E+02  0.41271042458E+02  0.00000000000E+00 0.  1.
</event>
<event>
 7    1  0.2384639E-009  0.9863385E+02  0.7561462E-02  0.1283195E+00
          2   -1    0    0  501    0  0.00000000000E+00  0.00000000000E+00  0.37613609100E+03  0.37613609100E+03  0.00000000000E+00 0. -1.
         -2   -1    0    0    0  501 -0.00000000000E+00 -0.00000000000E+00 -0.36475691352E+02  0.36475691352E+02  0.00000000000E+00 0.  1.
         25    2    1    2    0    0 -0.17534385593E+02  0.39003467064E+02  0.21662696321E+03  0.25377763443E+03  0.12508845442E+03 0.  0.
          5    1    3    3  502    0  0.50326790593E+02  0.39344071762E+02  0.98295452750E+02  0.11730392263E+03  0.41800000000E+01 0.  1.
         -5    1    3    3    0  502 -0.67861176186E+02 -0.34060469786E+00  0.11833151046E+03  0.13647371180E+03  0.41800000000E+01 0.  1.
        -11    1    1    2    0    0  0.34390223301E+02 -0.32104766287E+02  0.15152667463E+02  0.49426782297E+02  0.00000000000E+00 0.  1.
         11    1    1    2    0    0 -0.16855837708E+02 -0.68987007775E+01  0.10788076898E+03  0.10940736562E+03  0.00000000000E+00 0. -1.
</event>
<event>
 7    1  0.2384639E-009  0.1289263E+03  0.7561462E-02  0.1229058E+00
          1   -1    0    0  501    0  0.00000000000E+00  0.00000000000E+00  0.28706376390E+03  0.28706376390E+03  0.00000000000E+00 0. -1.
         -1   -1    0    0    0  501 -0.00000000000E+00 -0.00000000000E+00 -0.10067225343E+03  0.10067225343E+03  0.00000000000E+00 0.  1.
         25    2    1    2    0    0 -0.10508941423E+02  0.11174353776E+03  0.17347761047E+03  0.24153349963E+03  0.12508754546E+03 0.  0.
          5    1    3    3  502    0 -0.23843489099E+02  0.74195780088E+02  0.18420677283E+03  0.20005782492E+03  0.41800000000E+01 0. -1.
         -5    1    3    3    0  502  0.13334547676E+02  0.37547757671E+02 -0.10729162359E+02  0.41475674711E+02  0.41800000000E+01 0. -1.
        -11    1    1    2    0    0 -0.34959457294E+02 -0.29389244508E+02 -0.15007349448E+02  0.48074025050E+02  0.00000000000E+00 0.  1.
         11    1    1    2    0    0  0.45468398717E+02 -0.82354293250E+02  0.27921249452E+02  0.98128492649E+02  0.00000000000E+00 0. -1.
</event>
<event>
 7    1  0.2384639E-009  0.9273247E+02  0.7561462E-02  0.1296366E+00
          2   -1    0    0  501    0  0.00000000000E+00  0.00000000000E+00  0.13996356625E+04  0.13996356625E+04  0.00000000000E+00 0. -1.
         -2   -1    0    0    0  501 -0.00000000000E+00 -0.00000000000E+00 -0.11728194317E+02  0.11728194317E+02  0.00000000000E+00 0.  1.
         25    2    1    2    0    0  0.56147165137E+02 -0.30888500084E+02  0.88834914441E+03  0.89939892218E+03  0.12509042828E+03 0.  0.
          5    1    3    3  502    0  0.10901260913E+02  0.75891073733E+01  0.62003267484E+01  0.15242981729E+02  0.41800000000E+01 0. -1.
         -5    1    3    3    0  502  0.45245904224E+02 -0.38477607457E+02  0.88214881766E+03  0.88415594045E+03  0.41800000000E+01 0. -1.
        -11    1    1    2    0    0 -0.65805680385E+02 -0.12984871136E+02  0.29370760495E+03  0.30126923450E+03  0.00000000000E+00 0.  1.
         11    1    1    2    0    0  0.96585152474E+01  0.43873371219E+02  0.20585071884E+03  0.21069570016E+03  0.00000000000E+00 0. -1.
</event>
<event>
 7    1  0.2384639E-009  0.1096917E+03  0.7561462E-02  0.1261142E+00
          1   -1    0    0  501    0  0.00000000000E+00  0.00000000000E+00  0.45381913710E+03  0.45381913710E+03  0.00000000000E+00 0. -1.
         -1   -1    0    0    0  501 -0.00000000000E+00 -0.00000000000E+00 -0.39276970077E+02  0.39276970077E+02  0.00000000000E+00 0.  1.
         25    2    1    2    0    0 -0.66863830459E+02 -0.27692591883E+02  0.27931680114E+03  0.31448865405E+03  0.12509031400E+03 0.  0.
          5    1    3    3  502    0 -0.35517870282E+02  0.49440496750E+02  0.12477281617E+03  0.13889423993E+03  0.41800000000E+01 0.  1.
         -5    1    3    3    0  502 -0.31345960177E+02 -0.77133088633E+02  0.15454398497E+03  0.17559441412E+03  0.41800000000E+01 0.  1.
        -11    1    1    2    0    0  0.44827418368E+02  0.28196459452E+02  0.14509433558E+03  0.15445680296E+03  0.00000000000E+00 0. -1.
         11    1    1    2    0    0  0.22036412091E+02 -0.50386756866E+00 -0.98689697032E+01  0.24150650164E+02  0.00000000000E+00 0.  1.
</event>
<event>
 7    1  0.2384639E-009  0.4617661E+02  0.7561462E-02  0.1467127E+00
          2   -1    0    0  501    0  0.00000000000E+00  0.00000000000E+00  0.25341907890E+03  0.25341907890E+03  0.00000000000E+00 0.  1.
         -2   -1    0    0    0  501 -0.00000000000E+00 -0.00000000000E+00 -0.48051952681E+02  0.48051952681E+02  0.00000000000E+00 0. -1.
         25    2    1    2    0    0 -0.21050381106E+02  0.83687678675E+01  0.13297132773E+03  0.18396632112E+03  0.12509627688E+03 0.  0.
          5    1    3    3  502    0 -0.20961174761E+02  0.26722599332E+02  0.15282396712E+03  0.15660812714E+03  0.41800000000E+01 0.  1.
         -5    1    3    3    0  502 -0.89206345287E-01 -0.18353831465E+02 -0.19852639387E+02  0.27358193980E+02  0.41800000000E+01 0.  1.
        -11    1    1    2    0    0  0.73688457594E+01 -0.20024224815E+02 -0.16397915733E+02  0.26910241688E+02  0.00000000000E+00 0. -1.
         11    1    1    2    0    0  0.13681535347E+02  0.11655456948E+02  0.88793714225E+02  0.90594468772E+02  0.00000000000E+00 0.  1.
</event>
<event>
 7    1  0.2384639E-009  0.3214248E+03  0.7561462E-02  0.1074995E+00
         -3   -1    0    0    0  501 -0.00000000000E+00  0.00000000000E+00  0.67592824392E+03  0.67592824392E+03  0.00000000000E+00 0.  1.
          3   -1    0    0  501    0  0.00000000000E+00 -0.00000000000E+00 -0.17322515065E+03  0.17322515065E+03  0.00000000000E+00 0. -1.
         25    2    1    2    0    0 -0.16496225849E+03 -0.26515238792E+03  0.36472324314E+03  0.49617197101E+03  0.12508095451E+03 0.  0.
          5    1    3    3  502    0  0.11028128162E+02 -0.26276977815E+02  0.39944303463E+01  0.29077947789E+02  0.41800000000E+01 0.  1.
         -5    1    3    3    0  502 -0.17599038665E+03 -0.23887541011E+03  0.36072881279E+03  0.46709402322E+03  0.41800000000E+01 0.  1.
        -11    1    1    2    0    0  0.12251238558E+03  0.23572335175E+03  0.14189625581E+03  0.30117989739E+03  0.00000000000E+00 0.  1.
         11    1    1    2    0    0  0.42449872908E+02  0.29429036171E+02 -0.39164056732E+01  0.51801526167E+02  0.00000000000E+00 0. -1.
</event>
<event>
 7    1  0.2384639E-009  0.1311393E+03  0.7561462E-02  0.1225775E+00
         -2   -1    0    0    0  501 -0.00000000000E+00  0.00000000000E+00  0.10541092415E+03  0.10541092415E+03  0.00000000000E+00 0.  1.
          2   -1    0    0  501    0  0.00000000000E+00 -0.00000000000E+00 -0.18356905952E+03  0.18356905952E+03  0.00000000000E+00 0. -1.
         25    2    1    2    0    0 -0.31431514485E+02 -0.82535262237E+02 -0.55052254279E+02  0.16272121247E+03  0.12508969850E+03 0.  0.
          5    1    3    3  502    0  0.46696859359E+02 -0.38314066632E+02 -0.74031539490E+01  0.60998716907E+02  0.41800000000E+01 0.  1.
         -5    1    3    3    0  502 -0.78128373845E+02 -0.44221195604E+02 -0.47649100330E+02  0.10172249556E+03  0.41800000000E+01 0.  1.
        -11    1    1    2    0    0  0.51705979142E+02  0.42301469756E+02 -0.40318944392E+02  0.78029096492E+02  0.00000000000E+00 0. -1.
         11    1    1    2    0    0 -0.20274464657E+02  0.40233792481E+02  0.17213063300E+02  0.48229674710E+02  0.00000000000E+00 0.  1.
</event>
<event>
 7    1  0.2384639E-009  0.1012558E+03  0.7561462E-02  0.1277677E+00
         -2   -1    0    0    0  501 -0.00000000000E+00  0.00000000000E+00  0.83206862975E+02  0.83206862975E+02  0.00000000000E+00 0.  1.
          2   -1    0    0  501    0  0.00000000000E+00 -0.00000000000E+00 -0.16022901759E+03  0.16022901759E+03  0.00000000000E+00 0. -1.
         25    2    1    2    0    0  0.39938209447E+02  0.22375471858E+01 -0.44769423469E+02  0.13875093395E+03  0.12508978057E+03 0.  0.
          5    1    3    3  502    0 -0.45317268277E+02  0.21433634340E+01 -0.20854013014E+02  0.50105998340E+02  0.41800000000E+01 0. -1.
         -5    1    3    3    0  502  0.85255477723E+02  0.94183751818E-01 -0.23915410455E+02  0.88644935612E+02  0.41800000000E+01 0. -1.
        -11    1    1    2    0    0 -0.19523213634E+02 -0.30811470349E+02  0.20098022461E+02  0.41646525455E+02  0.00000000000E+00 0.  1.
         11    1    1    2    0    0 -0.20414995813E+02  0.28573923163E+02 -0.52350753610E+02  0.63038421161E+02  0.00000000000E+00 0. -1.
</event>
<event>
 7    1  0.2384639E-009  0.1693956E+03  0.7561462E-02  0.1178480E+00
          1   -1    0    0  501    0  0.00000000000E+00  0.00000000000E+00  0.79940731688E+03  0.79940731688E+03  0.00000000000E+00 0. -1.
         -1   -1    0    0    0  501 -0.00000000000E+00 -0.00000000000E+00 -0.45294979580E+02  0.45294979580E+02  0.00000000000E+00 0.  1.
         25    2    1    2    0    0  0.10957248897E+03  0.73082970161E+02  0.20976820025E+03  0.27748420267E+03  0.12509010365E+03 0.  0.
          5    1    3    3  502    0  0.12420873352E+02 -0.34011088271E+02  0.33995394071E+02  0.49841663678E+02  0.41800000000E+01 0.  1.
         -5    1    3    3    0  502  0.97151615615E+02  0.10709405843E+03  0.17577280618E+03  0.22764253899E+03  0.41800000000E+01 0.  1.
        -11    1    1    2    0    0  0.96797788571E+01  0.87578081225E+01  0.26284007413E+02  0.29346999293E+02  0.00000000000E+00 0.  1.
         11    1    1    2    0    0 -0.11925226782E+03 -0.81840778284E+02  0.51806012964E+03  0.53787109449E+03  0.00000000000E+00 0. -1.
</event>
<event>
 7    1  0.2384639E-009  0.2818224E+03  0.7561462E-02  0.1094698E+00
         -2   -1    0    0    0  501 -0.00000000000E+00  0.00000000000E+00  0.68889461900E+02  0.68889461900E+02  0.00000000000E+00 0.  1.
          2   -1    0    0  501    0  0.00000000000E+00 -0.00000000000E+00 -0.11829361975E+04  0.11829361975E+04  0.00000000000E+00 0. -1.
         25    2    1    2    0    0  0.14101174504E+03 -0.22210594569E+03 -0.61049614798E+03  0.67643788783E+03  0.12508919234E+03 0.  0.
          5    1    3    3  502    0  0.87722362501E+02 -0.41935272764E+02 -0.27749328251E+03  0.29406423486E+03  0.41800000000E+01 0.  1.
         -5    1    3    3    0  502  0.53289382538E+02 -0.18017067293E+03 -0.33300286547E+03  0.38237365297E+03  0.41800000000E+01 0.  1.
        -11    1    1    2    0    0 -0.11762458660E+02  0.99658815946E+02 -0.18392968008E+03  0.20952413284E+03  0.00000000000E+00 0. -1.
         11    1    1    2    0    0 -0.12924928638E+03  0.12244712974E+03 -0.31962090759E+03  0.36586363878E+03  0.00000000000E+00 0.  1.
</event>
<event>
 7    1  0.2384639E-009  0.4829667E+03  0.7561462E-02  0.1018323E+00
         -1   -1    0    0    0  501 -0.00000000000E+00  0.00000000000E+00  0.19432841280E+03  0.19432841280E+03  0.00000000000E+00 0.  1.
          1   -1    0    0  501    0  0.00000000000E+00 -0.00000000000E+00 -0.12489178025E+04  0.12489178025E+04  0.00000000000E+00 0. -1.
         25    2    1    2    0    0 -0.26612722972E+03  0.40007428552E+03 -0.51934087495E+03  0.71850142011E+03  0.12508481113E+03 0.  0.
          5    1    3    3  502    0 -0.24045948574E+03  0.31618609915E+03 -0.35781933935E+03  0.53464620600E+03  0.41800000000E+01 0.  1.
         -5    1    3    3    0  502 -0.25667743985E+02  0.83888186367E+02 -0.16152153560E+03  0.18385521411E+03  0.41800000000E+01 0.  1.
        -11    1    1    2    0    0  0.53061969572E+02 -0.93530710285E+02 -0.70315997269E+02  0.12848309559E+03  0.00000000000E+00 0.  1.
         11    1    1    2    0    0  0.21306526015E+03 -0.30654357523E+03 -0.46493251750E+03  0.59626169961E+03  0.00000000000E+00 0. -1.
</event>
<event>
 7    1  0.2384639E-009  0.1314183E+03  0.7561462E-02  0.1225366E+00
          1   -1    0    0  501    0  0.00000000000E+00  0.00000000000E+00  0.24081721414E+03  0.24081721414E+03  0.00000000000E+00 0. -1.
         -1   -1    0    0    0  501 -0.00000000000E+00 -0.00000000000E+00 -0.10837911962E+03  0.10837911962E+03  0.00000000000E+00 0.  1.
         25    2    1    2    0    0 -0.11270046326E+03  0.42565219757E+02  0.11126700838E+03  0.20625710272E+03  0.12509377649E+03 0.  0.
          5    1    3    3  502    0 -0.66519100591E+01  0.16633370846E+02  0.93836203038E+02  0.95622289942E+02  0.41800000000E+01 0.  1.
         -5    1    3    3    0  502 -0.10604855320E+03  0.25931848911E+02  0.17430805340E+02  0.11063481278E+03  0.41800000000E+01 0.  1.
        -11    1    1    2    0    0  0.81224126758E+02 -0.58316271645E+02 -0.33426546182E+01  0.10004658738E+03  0.00000000000E+00 0.  1.
         11    1    1    2    0    0  0.31476336499E+02  0.15751051888E+02  0.24513740761E+02  0.42892643671E+02  0.00000000000E+00 0. -1.
</event>
<event>
 7    1  0.2384639E-009  0.6449504E+02  0.7561462E-02  0.1379881E+00
          2   -1    0    0  501    0  0.00000000000E+00  0.00000000000E+00  0.16661374978E+03  0.16661374978E+03  0.00000000000E+00 0. -1.
         -2   -1    0    0    0  501 -0.00000000000E+00 -0.00000000000E+00 -0.10243115596E+03  0.10243115596E+03  0.00000000000E+00 0.  1.
         25    2    1    2    0    0 -0.58909595017E+02  0.24387300960E+02 -0.89017403686E+00  0.14041151852E+03  0.12509804671E+03 0.  0.
          5    1    3    3  502    0 -0.22866245194E+02  0.10393958111E+02 -0.62537432108E+02  0.67522606208E+02  0.41800000000E+01 0. -1.
         -5    1    3    3    0  502 -0.36043349824E+02  0.13993342849E+02  0.61647258071E+02  0.72888912314E+02  0.41800000000E+01 0. -1.
        -11    1    1    2    0    0  0.12428735157E+02 -0.10085167111E+02  0.76929883313E+02  0.78577293157E+02  0.00000000000E+00 0. -1.
         11    1    1    2    0    0  0.46480859861E+02 -0.14302133849E+02 -0.11857115455E+02  0.50056094064E+02  0.00000000000E+00 0.  1.
</event>
<event>
 7    1  0.2384639E-009  0.7698025E+02  0.7561462E-02  0.1337846E+00
          2   -1    0    0  501    0  0.00000000000E+00  0.00000000000E+00  0.27408302189E+03  0.27408302189E+03  0.00000000000E+00 0. -1.
         -2   -1    0    0    0  501 -0.00000000000E+00 -0.00000000000E+00 -0.88825170008E+02  0.88825170008E+02  0.00000000000E+00 0.  1.
         25    2    1    2    0    0 -0.32663448872E+02 -0.66511002802E+01 -0.24123559986E+02  0.13168283372E+03  0.12508910633E+03 0.  0.
          5    1    3    3  502    0 -0.31003247993E+02 -0.27451913407E+02  0.43848943673E+02  0.60456688605E+02  0.41800000000E+01 0. -1.
         -5    1    3    3    0  502 -0.16602008784E+01  0.20800813127E+02 -0.67972503660E+02  0.71226145112E+02  0.41800000000E+01 0. -1.
        -11    1    1    2    0    0 -0.29075084088E+02  0.18885593920E+01  0.31665501552E+02  0.43030584005E+02  0.00000000000E+00 0.  1.
         11    1    1    2    0    0  0.61738532960E+02  0.47625408883E+01  0.17771591032E+03  0.18819477418E+03  0.00000000000E+00 0. -1.
</event>
<event>
 7    1  0.2384639E-009  0.1672454E+03  0.7561462E-02  0.1180751E+00
         -2   -1    0    0    0  501 -0.00000000000E+00  0.00000000000E+00  0.33621408088E+03  0.33621408088E+03  0.00000000000E+00 0.  1.
          2   -1    0    0  501    0  0.00000000000E+00 -0.00000000000E+00 -0.10250645173E+03  0.10250645173E+03  0.00000000000E+00 0. -1.
         25    2    1    2    0    0 -0.44823666491E+02 -0.13299045135E+03  0.59026706310E+02  0.19704047770E+03  0.12508068022E+03 0.  0.
          5    1    3    3  502    0 -0.49374577550E+02 -0.17483202914E+02  0.62074522248E+02  0.81327916515E+02  0.41800000000E+01 0. -1.
         -5    1    3    3    0  502  0.45509110595E+01 -0.11550724844E+03 -0.30478159382E+01  0.11571256118E+03  0.41800000000E+01 0. -1.
        -11    1    1    2    0    0 -0.25048717229E+02  0.61035521256E+02  0.58299973985E+02  0.88043512291E+02  0.00000000000E+00 0. -1.
         11    1    1    2    0    0  0.69872383720E+02  0.71954930098E+02  0.11638094886E+03  0.15363654262E+03  0.00000000000E+00 0.  1.
</event>
<event>
 7    1  0.2384639E-009  0.1596330E+03  0.7561462E-02  0.1189112E+00
         -2   -1    0    0    0  501 -0.00000000000E+00  0.00000000000E+00  0.26746992672E+02  0.26746992672E+02  0.00000000000E+00 0.  1.
          2   -1    0    0  501    0  0.00000000000E+00 -0.00000000000E+00 -0.10759992354E+04  0.10759992354E+04  0.00000000000E+00 0. -1.
         25    2    1    2    0    0  0.12922796129E+03 -0.14296342752E+02 -0.53798823713E+03  0.56743506415E+03  0.12508779851E+03 0.  0.
          5    1    3    3  502    0  0.12677636459E+03  0.18419589616E+02 -0.28756666659E+03  0.31483898747E+03  0.41800000000E+01 0.  1.
         -5    1    3    3    0  502  0.24515966963E+01 -0.32715932367E+02 -0.25042157055E+03  0.25259607668E+03  0.41800000000E+01 0.  1.
        -11    1    1    2    0    0 -0.64097331840E+02 -0.37977644220E+02 -0.21748743156E+03  0.22989465478E+03  0.00000000000E+00 0. -1.
         11    1    1    2    0    0 -0.65130629451E+02  0.52273986972E+02 -0.29377657403E+03  0.30541650914E+03  0.00000000000E+00 0.  1.
</event>
<event>
 7    1  0.2384639E-009  0.1119858E+03  0.7561462E-02  0.1256936E+00
          4   -1    0    0  501    0  0.00000000000E+00  0.00000000000E+00  0.79596398451E+02  0.79596398451E+02  0.00000000000E+00 0. -1.
         -4   -1    0    0    0  501 -0.00000000000E+00 -0.00000000000E+00 -0.20261223257E+03  0.20261223257E+03  0.00000000000E+00 0.  1.
         25    2    1    2    0    0  0.53230760035E+02 -0.37223350763E+02 -0.53484810823E+02  0.15075222303E+03  0.12508603480E+03 0.  0.
          5    1    3    3  502    0 -0.37162597988E+02 -0.31609442359E+02 -0.90910585999E+01  0.49802964590E+02  0.41800000000E+01 0.  1.
         -5    1    3    3    0  502  0.90393358024E+02 -0.56139084042E+01 -0.44393752224E+02  0.10094925844E+03  0.41800000000E+01 0.  1.
        -11    1    1    2    0    0 -0.30049248285E+02  0.49653163893E+02 -0.83488102908E+02  0.10167918830E+03  0.00000000000E+00 0.  1.
         11    1    1    2    0    0 -0.23181511751E+02 -0.12429813129E+02  0.13957079609E+02  0.29777219694E+02  0.00000000000E+00 0. -1.
</event>
<event>
 7    1  0.2384639E-009  0.7359819E+02  0.7561462E-02  0.1348268E+00
          1   -1    0    0  501    0  0.00000000000E+00  0.00000000000E+00  0.65969297813E+03  0.65969297813E+03  0.00000000000E+00 0. -1.
         -1   -1    0    0    0  501 -0.00000000000E+00 -0.00000000000E+00 -0.22321148179E+02  0.22321148179E+02  0.00000000000E+00 0.  1.
         25    2    1    2    0    0 -0.33261717905E+02 -0.16813930353E+02  0.48405876089E+03  0.50134824108E+03  0.12509246466E+03 0.  0.
          5    1    3    3  502    0  0.10353433597E+02 -0.61547408502E+01  0.43316095875E+03  0.43334854679E+03  0.41800000000E+01 0.  1.
         -5    1    3    3    0  502 -0.43615151502E+02 -0.10659189503E+02  0.50897802138E+02  0.67999694293E+02  0.41800000000E+01 0.  1.
        -11    1    1    2    0    0 -0.26586294151E+02  0.12421946611E+02  0.23293969970E+02  0.37466582861E+02  0.00000000000E+00 0.  1.
         11    1    1    2    0    0  0.59848012056E+02  0.43919837419E+01  0.13001909909E+03  0.14319930236E+03  0.00000000000E+00 0. -1.
</event>
<event>
 7    1  0.2384639E-009  0.1320726E+03  0.7561462E-02  0.1224412E+00
          1   -1    0    0  501    0  0.00000000000E+00  0.00000000000E+00  0.27313697631E+03  0.27313697631E+03  0.00000000000E+00 0. -1.
         -1   -1    0    0    0  501 -0.00000000000E+00 -0.00000000000E+00 -0.69737842619E+02  0.69737842619E+02  0.00000000000E+00 0.  1.
         25    2    1    2    0    0 -0.78703959201E+02 -0.30360966361E+01  0.70940430050E+02  0.16396326869E+03  0.12509147767E+03 0.  0.
          5    1    3    3  502    0  0.13653195365E+02 -0.44321071608E+02  0.23082360067E+02  0.51971481395E+02  0.41800000000E+01 0. -1.
         -5    1    3    3    0  502 -0.92357154566E+02  0.41284974972E+02  0.47858069983E+02  0.11199178729E+03  0.41800000000E+01 0. -1.
        -11    1    1    2    0    0  0.69463270271E+01  0.36498372623E+02  0.65115101906E+02  0.74969054679E+02  0.00000000000E+00 0. -1.
         11    1    1    2    0    0  0.71757632174E+02 -0.33462275987E+02  0.67343601737E+02  0.10394249557E+03  0.00000000000E+00 0.  1.
</event>
<event>
 7    1  0.2384639E-009  0.1134808E+03  0.7561462E-02  0.1254256E+00
         -1   -1    0    0    0  501 -0.00000000000E+00  0.00000000000E+00  0.58395362555E+02  0.58395362555E+02  0.00000000000E+00 0.  1.
          1   -1    0    0  501    0  0.00000000000E+00 -0.00000000000E+00 -0.33255217869E+03  0.33255217869E+03  0.00000000000E+00 0. -1.
         25    2    1    2    0    0  0.29256261418E+02  0.79680751744E+02 -0.16046009679E+03  0.22045948829E+03  0.12509992920E+03 0.  0.
          5    1    3    3  502    0 -0.37788020839E+02  0.10544078856E+02 -0.82727709480E+01  0.40311577208E+02  0.41800000000E+01 0. -1.
         -5    1    3    3    0  502  0.67044282257E+02  0.69136672888E+02 -0.15218732584E+03  0.18014791108E+03  0.41800000000E+01 0. -1.
        -11    1    1    2    0    0 -0.32928823185E+02 -0.42568860006E+02 -0.12105204566E+03  0.13247646204E+03  0.00000000000E+00 0. -1.
         11    1    1    2    0    0  0.36725617669E+01 -0.37111891738E+02  0.73553263078E+01  0.38011590909E+02  0.00000000000E+00 0.  1.
</event>
<event>
 7    1  0.2384639E-009  0.1073234E+03  0.7561462E-02  0.1265608E+00
          1   -1    0    0  501    0  0.00000000000E+00  0.00000000000E+00  0.65846297575E+02  0.65846297575E+02  0.00000000000E+00 0. -1.
         -1   -1    0    0    0  501 -0.00000000000E+00 -0.00000000000E+00 -0.28037131191E+03  0.28037131191E+03  0.00000000000E+00 0.  1.
         25    2    1    2    0    0 -0.70515579398E+01  0.62840252514E+02 -0.52009814152E+02  0.14950302689E+03  0.12509001749E+03 0.  0.
          5    1    3    3  502    0 -0.18717654072E+02  0.81555853888E+02  0.92220548491E+01  0.84286574097E+02  0.41800000000E+01 0. -1.
         -5    1    3    3    0  502  0.11666096132E+02 -0.18715601374E+02 -0.61231869001E+02  0.65216452794E+02  0.41800000000E+01 0. -1.
        -11    1    1    2    0    0 -0.11007713991E+02  0.20433753971E+02 -0.53740844604E+02  0.58538760214E+02  0.00000000000E+00 0.  1.
         11    1    1    2    0    0  0.18059271931E+02 -0.83274006485E+02 -0.10877435558E+03  0.13817582238E+03  0.00000000000E+00 0. -1.
</event>
<event>
 7    1  0.2384639E-009  0.1310677E+03  0.7561462E-02  0.1225880E+00
         -4   -1    0    0    0  501 -0.00000000000E+00  0.00000000000E+00  0.16939326402E+03  0.16939326402E+03  0.00000000000E+00 0. -1.
          4   -1    0    0  501    0  0.00000000000E+00 -0.00000000000E+00 -0.14780668270E+03  0.14780668270E+03  0.00000000000E+00 0.  1.
         25    2    1    2    0    0 -0.97344971879E+02 -0.32119462304E+02  0.62740100830E+02  0.17346763091E+03  0.12508795031E+03 0.  0.
          5    1    3    3  502    0 -0.68654421564E+01 -0.60008371759E+02  0.13693021982E+01  0.60559775146E+02  0.41800000000E+01 0. -1.
         -5    1    3    3    0  502 -0.90479529722E+02  0.27888909455E+02  0.61370798632E+02  0.11290785577E+03  0.41800000000E+01 0. -1.
        -11    1    1    2    0    0  0.33509421186E+02 -0.35443407693E+01  0.27453059481E+02  0.43463940624E+02  0.00000000000E+00 0. -1.
         11    1    1    2    0    0  0.63835550692E+02  0.35663803073E+02 -0.68606578985E+02  0.10026837518E+03  0.00000000000E+00 0.  1.
</event>
<event>
 7    1  0.2384639E-009  0.1716674E+03  0.7561462E-02  0.1176120E+00
          1   -1    0    0  501    0  0.00000000000E+00  0.00000000000E+00  0.51539776038E+02  0.51539776038E+02  0.00000000000E+00 0. -1.
         -1   -1    0    0    0  501 -0.00000000000E+00 -0.00000000000E+00 -0.65684031886E+03  0.65684031886E+03  0.00000000000E+00 0.  1.
         25    2    1    2    0    0  0.43659828517E+02 -0.14136315528E+03 -0.33871371069E+03  0.39020987662E+03  0.12508815974E+03 0.  0.
          5    1    3    3  502    0 -0.17499704989E+02 -0.22017649594E+01  0.85568275672E+00  0.18146405611E+02  0.41800000000E+01 0.  1.
         -5    1    3    3    0  502  0.61159533506E+02 -0.13916139032E+03 -0.33956939344E+03  0.37206347101E+03  0.41800000000E+01 0.  1.
        -11    1    1    2    0    0  0.77588592365E+01  0.11518192713E+03 -0.16571955245E+03  0.20196545818E+03  0.00000000000E+00 0. -1.
         11    1    1    2    0    0 -0.51418687754E+02  0.26181228149E+02 -0.10086727968E+03  0.11620476009E+03  0.00000000000E+00 0.  1.
</event>
<event>
 7    1  0.2384639E-009  0.1078224E+03  0.7561462E-02  0.1264656E+00
          2   -1    0    0  501    0  0.00000000000E+00  0.00000000000E+00  0.80159246143E+03  0.80159246143E+03  0.00000000000E+00 0. -1.
         -2   -1    0    0    0  501 -0.00000000000E+00 -0.00000000000E+00 -0.15838847425E+02  0.15838847425E+02  0.00000000000E+00 0.  1.
         25    2    1    2    0    0 -0.17999434974E+02  0.20346577616E+02  0.39742848693E+03  0.41753427640E+03  0.12508999509E+03 0.  0.
          5    1    3    3  502    0  0.33873309149E+02 -0.35557700082E+02  0.19627160116E+03  0.20236542424E+03  0.41800000000E+01 0.  1.
         -5    1    3    3    0  502 -0.51872744123E+02  0.55904277699E+02  0.20115688577E+03  0.21516885216E+03  0.41800000000E+01 0.  1.
        -11    1    1    2    0    0  0.86452757363E+01  0.33873285816E+02  0.90209616355E+02  0.96746654554E+02  0.00000000000E+00 0. -1.
         11    1    1    2    0    0  0.93541592372E+01 -0.54219863432E+02  0.29811551072E+03  0.30315037790E+03  0.00000000000E+00 0.  1.
</event>
<event>
 7    1  0.2384639E-009  0.1647749E+03  0.7561462E-02  0.1183409E+00
          1   -1    0    0  501    0  0.00000000000E+00  0.00000000000E+00  0.16701850264E+03  0.16701850264E+03  0.00000000000E+00 0. -1.
         -1   -1    0    0    0  501 -0.00000000000E+00 -0.00000000000E+00 -0.20628769247E+03  0.20628769247E+03  0.00000000000E+00 0.  1.
         25    2    1    2    0    0 -0.53031388888E+02  0.12608879485E+03  0.40058785473E+02  0.18965072759E+03  0.12510787260E+03 0.  0.
          5    1    3    3  502    0 -0.13628926439E+02  0.12546188565E+03 -0.89956377329E+01  0.12658920288E+03  0.41800000000E+01 0.  1.
         -5    1    3    3    0  502 -0.39402462449E+02  0.62690919733E+00  0.49054423206E+02  0.63061524706E+02  0.41800000000E+01 0.  1.
        -11    1    1    2    0    0  0.49528294311E+02 -0.13945437324E+02 -0.38486178099E+02  0.64255062556E+02  0.00000000000E+00 0. -1.
         11    1    1    2    0    0  0.35030945772E+01 -0.11214335753E+03 -0.40841797204E+02  0.11940040497E+03  0.00000000000E+00 0.  1.
</event>
<event>
 7    1  0.2384639E-009  0.1505490E+03  0.7561462E-02  0.1199800E+00
         -2   -1    0    0    0  501 -0.00000000000E+00  0.00000000000E+00  0.89268464546E+02  0.89268464546E+02  0.00000000000E+00 0.  1.
          2   -1    0    0  501    0  0.00000000000E+00 -0.00000000000E+00 -0.75174446676E+03  0.75174446676E+03  0.00000000000E+00 0. -1.
         25    2    1    2    0    0 -0.12782143731E+03  0.43747608987E+02 -0.29290417211E+02  0.18643305650E+03  0.12508870007E+03 0.  0.
          5    1    3    3  502    0 -0.37719978515E+02  0.14658341235E+02  0.48869902346E+02  0.63587762205E+02  0.41800000000E+01 0.  1.
         -5    1    3    3    0  502 -0.90101458798E+02  0.29089267751E+02 -0.78160319558E+02  0.12284529429E+03  0.41800000000E+01 0.  1.
        -11    1    1    2    0    0  0.51077424248E+02 -0.68099965070E+02 -0.34638867853E+03  0.35669542347E+03  0.00000000000E+00 0.  1.
         11    1    1    2    0    0  0.76744013066E+02  0.24352356083E+02 -0.28679690646E+03  0.29788445133E+03  0.00000000000E+00 0. -1.
</event>
<event>
 7    1  0.2384639E-009  0.2490503E+03  0.7561462E-02  0.1113906E+00
         -2   -1    0    0    0  501 -0.00000000000E+00  0.00000000000E+00  0.23633527340E+03  0.23633527340E+03  0.00000000000E+00 0.  1.
          2   -1    0    0  501    0  0.00000000000E+00 -0.00000000000E+00 -0.27425733112E+03  0.27425733112E+03  0.00000000000E+00 0. -1.
         25    2    1    2    0    0 -0.25669784609E+02  0.22567933397E+03 -0.57890767091E+02  0.26568731303E+03  0.12509319633E+03 0.  0.
          5    1    3    3  502    0  0.44954396906E+02  0.11415649356E+03 -0.33717158256E+01  0.12280652951E+03  0.41800000000E+01 0.  1.
         -5    1    3    3    0  502 -0.70624181515E+02  0.11152284041E+03 -0.54519051265E+02  0.14288078351E+03  0.41800000000E+01 0.  1.
        -11    1    1    2    0    0  0.56537298997E+02 -0.17524644480E+03  0.64678436290E+01  0.18425421459E+03  0.00000000000E+00 0.  1.
         11    1    1    2    0    0 -0.30867514388E+02 -0.50432889163E+02  0.13500865738E+02  0.60651076904E+02  0.00000000000E+00 0. -1.
</event>
<event>
 7    1  0.2384639E-009  0.1206930E+03  0.7561462E-02  0.1241958E+00
         -2   -1    0    0    0  501 -0.00000000000E+00  0.00000000000E+00  0.89916380593E+02  0.89916380593E+02  0.00000000000E+00 0. -1.
          2   -1    0    0  501    0  0.00000000000E+00 -0.00000000000E+00 -0.26548850945E+03  0.26548850945E+03  0.00000000000E+00 0.  1.
         25    2    1    2    0    0 -0.58897802357E+02  0.68530911644E+02 -0.22038615930E+02  0.15588066873E+03  0.12509054847E+03 0.  0.
          5    1    3    3  502    0  0.21401674177E+02  0.12934105975E+02 -0.48393926927E+02  0.54633024064E+02  0.41800000000E+01 0.  1.
         -5    1    3    3    0  502 -0.80299476534E+02  0.55596805669E+02  0.26355310998E+02  0.10124764466E+03  0.41800000000E+01 0.  1.
        -11    1    1    2    0    0 -0.96830229699E+00  0.15262630971E+02 -0.79829450517E+00  0.15314136855E+02  0.00000000000E+00 0. -1.
         11    1    1    2    0    0  0.59866104654E+02 -0.83793542614E+02 -0.15273521842E+03  0.18421008446E+03  0.00000000000E+00 0.  1.
</event>
<event>
 7    1  0.2384639E-009  0.9089937E+02  0.7561462E-02  0.1300688E+00
         -1   -1    0    0    0  501 -0.00000000000E+00  0.00000000000E+00  0.28324904530E+02  0.28324904530E+02  0.00000000000E+00 0.  1.
          1   -1    0    0  501    0  0.00000000000E+00 -0.00000000000E+00 -0.62871664945E+03  0.62871664945E+03  0.00000000000E+00 0. -1.
         25    2    1    2    0    0  0.62866344575E+02  0.26938073564E+02 -0.42495005630E+03  0.44822738704E+03  0.12508958014E+03 0.  0.
          5    1    3    3  502    0  0.15925818956E+02  0.62023953768E+00 -0.37283017563E+03  0.37319408981E+03  0.41800000000E+01 0. -1.
         -5    1    3    3    0  502  0.46940525619E+02  0.26317834027E+02 -0.52119880667E+02  0.75033297235E+02  0.41800000000E+01 0. -1.
        -11    1    1    2    0    0 -0.61721520124E+02 -0.55353178898E+02 -0.14588924750E+03  0.16780105183E+03  0.00000000000E+00 0. -1.
         11    1    1    2    0    0 -0.11448244512E+01  0.28415105333E+02 -0.29552441121E+02  0.41013115102E+02  0.00000000000E+00 0.  1.
</event>
<event>
 7    1  0.2384639E-009  0.8496299E+02  0.7561462E-02  0.1315529E+00
          1   -1    0    0  501    0  0.00000000000E+00  0.00000000000E+00  0.40037779144E+03  0.40037779144E+03  0.00000000000E+00 0. -1.
         -1   -1    0    0    0  501 -0.00000000000E+00 -0.00000000000E+00 -0.48436245342E+02  0.48436245342E+02  0.00000000000E+00 0.  1.
         25    2    1    2    0    0  0.42883682007E+02  0.65701689226E+02  0.26118595260E+03  0.30003682013E+03  0.12509304318E+03 0.  0.
          5    1    3    3  502    0  0.15999883704E+02  0.61630814921E+02  0.26471893387E+03  0.27230119349E+03  0.41800000000E+01 0. -1.
         -5    1    3    3    0  502  0.26883798302E+02  0.40708743045E+01 -0.35329812712E+01  0.27735626646E+02  0.41800000000E+01 0. -1.
        -11    1    1    2    0    0 -0.35037542970E+02 -0.50024056408E+02  0.50338493491E+01  0.61281116799E+02  0.00000000000E+00 0.  1.
         11    1    1    2    0    0 -0.78461390364E+01 -0.15677632818E+02  0.85721744146E+02  0.87496099845E+02  0.00000000000E+00 0. -1.
</event>
<event>
 7    1  0.2384639E-009  0.8028422E+02  0.7561462E-02  0.1328247E+00
          2   -1    0    0  501    0  0.00000000000E+00  0.00000000000E+00  0.33927600911E+03  0.33927600911E+03  0.00000000000E+00 0. -1.
         -2   -1    0    0    0  501 -0.00000000000E+00 -0.00000000000E+00 -0.40211133246E+02  0.40211133246E+02  0.00000000000E+00 0.  1.
         25    2    1    2    0    0 -0.20015563256E+02  0.27250274863E+02  0.20892609054E+03  0.24584662289E+03  0.12508897005E+03 0.  0.
          5    1    3    3  502    0 -0.44282807089E+02  0.61877549896E+02  0.81749962852E+02  0.11176013158E+03  0.41800000000E+01 0.  1.
         -5    1    3    3    0  502  0.24267243833E+02 -0.34627275033E+02  0.12717612768E+03  0.13408649131E+03  0.41800000000E+01 0.  1.
        -11    1    1    2    0    0 -0.45579711163E+01 -0.12279357468E+02 -0.17705353643E+02  0.22023561659E+02  0.00000000000E+00 0.  1.
         11    1    1    2    0    0  0.24573534373E+02 -0.14970917396E+02  0.10784413897E+03  0.11161695780E+03  0.00000000000E+00 0. -1.
</event>
<event>
 7    1  0.2384639E-009  0.1105644E+03  0.7561462E-02  0.1259528E+00
         -1   -1    0    0    0  501 -0.00000000000E+00  0.00000000000E+00  0.32854074067E+03  0.32854074067E+03  0.00000000000E+00 0.  1.
          1   -1    0    0  501    0  0.00000000000E+00 -0.00000000000E+00 -0.51439428664E+02  0.51439428664E+02  0.00000000000E+00 0. -1.
         25    2    1    2    0    0 -0.23883707930E+02 -0.73504216370E+02  0.14898437442E+03  0.20932334814E+03  0.12508644582E+03 0.  0.
          5    1    3    3  502    0 -0.57243262691E+02 -0.89528045347E+02  0.12856695906E+03  0.16685022442E+03  0.41800000000E+01 0. -1.
         -5    1    3    3    0  502  0.33359554761E+02  0.16023828977E+02  0.20417415358E+02  0.42473123723E+02  0.41800000000E+01 0. -1.
        -11    1    1    2    0    0  0.21087614960E+02  0.56517181101E+02  0.13813953634E+03  0.15073622910E+03  0.00000000000E+00 0.  1.
         11    1    1    2    0    0  0.27960929693E+01  0.16987035270E+02 -0.10022598754E+02  0.19920592083E+02  0.00000000000E+00 0. -1.
</event>
<event>
 7    1  0.2384639E-009  0.2023977E+03  0.7561462E-02  0.1147732E+00
          1   -1    0    0  501    0  0.00000000000E+00  0.00000000000E+00  0.51639469145E+02  0.51639469145E+02  0.00000000000E+00 0. -1.
         -1   -1    0    0    0  501 -0.00000000000E+00 -0.00000000000E+00 -0.88235804191E+03  0.88235804191E+03  0.00000000000E+00 0.  1.
         25    2    1    2    0    0 -0.17802953555E+03  0.43664024189E+02 -0.43186897512E+03  0.48555052541E+03  0.12508972188E+03 0.  0.
          5    1    3    3  502    0 -0.10452259907E+03 -0.18111181439E+02 -0.12507847461E+03  0.16405817815E+03  0.41800000000E+01 0.  1.
         -5    1    3    3    0  502 -0.73506936486E+02  0.61775205628E+02 -0.30679050052E+03  0.32149234726E+03  0.41800000000E+01 0.  1.
        -11    1    1    2    0    0  0.11094084217E+03 -0.69184470201E+02 -0.28935044588E+03  0.31751856939E+03  0.00000000000E+00 0.  1.
         11    1    1    2    0    0  0.67088693384E+02  0.25520446012E+02 -0.10949915176E+03  0.13092841625E+03  0.00000000000E+00 0. -1.
</event>
<event>
 7    1  0.2384639E-009  0.1350128E+03  0.7561462E-02  0.1220202E+00
         -1   -1    0    0    0  501 -0.00000000000E+00  0.00000000000E+00  0.34956971433E+02  0.34956971433E+02  0.00000000000E+00 0. -1.
          1   -1    0    0  501    0  0.00000000000E+00 -0.00000000000E+00 -0.82529655208E+03  0.82529655208E+03  0.00000000000E+00 0.  1.
         25    2    1    2    0    0  0.14357048376E+02  0.12469821987E+03 -0.51021922920E+03  0.54011704469E+03  0.12508792605E+03 0.  0.
          5    1    3    3  502    0  0.73248776288E+01  0.12737074587E+03 -0.51478456533E+03  0.53037494458E+03  0.41800000000E+01 0.  1.
         -5    1    3    3    0  502  0.70321707471E+01 -0.26725260035E+01  0.45653361278E+01  0.97421001132E+01  0.41800000000E+01 0.  1.
        -11    1    1    2    0    0  0.72634404016E+01 -0.10259034464E+03 -0.26776439954E+03  0.28683673063E+03  0.00000000000E+00 0.  1.
         11    1    1    2    0    0 -0.21620488777E+02 -0.22107875229E+02 -0.12355951911E+02  0.33299748193E+02  0.00000000000E+00 0. -1.
</event>
<event>
 7    1  0.2384639E-009  0.9696426E+02  0.7561462E-02  0.1286812E+00
         -1   -1    0    0    0  501 -0.00000000000E+00  0.00000000000E+00  0.16491422574E+02  0.16491422574E+02  0.00000000000E+00 0.  1.
          1   -1    0    0  501    0  0.00000000000E+00 -0.00000000000E+00 -0.85396697490E+03  0.85396697490E+03  0.00000000000E+00 0. -1.
         25    2    1    2    0    0 -0.18605590095E+02 -0.39447156800E+02 -0.45086743251E+03  0.46992586848E+03  0.12508650610E+03 0.  0.
          5    1    3    3  502    0 -0.37141783282E+02  0.20448679877E+02 -0.57460485090E+02  0.71532092943E+02  0.41800000000E+01 0.  1.
         -5    1    3    3    0  502  0.18536193187E+02 -0.59895836677E+02 -0.39340694742E+03  0.39839377554E+03  0.41800000000E+01 0.  1.
        -11    1    1    2    0    0 -0.29112654208E+02  0.47746385542E+01 -0.44594042656E+02  0.53469359905E+02  0.00000000000E+00 0.  1.
         11    1    1    2    0    0  0.47718244303E+02  0.34672518246E+02 -0.34201407716E+03  0.34706316908E+03  0.00000000000E+00 0. -1.
</event>
<event>
 7    1  0.2384639E-009  0.9763312E+02  0.7561462E-02  0.1285353E+00
          1   -1    0    0  501    0  0.00000000000E+00  0.00000000000E+00  0.34835942311E+03  0.34835942311E+03  0.00000000000E+00 0. -1.
         -1   -1    0    0    0  501 -0.00000000000E+00 -0.00000000000E+00 -0.44683028466E+02  0.44683028466E+02  0.00000000000E+00 0.  1.
         25    2    1    2    0    0 -0.51008399557E+02 -0.15888665172E+02  0.22107036781E+03  0.25956530639E+03  0.12509090395E+03 0.  0.
          5    1    3    3  502    0 -0.78361049305E+02  0.62136780193E+01  0.73130755120E+02  0.10744600312E+03  0.41800000000E+01 0.  1.
         -5    1    3    3    0  502  0.27352649748E+02 -0.22102343191E+02  0.14793961269E+03  0.15211930327E+03  0.41800000000E+01 0.  1.
        -11    1    1    2    0    0 -0.55988603016E+01  0.23373003683E+02 -0.88900524899E+01  0.25625720889E+02  0.00000000000E+00 0.  1.
         11    1    1    2    0    0  0.56607259859E+02 -0.74843385113E+01  0.91496079320E+02  0.10785142430E+03  0.00000000000E+00 0. -1.
</event>
<event>
 7    1  0.2384639E-009  0.2161562E+03  0.7561462E-02  0.1136782E+00
          2   -1    0    0  501    0  0.00000000000E+00  0.00000000000E+00  0.60164712541E+03  0.60164712541E+03  0.00000000000E+00 0. -1.
         -2   -1    0    0    0  501 -0.00000000000E+00 -0.00000000000E+00 -0.83056150988E+02  0.83056150988E+02  0.00000000000E+00 0.  1.
         25    2    1    2    0    0 -0.13478676451E+03 -0.13752407197E+03  0.32521749127E+03  0.39811531614E+03  0.12509614724E+03 0.  0.
          5    1    3    3  502    0  0.83504914381E+01 -0.54569303444E+02  0.13542924603E+03  0.14630821121E+03  0.41800000000E+01 0. -1.
         -5    1    3    3    0  502 -0.14313725595E+03 -0.82954768524E+02  0.18978824524E+03  0.25180710493E+03  0.41800000000E+01 0. -1.
        -11    1    1    2    0    0  0.14189219617E+03  0.10079521531E+03  0.15656960342E+03  0.23410918709E+03  0.00000000000E+00 0. -1.
         11    1    1    2    0    0 -0.71054316581E+01  0.36728856657E+02  0.36803879731E+02  0.52478773172E+02  0.00000000000E+00 0.  1.
</event>
<event>
 7    1  0.2384639E-009  0.1401933E+03  0.7561462E-02  0.1213069E+00
         -1   -1    0    0    0  501 -0.00000000000E+00  0.00000000000E+00  0.81785279701E+02  0.81785279701E+02  0.00000000000E+00 0.  1.
          1   -1    0    0  501    0  0.00000000000E+00 -0.00000000000E+00 -0.11373295889E+04  0.11373295889E+04  0.00000000000E+00 0. -1.
         25    2    1    2    0    0 -0.92632362708E+02  0.34646594215E+02 -0.10750983972E+04  0.10868604499E+04  0.12509169691E+03 0.  0.
          5    1    3    3  502    0  0.20350702249E+02  0.30086706025E+02 -0.45926638921E+03  0.46071949125E+03  0.41800000000E+01 0. -1.
         -5    1    3    3    0  502 -0.11298306496E+03  0.45598881894E+01 -0.61583200801E+03  0.62614095860E+03  0.41800000000E+01 0. -1.
        -11    1    1    2    0    0  0.46231680389E+02 -0.61593532321E+02  0.14412581724E+02  0.78350839226E+02  0.00000000000E+00 0.  1.
         11    1    1    2    0    0  0.46400682318E+02  0.26946938106E+02  0.51415063445E+01  0.53903579477E+02  0.00000000000E+00 0. -1.
</event>
<event>
 7    1  0.2384639E-009  0.1876939E+03  0.7561462E-02  0.1160558E+00
         -1   -1    0    0    0  501 -0.00000000000E+00  0.00000000000E+00  0.75987021753E+03  0.75987021753E+03  0.00000000000E+00 0.  1.
          1   -1    0    0  501    0  0.00000000000E+00 -0.00000000000E+00 -0.60505644243E+02  0.60505644243E+02  0.00000000000E+00 0. -1.
         25    2    1    2    0    0  0.13516179869E+03 -0.11592655623E+03  0.46362031215E+03  0.51215111340E+03  0.12508913164E+03 0.  0.
          5    1    3    3  502    0  0.93642750508E+02 -0.69306575370E+02  0.42000156466E+03  0.43587974584E+03  0.41800000000E+01 0. -1.
         -5    1    3    3    0  502  0.41519048184E+02 -0.46619980862E+02  0.43618747490E+02  0.76271367565E+02  0.41800000000E+01 0. -1.
        -11    1    1    2    0    0 -0.13842001783E+03  0.79405669772E+02  0.20842518684E+03  0.26250032427E+03  0.00000000000E+00 0. -1.
         11    1    1    2    0    0  0.32582191403E+01  0.36520886461E+02  0.27319074295E+02  0.45724424110E+02  0.00000000000E+00 0.  1.
</event>
<event>
 7    1  0.2384639E-009  0.1010557E+03  0.7561462E-02  0.1278091E+00
         -1   -1    0    0    0  501 -0.00000000000E+00  0.00000000000E+00  0.73725861223E+02  0.73725861223E+02  0.00000000000E+00 0.  1.
          1   -1    0    0  501    0  0.00000000000E+00 -0.00000000000E+00 -0.26702712427E+03  0.26702712427E+03  0.00000000000E+00 0. -1.
         25    2    1    2    0    0  0.28697486455E+01 -0.64045623843E+02 -0.36003025806E+02  0.14509809917E+03  0.12508862108E+03 0.  0.
          5    1    3    3  502    0 -0.26806778154E+02 -0.27256073898E+02 -0.74601369020E+02  0.83930528290E+02  0.41800000000E+01 0.  1.
         -5    1    3    3    0  502  0.29676526799E+02 -0.36789549945E+02  0.38598343214E+02  0.61167570877E+02  0.41800000000E+01 0.  1.
        -11    1    1    2    0    0  0.24291084031E+02  0.80744410497E+02 -0.11848980067E+03  0.14542884670E+03  0.00000000000E+00 0.  1.
         11    1    1    2    0    0 -0.27160832677E+02 -0.16698786654E+02 -0.38808436575E+02  0.50226039629E+02  0.00000000000E+00 0. -1.
</event>
<event>
 7    1  0.2384639E-009  0.1030906E+03  0.7561462E-02  0.1273928E+00
         -2   -1    0    0    0  501 -0.00000000000E+00  0.00000000000E+00  0.14052603832E+02  0.14052603832E+02  0.00000000000E+00 0.  1.
          2   -1    0    0  501    0  0.00000000000E+00 -0.00000000000E+00 -0.10773717870E+04  0.10773717870E+04  0.00000000000E+00 0. -1.
         25    2    1    2    0    0  0.60070667760E+02  0.20825516284E+02 -0.62694770163E+03  0.64245866548E+03  0.12509008362E+03 0.  0.
          5    1    3    3  502    0  0.13440408608E+02  0.46215227140E+02 -0.83974548500E+02  0.96879765683E+02  0.41800000000E+01 0. -1.
         -5    1    3    3    0  502  0.46630259152E+02 -0.25389710856E+02 -0.54297315313E+03  0.54557889980E+03  0.41800000000E+01 0. -1.
        -11    1    1    2    0    0 -0.57149195760E+02  0.22330229696E+02 -0.22513727486E+03  0.23334837104E+03  0.00000000000E+00 0.  1.
         11    1    1    2    0    0 -0.29214720000E+01 -0.43155745980E+02 -0.21123420664E+03  0.21561735427E+03  0.00000000000E+00 0. -1.
</event>
<event>
 7    1  0.2384639E-009  0.1057645E+03  0.7561462E-02  0.1268621E+00
          3   -1    0    0  501    0  0.00000000000E+00  0.00000000000E+00  0.89165513579E+02  0.89165513579E+02  0.00000000000E+00 0. -1.
         -3   -1    0    0    0  501 -0.00000000000E+00 -0.00000000000E+00 -0.15882179284E+03  0.15882179284E+03  0.00000000000E+00 0.  1.
         25    2    1    2    0    0  0.43852587115E+02 -0.17671451043E+01 -0.62364532272E+02  0.14649782238E+03  0.12508439103E+03 0.  0.
          5    1    3    3  502    0  0.86486757466E+02  0.11732439150E+02 -0.45546353337E+02  0.98537059261E+02  0.41800000000E+01 0.  1.
         -5    1    3    3    0  502 -0.42634170352E+02 -0.13499584254E+02 -0.16818178935E+02  0.47960763123E+02  0.41800000000E+01 0.  1.
        -11    1    1    2    0    0 -0.49531265378E+02 -0.22435003802E+02  0.25730535702E+02  0.60155931653E+02  0.00000000000E+00 0. -1.
         11    1    1    2    0    0  0.56786782633E+01  0.24202148907E+02 -0.33022282689E+02  0.41333552382E+02  0.00000000000E+00 0.  1.
</event>
<event>
 7    1  0.2384639E-009  0.8049060E+02  0.7561462E-02  0.1327665E+00
         -2   -1    0    0    0  501 -0.00000000000E+00  0.00000000000E+00  0.61423479284E+02  0.61423479284E+02  0.00000000000E+00 0.  1.
          2   -1    0    0  501    0  0.00000000000E+00 -0.00000000000E+00 -0.24411461592E+03  0.24411461592E+03  0.00000000000E+00 0. -1.
         25    2    1    2    0    0  0.41609986295E+02  0.13517257740E+02 -0.13578001287E+03  0.18973033500E+03  0.12508909188E+03 0.  0.
          5    1    3    3  502    0  0.51382659097E+02  0.50240710669E+02 -0.13320718371E+03  0.15141311983E+03  0.41800000000E+01 0. -1.
         -5    1    3    3    0  502 -0.97726728019E+01 -0.36723452929E+02 -0.25728291617E+01  0.38317215173E+02  0.41800000000E+01 0. -1.
        -11    1    1    2    0    0 -0.11728945573E+02 -0.17030903843E+02  0.28156995966E+02  0.34934743048E+02  0.00000000000E+00 0.  1.
         11    1    1    2    0    0 -0.29881040722E+02  0.35136461031E+01 -0.75068119734E+02  0.80873017157E+02  0.00000000000E+00 0. -1.
</event>
<event>
 7    1  0.2384639E-009  0.7383664E+02  0.7561462E-02  0.1347512E+00
         -1   -1    0    0    0  501 -0.00000000000E+00  0.00000000000E+00  0.11811572917E+02  0.11811572917E+02  0.00000000000E+00 0.  1.
          1   -1    0    0  501    0  0.00000000000E+00 -0.00000000000E+00 -0.15944329330E+04  0.15944329330E+04  0.00000000000E+00 0. -1.
         25    2    1    2    0    0 -0.27909092491E+02 -0.36933106635E+01 -0.13410522132E+04  0.13471677424E+04  0.12508928597E+03 0.  0.
          5    1    3    3  502    0  0.14904249500E+02  0.85913643753E+01 -0.11767711519E+04  0.11769043141E+04  0.41800000000E+01 0.  1.
         -5    1    3    3    0  502 -0.42813341991E+02 -0.12284675039E+02 -0.16428106135E+03  0.17026342829E+03  0.41800000000E+01 0.  1.
        -11    1    1    2    0    0 -0.25982391943E+02 -0.12676876962E+02 -0.37340472379E+02  0.47223921672E+02  0.00000000000E+00 0.  1.
         11    1    1    2    0    0  0.53891484434E+02  0.16370187626E+02 -0.20422867451E+03  0.21185284192E+03  0.00000000000E+00 0. -1.
</event>
<event>
 7    1  0.2384639E-009  0.1019697E+03  0.7561462E-02  0.1276208E+00
          2   -1    0    0  501    0  0.00000000000E+00  0.00000000000E+00  0.19016642922E+03  0.19016642922E+03  0.00000000000E+00 0. -1.
         -2   -1    0    0    0  501 -0.00000000000E+00 -0.00000000000E+00 -0.10584035100E+03  0.10584035100E+03  0.00000000000E+00 0.  1.
         25    2    1    2    0    0  0.71434572912E+02 -0.52223603444E+02  0.65068246234E+02  0.16646729475E+03  0.12508909061E+03 0.  0.
          5    1    3    3  502    0  0.47427615916E+01 -0.27380367785E+02  0.87363005961E+02  0.91771158531E+02  0.41800000000E+01 0. -1.
         -5    1    3    3    0  502  0.66691811320E+02 -0.24843235659E+02 -0.22294759727E+02  0.74696136222E+02  0.41800000000E+01 0. -1.
        -11    1    1    2    0    0 -0.15059426699E+02  0.45313442099E+02  0.46408044835E+02  0.66586792931E+02  0.00000000000E+00 0. -1.
         11    1    1    2    0    0 -0.56375146213E+02  0.69101613450E+01 -0.27150212843E+02  0.62952692538E+02  0.00000000000E+00 0.  1.
</event>
<event>
 7    1  0.2384639E-009  0.8365096E+02  0.7561462E-02  0.1318999E+00
          1   -1    0    0  501    0  0.00000000000E+00  0.00000000000E+00  0.77836565083E+03  0.77836565083E+03  0.00000000000E+00 0. -1.
         -1   -1    0    0    0  501 -0.00000000000E+00 -0.00000000000E+00 -0.18386242145E+02  0.18386242145E+02  0.00000000000E+00 0.  1.
         25    2    1    2    0    0 -0.20156400611E+01  0.35513542416E+02  0.53925957254E+03  0.55471945681E+03  0.12509002635E+03 0.  0.
          5    1    3    3  502    0 -0.28971061856E+02  0.26161784532E+02  0.45404984966E+02  0.60023715769E+02  0.41800000000E+01 0.  1.
         -5    1    3    3    0  502  0.26955421795E+02  0.93517578841E+01  0.49385458757E+03  0.49469574104E+03  0.41800000000E+01 0.  1.
        -11    1    1    2    0    0  0.39739411739E+02 -0.45274410854E+02  0.12860440341E+03  0.14201438554E+03  0.00000000000E+00 0.  1.
         11    1    1    2    0    0 -0.37723771678E+02  0.97608684380E+01  0.92115432732E+02  0.10001805062E+03  0.00000000000E+00 0. -1.
</event>
<event>
 7    1  0.2384639E-009  0.1489734E+03  0.7561462E-02  0.1201740E+00
          1   -1    0    0  501    0  0.00000000000E+00  0.00000000000E+00  0.50032547911E+03  0.50032547911E+03  0.00000000000E+00 0. -1.
         -1   -1    0    0    0  501 -0.00000000000E+00 -0.00000000000E+00 -0.53543601734E+02  0.53543601734E+02  0.00000000000E+00 0.  1.
         25    2    1    2    0    0  0.82018949075E+02  0.89539612081E+02  0.26774461339E+03  0.31950379885E+03  0.12510415397E+03 0.  0.
          5    1    3    3  502    0 -0.31484001714E+02  0.38157323146E+02  0.79199002027E+02  0.93472873047E+02  0.41800000000E+01 0. -1.
         -5    1    3    3    0  502  0.11350295079E+03  0.51382288935E+02  0.18854561136E+03  0.22603092580E+03  0.41800000000E+01 0. -1.
        -11    1    1    2    0    0 -0.30196142104E+02 -0.50177949888E+02  0.18943876909E+02  0.61550825545E+02  0.00000000000E+00 0.  1.
         11    1    1    2    0    0 -0.51822806971E+02 -0.39361662193E+02  0.16009338708E+03  0.17281445645E+03  0.00000000000E+00 0. -1.
</event>
<event>
 7    1  0.2384639E-009  0.2008998E+03  0.7561462E-02  0.1148982E+00
         -3   -1    0    0    0  501 -0.00000000000E+00  0.00000000000E+00  0.19150763435E+03  0.19150763435E+03  0.00000000000E+00 0.  1.
          3   -1    0    0  501    0  0.00000000000E+00 -0.00000000000E+00 -0.21923161390E+03  0.21923161390E+03  0.00000000000E+00 0. -1.
         25    2    1    2    0    0 -0.25947646584E+01  0.17261992667E+03 -0.29708327922E+02  0.21525404489E+03  0.12508935689E+03 0.  0.
          5    1    3    3  502    0 -0.24165526320E+02 -0.11939147672E+02 -0.54498090001E+01  0.27815260696E+02  0.41800000000E+01 0. -1.
         -5    1    3    3    0  502  0.21570761662E+02  0.18455907434E+03 -0.24258518921E+02  0.18743878420E+03  0.41800000000E+01 0. -1.
        -11    1    1    2    0    0  0.25545814115E+02 -0.16085401377E+03  0.19901353313E+02  0.16408127934E+03  0.00000000000E+00 0.  1.
         11    1    1    2    0    0 -0.22951049457E+02 -0.11765912894E+02 -0.17917004940E+02  0.31403924013E+02  0.00000000000E+00 0. -1.
</event>
<event>
 7    1  0.2384639E-009  0.1595117E+03  0.7561462E-02  0.1189249E+00
          2   -1    0    0  501    0  0.00000000000E+00  0.00000000000E+00  0.44610067273E+03  0.44610067273E+03  0.00000000000E+00 0. -1.
         -2   -1    0    0    0  501 -0.00000000000E+00 -0.00000000000E+00 -0.64550281759E+02  0.64550281759E+02  0.00000000000E+00 0.  1.
         25    2    1    2    0    0 -0.11438118327E+03 -0.25411726966E+02  0.11687377448E+03  0.20745379778E+03  0.12509511621E+03 0.  0.
          5    1    3    3  502    0 -0.98473384816E+02 -0.71924251917E+02  0.80957362411E+02  0.14642975264E+03  0.41800000000E+01 0. -1.
         -5    1    3    3    0  502 -0.15907798455E+02  0.46512524951E+02  0.35916412067E+02  0.61024045136E+02  0.41800000000E+01 0. -1.
        -11    1    1    2    0    0  0.20817195348E+02 -0.31797295311E+02  0.75670472739E+02  0.84678474572E+02  0.00000000000E+00 0.  1.
         11    1    1    2    0    0  0.93563987922E+02  0.57209022277E+02  0.18900614375E+03  0.21851868213E+03  0.00000000000E+00 0. -1.
</event>
<event>
 7    1  0.2384639E-009  0.1181347E+03  0.7561462E-02  0.1246206E+00
          2   -1    0    0  501    0  0.00000000000E+00  0.00000000000E+00  0.41328784700E+03  0.41328784700E+03  0.00000000000E+00 0. -1.
         -2   -1    0    0    0  501 -0.00000000000E+00 -0.00000000000E+00 -0.60495699555E+02  0.60495699555E+02  0.00000000000E+00 0.  1.
         25    2    1    2    0    0  0.72229604616E+02 -0.33347938334E+02  0.64608800884E+02  0.16171334057E+03  0.12509079339E+03 0.  0.
          5    1    3    3  502    0 -0.18323258440E+01 -0.43573656056E+02 -0.20484206724E+02  0.48364202105E+02  0.41800000000E+01 0. -1.
         -5    1    3    3    0  502  0.74061930460E+02  0.10225717722E+02  0.85093007608E+02  0.11334913846E+03  0.41800000000E+01 0. -1.
        -11    1    1    2    0    0 -0.17309068460E+02 -0.29444031222E+02  0.11280727590E+03  0.11786448287E+03  0.00000000000E+00 0. -1.
         11    1    1    2    0    0 -0.54920536156E+02  0.62791969556E+02  0.17537607065E+03  0.19420572311E+03  0.00000000000E+00 0.  1.
</event>
<event>
 7    1  0.2384639E-009  0.1656777E+03  0.7561462E-02  0.1182432E+00
         -1   -1    0    0    0  501 -0.00000000000E+00  0.00000000000E+00  0.86203994093E+02  0.86203994093E+02  0.00000000000E+00 0.  1.
          1   -1    0    0  501    0  0.00000000000E+00 -0.00000000000E+00 -0.57643697065E+03  0.57643697065E+03  0.00000000000E+00 0. -1.
         25    2    1    2    0    0 -0.13426527971E+03 -0.83593351478E+02 -0.86274496331E+02  0.21933780722E+03  0.12510304238E+03 0.  0.
          5    1    3    3  502    0 -0.48416256210E+02 -0.29428013510E+01  0.27164997242E+02  0.55751263845E+02  0.41800000000E+01 0.  1.
         -5    1    3    3    0  502 -0.85849023495E+02 -0.80650550127E+02 -0.11343949357E+03  0.16358654337E+03  0.41800000000E+01 0.  1.
        -11    1    1    2    0    0  0.49394906456E+02  0.57951638811E+02 -0.94315755606E+02  0.12121761828E+03  0.00000000000E+00 0.  1.
         11    1    1    2    0    0  0.84870373249E+02  0.25641712667E+02 -0.30964272462E+03  0.32208553925E+03  0.00000000000E+00 0. -1.
</event>
<event>
 7    1  0.2384639E-009  0.1307201E+03  0.7561462E-02  0.1226391E+00
          4   -1    0    0  501    0  0.00000000000E+00  0.00000000000E+00  0.62123126574E+02  0.62123126574E+02  0.00000000000E+00 0. -1.
         -4   -1    0    0    0  501 -0.00000000000E+00 -0.00000000000E+00 -0.43744825126E+03  0.43744825126E+03  0.00000000000E+00 0.  1.
         25    2    1    2    0    0 -0.83682111059E+02 -0.89308889633E+02 -0.18891073228E+03  0.25751514147E+03  0.12509200548E+03 0.  0.
          5    1    3    3  502    0 -0.25970371149E+02 -0.72381334819E+02 -0.18100938815E+03  0.19671143537E+03  0.41800000000E+01 0. -1.
         -5    1    3    3    0  502 -0.57711739910E+02 -0.16927554814E+02 -0.79013441246E+01  0.60803706091E+02  0.41800000000E+01 0. -1.
        -11    1    1    2    0    0  0.20441907486E+02  0.10157354717E+02  0.68624732468E+01  0.23835624086E+02  0.00000000000E+00 0. -1.
         11    1    1    2    0    0  0.63240203573E+02  0.79151534916E+02 -0.19327686566E+03  0.21822061228E+03  0.00000000000E+00 0.  1.
</event>
<event>
 7    1  0.2384639E-009  0.1998706E+03  0.7561462E-02  0.1149848E+00
          2   -1    0    0  501    0  0.00000000000E+00  0.00000000000E+00  0.98311434928E+02  0.98311434928E+02  0.00000000000E+00 0. -1.
         -2   -1    0    0    0  501 -0.00000000000E+00 -0.00000000000E+00 -0.78097132801E+03  0.78097132801E+03  0.00000000000E+00 0.  1.
         25    2    1    2    0    0  0.51442574733E+01  0.17279898189E+03 -0.64527400035E+03  0.67964200611E+03  0.12509504157E+03 0.  0.
          5    1    3    3  502    0  0.46034530848E+02  0.16232314192E+03 -0.55089834892E+03  0.57617223438E+03  0.41800000000E+01 0.  1.
         -5    1    3    3    0  502 -0.40890273375E+02  0.10475839972E+02 -0.94375651430E+02  0.10346977173E+03  0.41800000000E+01 0.  1.
        -11    1    1    2    0    0  0.98015925842E+01 -0.17331575495E+03 -0.17092318352E+02  0.17443213430E+03  0.00000000000E+00 0. -1.
         11    1    1    2    0    0 -0.14945850058E+02  0.51677305075E+00 -0.20293574387E+02  0.25208622528E+02  0.00000000000E+00 0.  1.
</event>
<event>
 7    1  0.2384639E-009  0.1996875E+03  0.7561462E-02  0.1150003E+00
         -1   -1    0    0    0  501 -0.00000000000E+00  0.00000000000E+00  0.58786230899E+02  0.58786230899E+02  0.00000000000E+00 0.  1.
          1   -1    0    0  501    0  0.00000000000E+00 -0.00000000000E+00 -0.74188056666E+03  0.74188056666E+03  0.00000000000E+00 0. -1.
         25    2    1    2    0    0  0.17469117673E+03  0.26097082851E+02 -0.32525113716E+03  0.39068409982E+03  0.12509076171E+03 0.  0.
          5    1    3    3  502    0 -0.10833218202E+02  0.51306649264E+01 -0.87206567485E+02  0.88125706531E+02  0.41800000000E+01 0. -1.
         -5    1    3    3    0  502  0.18552439494E+03  0.20966417925E+02 -0.23804456967E+03  0.30255839329E+03  0.41800000000E+01 0. -1.
        -11    1    1    2    0    0 -0.16186717510E+03 -0.52836767784E+02 -0.31034020427E+03  0.35398269561E+03  0.00000000000E+00 0.  1.
         11    1    1    2    0    0 -0.12824001638E+02  0.26739684933E+02 -0.47502994335E+02  0.56000002135E+02  0.00000000000E+00 0. -1.
</event>
<event>
 7    1  0.2384639E-009  0.1259368E+03  0.7561462E-02  0.1233612E+00
         -2   -1    0    0    0  501 -0.00000000000E+00  0.00000000000E+00  0.55817041421E+02  0.55817041421E+02  0.00000000000E+00 0.  1.
          2   -1    0    0  501    0  0.00000000000E+00 -0.00000000000E+00 -0.48804696384E+03  0.48804696384E+03  0.00000000000E+00 0. -1.
         25    2    1    2    0    0 -0.11835967679E+03 -0.12375448287E+02 -0.28772046314E+03  0.33555370807E+03  0.12510420169E+03 0.  0.
          5    1    3    3  502    0  0.52196832751E+01 -0.58478674179E+01 -0.15035818992E+03  0.15062038481E+03  0.41800000000E+01 0.  1.
         -5    1    3    3    0  502 -0.12357936006E+03 -0.65275808691E+01 -0.13736227322E+03  0.18493332325E+03  0.41800000000E+01 0.  1.
        -11    1    1    2    0    0  0.31945483193E+02  0.56541107205E+00  0.77164482096E+01  0.32869091242E+02  0.00000000000E+00 0.  1.
         11    1    1    2    0    0  0.86414193594E+02  0.11810037215E+02 -0.15222590749E+03  0.17544120595E+03  0.00000000000E+00 0. -1.
</event>
<event>
 7    1  0.2384639E-009  0.1211637E+03  0.7561462E-02  0.1241190E+00
         -3   -1    0    0    0  501 -0.00000000000E+00  0.00000000000E+00  0.56872924900E+02  0.56872924900E+02  0.00000000000E+00 0.  1.
          3   -1    0    0  501    0  0.00000000000E+00 -0.00000000000E+00 -0.33406866217E+03  0.33406866217E+03  0.00000000000E+00 0. -1.
         25    2    1    2    0    0  0.72638731566E+02  0.28869119284E+02 -0.19505790290E+03  0.24455103751E+03  0.12509121907E+03 0.  0.
          5    1    3    3  502    0 -0.35155599912E+02  0.83216330760E+01 -0.35237812030E+02  0.50639328381E+02  0.41800000000E+01 0. -1.
         -5    1    3    3    0  502  0.10779433148E+03  0.20547486208E+02 -0.15982009088E+03  0.19391170913E+03  0.41800000000E+01 0. -1.
        -11    1    1    2    0    0 -0.40157166251E+02  0.13850637420E+02 -0.82421368983E+02  0.92723892408E+02  0.00000000000E+00 0. -1.
         11    1    1    2    0    0 -0.32481565315E+02 -0.42719756704E+02  0.28353461966E+00  0.53666657154E+02  0.00000000000E+00 0.  1.
</event>
<event>
 7    1  0.2384639E-009  0.1014563E+03  0.7561462E-02  0.1277263E+00
         -1   -1    0    0    0  501 -0.00000000000E+00  0.00000000000E+00  0.25725958936E+02  0.25725958936E+02  0.00000000000E+00 0.  1.
          1   -1    0    0  501    0  0.00000000000E+00 -0.00000000000E+00 -0.60565977698E+03  0.60565977698E+03  0.00000000000E+00 0. -1.
         25    2    1    2    0    0 -0.49252912284E+02 -0.75065875811E+01 -0.41567163538E+03  0.43693558570E+03  0.12509036479E+03 0.  0.
          5    1    3    3  502    0 -0.73719905286E+02 -0.25237178872E+01 -0.40084492980E+03  0.40759676610E+03  0.41800000000E+01 0.  1.
         -5    1    3    3    0  502  0.24466993002E+02 -0.49828696939E+01 -0.14826705578E+02  0.29338819596E+02  0.41800000000E+01 0.  1.
        -11    1    1    2    0    0 -0.12712541733E+02  0.34018162968E+02 -0.65251006660E+02  0.74676221109E+02  0.00000000000E+00 0.  1.
         11    1    1    2    0    0  0.61965454016E+02 -0.26511575387E+02 -0.99011176000E+02  0.11977392911E+03  0.00000000000E+00 0. -1.
</event>
<event>
 7    1  0.2384639E-009  0.6980239E+02  0.7561462E-02  0.1360766E+00
         -1   -1    0    0    0  501 -0.00000000000E+00  0.00000000000E+00  0.36389104388E+03  0.36389104388E+03  0.00000000000E+00 0.  1.
          1   -1    0    0  501    0  0.00000000000E+00 -0.00000000000E+00 -0.34185559968E+02  0.34185559968E+02  0.00000000000E+00 0. -1.
         25    2    1    2    0    0 -0.12263116903E+02  0.23921020165E+02  0.17369000991E+03  0.21572704966E+03  0.12508933276E+03 0.  0.
          5    1    3    3  502    0 -0.16615858911E+02 -0.33336082665E+01  0.18484404138E+03  0.18566634521E+03  0.41800000000E+01 0.  1.
         -5    1    3    3    0  502  0.43527420080E+01  0.27254628432E+02 -0.11154031466E+02  0.30060704447E+02  0.41800000000E+01 0.  1.
        -11    1    1    2    0    0  0.27822792817E+01 -0.58405196795E+02  0.10189895265E+03  0.11748321004E+03  0.00000000000E+00 0.  1.
         11    1    1    2    0    0  0.94808376213E+01  0.34484176630E+02  0.54116521348E+02  0.64866344144E+02  0.00000000000E+00 0. -1.
</event>
<event>
 7    1  0.2384639E-009  0.2119699E+03  0.7561462E-02  0.1140015E+00
         -2   -1    0    0    0  501 -0.00000000000E+00  0.00000000000E+00  0.68649240161E+02  0.68649240161E+02  0.00000000000E+00 0.  1.
          2   -1    0    0  501    0  0.00000000000E+00 -0.00000000000E+00 -0.72312183072E+03  0.72312183072E+03  0.00000000000E+00 0. -1.
         25    2    1    2    0    0 -0.14035317728E+03  0.12267442838E+03 -0.24378654402E+03  0.33140125029E+03  0.12508748896E+03 0.  0.
          5    1    3    3  502    0 -0.15509814503E+02 -0.25714868739E+02 -0.37935338999E+02  0.48563063795E+02  0.41800000000E+01 0.  1.
         -5    1    3    3    0  502 -0.12484336278E+03  0.14838929712E+03 -0.20585120502E+03  0.28283818649E+03  0.41800000000E+01 0.  1.
        -11    1    1    2    0    0  0.10206945798E+03 -0.42030349486E+02 -0.16101364276E+03  0.19521812847E+03  0.00000000000E+00 0.  1.
         11    1    1    2    0    0  0.38283719307E+02 -0.80644078897E+02 -0.24967240378E+03  0.26515169212E+03  0.00000000000E+00 0. -1.
</event>
<event>
 7    1  0.2384639E-009  0.1115258E+03  0.7561462E-02  0.1257770E+00
          1   -1    0    0  501    0  0.00000000000E+00  0.00000000000E+00  0.39294131237E+02  0.39294131237E+02  0.00000000000E+00 0. -1.
         -1   -1    0    0    0  501 -0.00000000000E+00 -0.00000000000E+00 -0.47125542196E+03  0.47125542196E+03  0.00000000000E+00 0.  1.
         25    2    1    2    0    0  0.45301670448E+02 -0.64891158566E+02 -0.19411022286E+03  0.24410383968E+03  0.12507918340E+03 0.  0.
          5    1    3    3  502    0 -0.36233336131E+01 -0.53105156402E+02 -0.18530536234E+03  0.19284407146E+03  0.41800000000E+01 0. -1.
         -5    1    3    3    0  502  0.48925004061E+02 -0.11786002164E+02 -0.88048605198E+01  0.51259768222E+02  0.41800000000E+01 0. -1.
        -11    1    1    2    0    0 -0.69277348841E+02  0.65271433808E+02 -0.17562613740E+03  0.19976048476E+03  0.00000000000E+00 0.  1.
         11    1    1    2    0    0  0.23975678393E+02 -0.38027524221E+00 -0.62224930465E+02  0.66685228762E+02  0.00000000000E+00 0. -1.
</event>
<event>
 7    1  0.2384639E-009  0.1382012E+03  0.7561462E-02  0.1215770E+00
          2   -1    0    0  501    0  0.00000000000E+00  0.00000000000E+00  0.16959549619E+03  0.16959549619E+03  0.00000000000E+00 0. -1.
         -2   -1    0    0    0  501 -0.00000000000E+00 -0.00000000000E+00 -0.13208138225E+03  0.13208138225E+03  0.00000000000E+00 0.  1.
         25    2    1    2    0    0 -0.68497348241E+02 -0.67950463578E+02  0.55743223495E+02  0.16752240968E+03  0.12508916244E+03 0.  0.
          5    1    3    3  502    0 -0.60536842617E+02  0.24199387698E+02  0.25343724285E+02  0.70072080315E+02  0.41800000000E+01 0.  1.
         -5    1    3    3    0  502 -0.79605056232E+01 -0.92149851277E+02  0.30399499211E+02  0.97450329360E+02  0.41800000000E+01 0.  1.
        -11    1    1    2    0    0  0.52892598607E+02  0.81940463622E+02  0.11044399897E+02  0.98152154001E+02  0.00000000000E+00 0. -1.
         11    1    1    2    0    0  0.15604749634E+02 -0.13990000044E+02 -0.29273509453E+02  0.36002314759E+02  0.00000000000E+00 0.  1.
</event>
<event>
 7    1  0.2384639E-009  0.1261132E+03  0.7561462E-02  0.1233340E+00
         -1   -1    0    0    0  501 -0.00000000000E+00  0.00000000000E+00  0.26681198112E+03  0.26681198112E+03  0.00000000000E+00 0.  1.
          1   -1    0    0  501    0  0.00000000000E+00 -0.00000000000E+00 -0.86122158648E+02  0.86122158648E+02  0.00000000000E+00 0. -1.
         25    2    1    2    0    0 -0.43746654759E+02 -0.63170186630E+02  0.13521600845E+02  0.14741647005E+03  0.12507813426E+03 0.  0.
          5    1    3    3  502    0  0.18778755120E+02 -0.74048823880E+02  0.29233962413E+02  0.81902178971E+02  0.41800000000E+01 0.  1.
         -5    1    3    3    0  502 -0.62525409879E+02  0.10878637250E+02 -0.15712361568E+02  0.65514291074E+02  0.41800000000E+01 0.  1.
        -11    1    1    2    0    0  0.66749031246E+02  0.58255596313E+02  0.96329628227E+02  0.13087606713E+03  0.00000000000E+00 0.  1.
         11    1    1    2    0    0 -0.23002376487E+02  0.49145903176E+01  0.70838593406E+02  0.74641602594E+02  0.00000000000E+00 0. -1.
</event>
<event>
 7    1  0.2384639E-009  0.1091076E+03  0.7561462E-02  0.1262231E+00
          2   -1    0    0  501    0  0.00000000000E+00  0.00000000000E+00  0.19248309331E+02  0.19248309331E+02  0.00000000000E+00 0. -1.
         -2   -1    0    0    0  501 -0.00000000000E+00 -0.00000000000E+00 -0.71612767919E+03  0.71612767919E+03  0.00000000000E+00 0.  1.
         25    2    1    2    0    0 -0.29143873335E+02  0.15675175139E+02 -0.29914793814E+03  0.32593235902E+03  0.12508931726E+03 0.  0.
          5    1    3    3  502    0  0.29866141198E+02  0.49496790564E+02 -0.10170692334E+03  0.11706275805E+03  0.41800000000E+01 0. -1.
         -5    1    3    3    0  502 -0.59010014533E+02 -0.33821615425E+02 -0.19744101480E+03  0.20886960097E+03  0.41800000000E+01 0. -1.
        -11    1    1    2    0    0  0.39390301434E+02 -0.45731188472E+02 -0.31693770318E+03  0.32263360820E+03  0.00000000000E+00 0.  1.
         11    1    1    2    0    0 -0.10246428099E+02  0.30056013333E+02 -0.80793728539E+02  0.86810021296E+02  0.00000000000E+00 0. -1.
</event>
<event>
 7    1  0.2384639E-009  0.1118205E+03  0.7561462E-02  0.1257235E+00
         -2   -1    0    0    0  501 -0.00000000000E+00  0.00000000000E+00  0.17366826623E+02  0.17366826623E+02  0.00000000000E+00 0.  1.
          2   -1    0    0  501    0  0.00000000000E+00 -0.00000000000E+00 -0.10769288211E+04  0.10769288211E+04  0.00000000000E+00 0. -1.
         25    2    1    2    0    0 -0.13140260023E+02  0.68686097076E+02 -0.76498944697E+03  0.77829721525E+03  0.12508898800E+03 0.  0.
          5    1    3    3  502    0 -0.49241814311E+02 -0.74867265712E+01 -0.42761625303E+03  0.43052751318E+03  0.41800000000E+01 0.  1.
         -5    1    3    3    0  502  0.36101554288E+02  0.76172823648E+02 -0.33737319395E+03  0.34776970207E+03  0.41800000000E+01 0.  1.
        -11    1    1    2    0    0  0.33910574396E+02 -0.29664170195E+02 -0.24693026938E+03  0.25100686840E+03  0.00000000000E+00 0. -1.
         11    1    1    2    0    0 -0.20770314373E+02 -0.39021926881E+02 -0.47642278158E+02  0.64991564104E+02  0.00000000000E+00 0.  1.
</event>
<event>
 7    1  0.2384639E-009  0.1003291E+03  0.7561462E-02  0.1279606E+00
          2   -1    0    0  501    0  0.00000000000E+00  0.00000000000E+00  0.43393501934E+03  0.43393501934E+03  0.00000000000E+00 0.  1.
         -2   -1    0    0    0  501 -0.00000000000E+00 -0.00000000000E+00 -0.29079755852E+02  0.29079755852E+02  0.00000000000E+00 0. -1.
         25    2    1    2    0    0  0.90610203702E+01  0.23815836056E+02  0.22439341385E+03  0.25816348913E+03  0.12508671715E+03 0.  0.
          5    1    3    3  502    0  0.20186542949E+02 -0.42677923620E+02  0.15169907044E+03  0.15893074610E+03  0.41800000000E+01 0.  1.
         -5    1    3    3    0  502 -0.11125522579E+02  0.66493759675E+02  0.72694343401E+02  0.99232743038E+02  0.41800000000E+01 0.  1.
        -11    1    1    2    0    0  0.21592569065E+02 -0.43999947010E+02  0.14782019927E+03  0.15573389383E+03  0.00000000000E+00 0.  1.
         11    1    1    2    0    0 -0.30653589435E+02  0.20184110955E+02  0.32641650376E+02  0.49117392230E+02  0.00000000000E+00 0. -1.
</event>
<event>
 7    1  0.2384639E-009  0.1359601E+03  0.7561462E-02  0.1218871E+00
          2   -1    0    0  501    0  0.00000000000E+00  0.00000000000E+00  0.87421340279E+03  0.87421340279E+03  0.00000000000E+00 0. -1.
         -2   -1    0    0    0  501 -0.00000000000E+00 -0.00000000000E+00 -0.39140893748E+02  0.39140893748E+02  0.00000000000E+00 0.  1.
         25    2    1    2    0    0  0.24345391708E+02  0.79992411287E+02  0.74553155583E+03  0.76056316421E+03  0.12509013571E+03 0.  0.
          5    1    3    3  502    0  0.64511498845E+02  0.73762270662E+01  0.39465438057E+03  0.39998211799E+03  0.41800000000E+01 0.  1.
         -5    1    3    3    0  502 -0.40166107136E+02  0.72616184221E+02  0.35087717526E+03  0.36058104622E+03  0.41800000000E+01 0.  1.
        -11    1    1    2    0    0  0.30849806851E+02 -0.59589149574E+01  0.24439333600E+02  0.39805781954E+02  0.00000000000E+00 0.  1.
         11    1    1    2    0    0 -0.55195198559E+02 -0.74033496330E+02  0.65101619608E+02  0.11298535037E+03  0.00000000000E+00 0. -1.
</event>
<event>
 7    1  0.2384639E-009  0.1261137E+03  0.7561462E-02  0.1233339E+00
         -2   -1    0    0    0  501 -0.00000000000E+00  0.00000000000E+00  0.16435028752E+03  0.16435028752E+03  0.00000000000E+00 0.  1.
          2   -1    0    0  501    0  0.00000000000E+00 -0.00000000000E+00 -0.15623366207E+03  0.15623366207E+03  0.00000000000E+00 0. -1.
         25    2    1    2    0    0  0.65671532774E+02  0.96679548321E+02  0.16809363750E+02  0.17202739416E+03  0.12510469357E+03 0.  0.
          5    1    3    3  502    0  0.41102140854E+02  0.81832408906E+02  0.67350873487E+02  0.11375210631E+03  0.41800000000E+01 0. -1.
         -5    1    3    3    0  502  0.24569391921E+02  0.14847139415E+02 -0.50541509737E+02  0.58275287855E+02  0.41800000000E+01 0. -1.
        -11    1    1    2    0    0 -0.21728403217E+02 -0.82590742855E+02 -0.38439493784E+02  0.93653344810E+02  0.00000000000E+00 0. -1.
         11    1    1    2    0    0 -0.43943129558E+02 -0.14088805466E+02  0.29746755485E+02  0.54903210622E+02  0.00000000000E+00 0.  1.
</event>
<event>
 7    1  0.2384639E-009  0.1537257E+03  0.7561462E-02  0.1195968E+00
         -1   -1    0    0    0  501 -0.00000000000E+00  0.00000000000E+00  0.55976673718E+02  0.55976673718E+02  0.00000000000E+00 0. -1.
          1   -1    0    0  501    0  0.00000000000E+00 -0.00000000000E+00 -0.13145835977E+04  0.13145835977E+04  0.00000000000E+00 0.  1.
         25    2    1    2    0    0 -0.94209270385E+02  0.85782353039E+02 -0.11831422836E+04  0.11965399857E+04  0.12509306761E+03 0.  0.
          5    1    3    3  502    0 -0.36204190193E+02 -0.28598297851E+02 -0.21521352265E+03  0.22014299616E+03  0.41800000000E+01 0. -1.
         -5    1    3    3    0  502 -0.58005080192E+02  0.11438065089E+03 -0.96792876091E+03  0.97639698956E+03  0.41800000000E+01 0. -1.
        -11    1    1    2    0    0  0.29038388241E+02 -0.51621411796E+02 -0.80871342588E+02  0.10024057162E+03  0.00000000000E+00 0.  1.
         11    1    1    2    0    0  0.65170882144E+02 -0.34160941243E+02  0.54067021293E+01  0.73779714108E+02  0.00000000000E+00 0. -1.
</event>
<event>
 7    1  0.2384639E-009  0.9168115E+02  0.7561462E-02  0.1298831E+00
          1   -1    0    0  501    0  0.00000000000E+00  0.00000000000E+00  0.15875346236E+03  0.15875346236E+03  0.00000000000E+00 0. -1.
         -1   -1    0    0    0  501 -0.00000000000E+00 -0.00000000000E+00 -0.10294694044E+03  0.10294694044E+03  0.00000000000E+00 0.  1.
         25    2    1    2    0    0 -0.15594258879E+02 -0.57460412741E+02 -0.31972090390E+01  0.13856796106E+03  0.12508388283E+03 0.  0.
          5    1    3    3  502    0 -0.30999005812E+02 -0.73577426152E+02 -0.44460346123E+02  0.91480985881E+02  0.41800000000E+01 0.  1.
         -5    1    3    3    0  502  0.15404746933E+02  0.16117013411E+02  0.41263137084E+02  0.47086975178E+02  0.41800000000E+01 0.  1.
        -11    1    1    2    0    0 -0.18130463926E+02  0.37207760720E+02  0.70845562331E+02  0.82050136392E+02  0.00000000000E+00 0.  1.
         11    1    1    2    0    0  0.33724722805E+02  0.20252652021E+02 -0.11841831369E+02  0.41082305343E+02  0.00000000000E+00 0. -1.
</event>
<event>
 7    1  0.2384639E-009  0.1028559E+03  0.7561462E-02  0.1274403E+00
         -2   -1    0    0    0  501 -0.00000000000E+00  0.00000000000E+00  0.47176930954E+02  0.47176930954E+02  0.00000000000E+00 0.  1.
          2   -1    0    0  501    0  0.00000000000E+00 -0.00000000000E+00 -0.30298767975E+03  0.30298767975E+03  0.00000000000E+00 0. -1.
         25    2    1    2    0    0 -0.29271489782E+02  0.32428005778E+02 -0.10179698682E+03  0.16708156339E+03  0.12508088034E+03 0.  0.
          5    1    3    3  502    0 -0.68869611725E+02  0.26179258202E+02 -0.10305976759E+03  0.12675632163E+03  0.41800000000E+01 0. -1.
         -5    1    3    3    0  502  0.39598121943E+02  0.62487475758E+01  0.12627807640E+01  0.40325241759E+02  0.41800000000E+01 0. -1.
        -11    1    1    2    0    0  0.48025398000E+02  0.64391572309E+01 -0.11545658373E+03  0.12521231699E+03  0.00000000000E+00 0. -1.
         11    1    1    2    0    0 -0.18753908218E+02 -0.38867163009E+02 -0.38557178237E+02  0.57870730317E+02  0.00000000000E+00 0.  1.
</event>
<event>
 7    1  0.2384639E-009  0.8597341E+02  0.7561462E-02  0.1312906E+00
          1   -1    0    0  501    0  0.00000000000E+00  0.00000000000E+00  0.11817513798E+04  0.11817513798E+04  0.00000000000E+00 0. -1.
         -1   -1    0    0    0  501 -0.00000000000E+00 -0.00000000000E+00 -0.16177589622E+02  0.16177589622E+02  0.00000000000E+00 0.  1.
         25    2    1    2    0    0  0.82801748615E+01  0.18102435575E+02  0.99946249945E+03  0.10074566838E+04  0.12508965743E+03 0.  0.
          5    1    3    3  502    0  0.42918916621E+02  0.25815469706E+02  0.17122429360E+03  0.17844804005E+03  0.41800000000E+01 0. -1.
         -5    1    3    3    0  502 -0.34638741759E+02 -0.77130341310E+01  0.82823820585E+03  0.82900864372E+03  0.41800000000E+01 0. -1.
        -11    1    1    2    0    0  0.12930448925E+02 -0.47768099437E+02  0.13021306614E+03  0.13929978617E+03  0.00000000000E+00 0. -1.
         11    1    1    2    0    0 -0.21210623786E+02  0.29665663862E+02  0.35898224553E+02  0.51172499449E+02  0.00000000000E+00 0.  1.
</event>
<event>
 7    1  0.2384639E-009  0.9858698E+02  0.7561462E-02  0.1283296E+00
         -1   -1    0    0    0  501 -0.00000000000E+00  0.00000000000E+00  0.45181191531E+02  0.45181191531E+02  0.00000000000E+00 0.  1.
          1   -1    0    0  501    0  0.00000000000E+00 -0.00000000000E+00 -0.37985089304E+03  0.37985089304E+03  0.00000000000E+00 0. -1.
         25    2    1    2    0    0 -0.20310406439E+02 -0.20460509464E+02 -0.30663789605E+03  0.33241910616E+03  0.12507804678E+03 0.  0.
          5    1    3    3  502    0  0.18512429206E+02 -0.64510923589E+02 -0.13225070247E+03  0.14836471953E+03  0.41800000000E+01 0.  1.
         -5    1    3    3    0  502 -0.38822835645E+02  0.44050414125E+02 -0.17438719358E+03  0.18405438663E+03  0.41800000000E+01 0.  1.
        -11    1    1    2    0    0 -0.17385522903E+02 -0.12157847720E+02  0.15626250777E+02  0.26348612509E+02  0.00000000000E+00 0.  1.
         11    1    1    2    0    0  0.37695929342E+02  0.32618357184E+02 -0.43658056233E+02  0.66264365902E+02  0.00000000000E+00 0. -1.
</event>
<event>
 7    1  0.2384639E-009  0.1081092E+03  0.7561462E-02  0.1264112E+00
          2   -1    0    0  501    0  0.00000000000E+00  0.00000000000E+00  0.11919700310E+04  0.11919700310E+04  0.00000000000E+00 0. -1.
         -2   -1    0    0    0  501 -0.00000000000E+00 -0.00000000000E+00 -0.15014164967E+02  0.15014164967E+02  0.00000000000E+00 0.  1.
         25    2    1    2    0    0 -0.63296166337E+02 -0.45374333314E+02  0.68498659269E+03  0.70065642925E+03  0.12509022700E+03 0.  0.
          5    1    3    3  502    0 -0.83689864508E+01  0.16737274818E+02  0.12111207129E+02  0.22678845664E+02  0.41800000000E+01 0.  1.
         -5    1    3    3    0  502 -0.54927179886E+02 -0.62111608132E+02  0.67287538556E+03  0.67797758359E+03  0.41800000000E+01 0.  1.
        -11    1    1    2    0    0  0.87919408782E+01  0.57515868156E+02  0.17339642046E+03  0.18289803701E+03  0.00000000000E+00 0.  1.
         11    1    1    2    0    0  0.54504225459E+02 -0.12141534843E+02  0.31857285287E+03  0.32342972969E+03  0.00000000000E+00 0. -1.
</event>
<event>
 7    1  0.2384639E-009  0.1659818E+03  0.7561462E-02  0.1182104E+00
          2   -1    0    0  501    0  0.00000000000E+00  0.00000000000E+00  0.73093480131E+02  0.73093480131E+02  0.00000000000E+00 0. -1.
         -2   -1    0    0    0  501 -0.00000000000E+00 -0.00000000000E+00 -0.38803254444E+03  0.38803254444E+03  0.00000000000E+00 0.  1.
         25    2    1    2    0    0  0.62545884589E+02  0.11301247893E+03 -0.16315432615E+03  0.24279723409E+03  0.12508938672E+03 0.  0.
          5    1    3    3  502    0 -0.22001034603E+02 -0.12226572012E+02 -0.41696785438E+02  0.48883830687E+02  0.41800000000E+01 0.  1.
         -5    1    3    3    0  502  0.84546919192E+02  0.12523905094E+03 -0.12145754072E+03  0.19391340341E+03  0.41800000000E+01 0.  1.
        -11    1    1    2    0    0 -0.84435215125E+02 -0.93213677819E+02 -0.10947766552E+03  0.16674367914E+03  0.00000000000E+00 0. -1.
         11    1    1    2    0    0  0.21889330536E+02 -0.19798801106E+02 -0.42307072632E+02  0.51585111333E+02  0.00000000000E+00 0.  1.
</event>
<event>
 7    1  0.2384639E-009  0.8449622E+02  0.7561462E-02  0.1316755E+00
         -2   -1    0    0    0  501 -0.00000000000E+00  0.00000000000E+00  0.63503559965E+03  0.63503559965E+03  0.00000000000E+00 0. -1.
          2   -1    0    0  501    0  0.00000000000E+00 -0.00000000000E+00 -0.22234125348E+02  0.22234125348E+02  0.00000000000E+00 0.  1.
         25    2    1    2    0    0 -0.24566601652E+02 -0.47900438829E+01  0.46288555024E+03  0.48014247439E+03  0.12508917079E+03 0.  0.
          5    1    3    3  502    0 -0.42705716765E+02 -0.23021297364E+02  0.64060591650E+02  0.80467323674E+02  0.41800000000E+01 0.  1.
         -5    1    3    3    0  502  0.18139115113E+02  0.18231253481E+02  0.39882495859E+03  0.39967515071E+03  0.41800000000E+01 0.  1.
        -11    1    1    2    0    0  0.59106407123E+02 -0.15415615648E+01  0.97843085593E+02  0.11432065943E+03  0.00000000000E+00 0.  1.
         11    1    1    2    0    0 -0.34539805471E+02  0.63316054477E+01  0.52072838471E+02  0.62806591182E+02  0.00000000000E+00 0. -1.
</event>
<event>
 7    1  0.2384639E-009  0.8207148E+02  0.7561462E-02  0.1323274E+00
          2   -1    0    0  501    0  0.00000000000E+00  0.00000000000E+00  0.27602464160E+03  0.27602464160E+03  0.00000000000E+00 0. -1.
         -2   -1    0    0    0  501 -0.00000000000E+00 -0.00000000000E+00 -0.87089456739E+02  0.87089456739E+02  0.00000000000E+00 0.  1.
         25    2    1    2    0    0  0.48682468956E+02  0.12434161753E+02  0.21827248006E+03  0.25654540205E+03  0.12509227234E+03 0.  0.
          5    1    3    3  502    0 -0.18114425898E+01  0.42681429452E+02  0.15946818223E+02  0.45790382787E+02  0.41800000000E+01 0.  1.
         -5    1    3    3    0  502  0.50493911546E+02 -0.30247267699E+02  0.20232566184E+03  0.21075501927E+03  0.41800000000E+01 0.  1.
        -11    1    1    2    0    0 -0.30443170135E+02  0.11128500254E+02  0.27426186138E+02  0.42459696323E+02  0.00000000000E+00 0. -1.
         11    1    1    2    0    0 -0.18239298821E+02 -0.23562662007E+02 -0.56763481341E+02  0.64108999963E+02  0.00000000000E+00 0.  1.
</event>
<event>
 7    1  0.2384639E-009  0.9408089E+02  0.7561462E-02  0.1293260E+00
          1   -1    0    0  501    0  0.00000000000E+00  0.00000000000E+00  0.92052774528E+02  0.92052774528E+02  0.00000000000E+00 0. -1.
         -1   -1    0    0    0  501 -0.00000000000E+00 -0.00000000000E+00 -0.14630535126E+03  0.14630535126E+03  0.00000000000E+00 0.  1.
         25    2    1    2    0    0  0.36142971784E+02 -0.13378593406E+02 -0.16664003521E+02  0.13195436503E+03  0.12509582034E+03 0.  0.
          5    1    3    3  502    0 -0.31935221009E+02 -0.10701729761E+02 -0.46410014835E+02  0.57495627988E+02  0.41800000000E+01 0.  1.
         -5    1    3    3    0  502  0.68078192793E+02 -0.26768636456E+01  0.29746011315E+02  0.74458737043E+02  0.41800000000E+01 0.  1.
        -11    1    1    2    0    0  0.19736659878E+02  0.21851760288E+02  0.11433534524E+02  0.31587353206E+02  0.00000000000E+00 0. -1.
         11    1    1    2    0    0 -0.55879631662E+02 -0.84731668819E+01 -0.49022107731E+02  0.74816407546E+02  0.00000000000E+00 0.  1.
</event>
<event>
 7    1  0.2384639E-009  0.9900850E+02  0.7561462E-02  0.1282395E+00
         -1   -1    0    0    0  501 -0.00000000000E+00  0.00000000000E+00  0.25608099312E+03  0.25608099312E+03  0.00000000000E+00 0.  1.
          1   -1    0    0  501    0  0.00000000000E+00 -0.00000000000E+00 -0.60035903351E+02  0.60035903351E+02  0.00000000000E+00 0. -1.
         25    2    1    2    0    0  0.32398256029E+02 -0.29521777791E+02  0.58353765079E+02  0.14482517142E+03  0.12509191029E+03 0.  0.
          5    1    3    3  502    0  0.25350141709E+02  0.47983105449E+02  0.27754892016E+02  0.61096763614E+02  0.41800000000E+01 0.  1.
         -5    1    3    3    0  502  0.70481143201E+01 -0.77504883241E+02  0.30598873063E+02  0.83728407810E+02  0.41800000000E+01 0.  1.
        -11    1    1    2    0    0  0.13108746804E+02  0.58320073718E+01 -0.82812069990E+01  0.16565927143E+02  0.00000000000E+00 0. -1.
         11    1    1    2    0    0 -0.45507002833E+02  0.23689770420E+02  0.14597253169E+03  0.15472579790E+03  0.00000000000E+00 0.  1.
</event>
<event>
 7    1  0.2384639E-009  0.1046587E+03  0.7561462E-02  0.1270794E+00
         -1   -1    0    0    0  501 -0.00000000000E+00  0.00000000000E+00  0.26531165775E+02  0.26531165775E+02  0.00000000000E+00 0.  1.
          1   -1    0    0  501    0  0.00000000000E+00 -0.00000000000E+00 -0.74538881431E+03  0.74538881431E+03  0.00000000000E+00 0. -1.
         25    2    1    2    0    0 -0.82024242404E+02  0.18125628623E+02 -0.43624041721E+03  0.46152959376E+03  0.12508936628E+03 0.  0.
          5    1    3    3  502    0 -0.27976786105E+02 -0.32510814770E+01 -0.83260809931E+01  0.29665908316E+02  0.41800000000E+01 0.  1.
         -5    1    3    3    0  502 -0.54047456299E+02  0.21376710100E+02 -0.42791433622E+03  0.43186368545E+03  0.41800000000E+01 0.  1.
        -11    1    1    2    0    0  0.68594956475E+02 -0.52036489262E+02 -0.23590226016E+03  0.25112335737E+03  0.00000000000E+00 0.  1.
         11    1    1    2    0    0  0.13429285929E+02  0.33910860639E+02 -0.46714971165E+02  0.59267028952E+02  0.00000000000E+00 0. -1.
</event>
<event>
 7    1  0.2384639E-009  0.2177505E+03  0.7561462E-02  0.1135571E+00
          2   -1    0    0  501    0  0.00000000000E+00  0.00000000000E+00  0.16954168359E+03  0.16954168359E+03  0.00000000000E+00 0.  1.
         -2   -1    0    0    0  501 -0.00000000000E+00 -0.00000000000E+00 -0.41442120213E+03  0.41442120213E+03  0.00000000000E+00 0. -1.
         25    2    1    2    0    0  0.62592509314E+02  0.20350889072E+03  0.12019181578E+01  0.24694682813E+03  0.12509036930E+03 0.  0.
          5    1    3    3  502    0  0.52008302866E+02  0.11685370793E+03  0.60273887064E+02  0.14145694216E+03  0.41800000000E+01 0. -1.
         -5    1    3    3    0  502  0.10584206448E+02  0.86655182795E+02 -0.59071968906E+02  0.10548988597E+03  0.41800000000E+01 0. -1.
        -11    1    1    2    0    0 -0.52300242425E+02 -0.76300229231E+02 -0.56225102627E+02  0.10825110856E+03  0.00000000000E+00 0.  1.
         11    1    1    2    0    0 -0.10292266889E+02 -0.12720866149E+03 -0.18985633408E+03  0.22876494903E+03  0.00000000000E+00 0. -1.
</event>
<event>
 7    1  0.2384639E-009  0.2208356E+03  0.7561462E-02  0.1133262E+00
         -1   -1    0    0    0  501 -0.00000000000E+00  0.00000000000E+00  0.69174271596E+03  0.69174271596E+03  0.00000000000E+00 0.  1.
          1   -1    0    0  501    0  0.00000000000E+00 -0.00000000000E+00 -0.83211018335E+02  0.83211018335E+02  0.00000000000E+00 0. -1.
         25    2    1    2    0    0 -0.19452815940E+03 -0.57749118716E+02  0.20795364353E+03  0.31633549360E+03  0.12508901287E+03 0.  0.
          5    1    3    3  502    0 -0.14149084397E+03  0.19433555662E+02  0.14399396130E+03  0.20285229924E+03  0.41800000000E+01 0.  1.
         -5    1    3    3    0  502 -0.53037315426E+02 -0.77182674378E+02  0.63959682230E+02  0.11348319436E+03  0.41800000000E+01 0.  1.
        -11    1    1    2    0    0  0.16063488515E+03  0.35517245184E+02  0.37793352494E+03  0.41218780951E+03  0.00000000000E+00 0.  1.
         11    1    1    2    0    0  0.33893274246E+02  0.22231873532E+02  0.22644529146E+02  0.46430431186E+02  0.00000000000E+00 0. -1.
</event>
<event>
 7    1  0.2384639E-009  0.8885190E+02  0.7561462E-02  0.1305656E+00
          2   -1    0    0  501    0  0.00000000000E+00  0.00000000000E+00  0.11464666103E+04  0.11464666103E+04  0.00000000000E+00 0. -1.
         -2   -1    0    0    0  501 -0.00000000000E+00 -0.00000000000E+00 -0.23540827758E+02  0.23540827758E+02  0.00000000000E+00 0.  1.
         25    2    1    2    0    0 -0.23268582303E+02  0.20864474926E+02  0.10282393768E+04  0.10362921494E+04  0.12509376355E+03 0.  0.
          5    1    3    3  502    0  0.17276560909E+02  0.43728735224E+02  0.87040443985E+03  0.87168345353E+03  0.41800000000E+01 0. -1.
         -5    1    3    3    0  502 -0.40545143213E+02 -0.22864260298E+02  0.15783493699E+03  0.16460869592E+03  0.41800000000E+01 0. -1.
        -11    1    1    2    0    0  0.31014721970E+02  0.23385157049E+02  0.13855745343E+02  0.41240274345E+02  0.00000000000E+00 0.  1.
         11    1    1    2    0    0 -0.77461396666E+01 -0.44249631975E+02  0.80830660359E+02  0.92475014267E+02  0.00000000000E+00 0. -1.
</event>
<event>
 7    1  0.2384639E-009  0.1213801E+03  0.7561462E-02  0.1240838E+00
          4   -1    0    0  501    0  0.00000000000E+00  0.00000000000E+00  0.35691700760E+03  0.35691700760E+03  0.00000000000E+00 0.  1.
         -4   -1    0    0    0  501 -0.00000000000E+00 -0.00000000000E+00 -0.49152668497E+02  0.49152668497E+02  0.00000000000E+00 0. -1.
         25    2    1    2    0    0  0.51165263853E+02  0.22478802457E+02  0.97229293316E+02  0.16800198188E+03  0.12509176492E+03 0.  0.
          5    1    3    3  502    0  0.90865284377E+02  0.30995359012E+02  0.71042725108E+02  0.11950629011E+03  0.41800000000E+01 0.  1.
         -5    1    3    3    0  502 -0.39700020525E+02 -0.85165565543E+01  0.26186568207E+02  0.48495691764E+02  0.41800000000E+01 0.  1.
        -11    1    1    2    0    0 -0.14043665592E+02  0.34835278798E+02  0.11242549432E+03  0.11853359425E+03  0.00000000000E+00 0.  1.
         11    1    1    2    0    0 -0.37121598261E+02 -0.57314081256E+02  0.98109551472E+02  0.11953409998E+03  0.00000000000E+00 0. -1.
</event>
<event>
 7    1  0.2384639E-009  0.1187656E+03  0.7561462E-02  0.1245147E+00
          2   -1    0    0  501    0  0.00000000000E+00  0.00000000000E+00  0.55619097969E+03  0.55619097969E+03  0.00000000000E+00 0. -1.
         -2   -1    0    0    0  501 -0.00000000000E+00 -0.00000000000E+00 -0.26557598939E+02  0.26557598939E+02  0.00000000000E+00 0.  1.
         25    2    1    2    0    0  0.48513103932E+02 -0.71814445578E+01  0.35708893801E+03  0.38153072832E+03  0.12509233632E+03 0.  0.
          5    1    3    3  502    0  0.24228332729E+02  0.58903167080E+02  0.17116639892E+03  0.18268005835E+03  0.41800000000E+01 0.  1.
         -5    1    3    3    0  502  0.24284771203E+02 -0.66084611638E+02  0.18592253909E+03  0.19885066997E+03  0.41800000000E+01 0.  1.
        -11    1    1    2    0    0 -0.36244547644E+02 -0.40259939679E+02  0.98818486269E+02  0.11269260493E+03  0.00000000000E+00 0.  1.
         11    1    1    2    0    0 -0.12268556288E+02  0.47441384237E+02  0.73725956476E+02  0.88525245383E+02  0.00000000000E+00 0. -1.
</event>
<event>
 7    1  0.3856091E-009  0.1089285E+03  0.7561462E-02  0.1262567E+00
          2   -1    0    0  501    0  0.00000000000E+00  0.00000000000E+00  0.44222724167E+03  0.44222724167E+03  0.00000000000E+00 0. -1.
         -2   -1    0    0    0  501 -0.00000000000E+00 -0.00000000000E+00 -0.35938769889E+02  0.35938769889E+02  0.00000000000E+00 0.  1.
         25    2    1    2    0    0 -0.81497612665E+01  0.42406727206E+02  0.31699323222E+03  0.34350659338E+03  0.12508925333E+03 0.  0.
          5    1    3    3  502    0 -0.82358340125E+01 -0.44334722472E+02  0.99739852420E+02  0.10953952318E+03  0.41800000000E+01 0. -1.
         -5    1    3    3    0  502  0.86072746033E-01  0.86741449678E+02  0.21725337980E+03  0.23396707020E+03  0.41800000000E+01 0. -1.
        -11    1    1    2    0    0 -0.33109060102E+02 -0.21472435314E+02  0.67541865023E+01  0.40036163334E+02  0.00000000000E+00 0.  1.
         11    1    1    2    0    0  0.41258821369E+02 -0.20934291892E+02  0.82541053058E+02  0.94623254846E+02  0.00000000000E+00 0. -1.
</event>
<event>
 7    1  0.2384639E-009  0.1277997E+03  0.7561462E-02  0.1230758E+00
          2   -1    0    0  501    0  0.00000000000E+00  0.00000000000E+00  0.46235139753E+03  0.46235139753E+03  0.00000000000E+00 0.  1.
         -2   -1    0    0    0  501 -0.00000000000E+00 -0.00000000000E+00 -0.46790197883E+02  0.46790197883E+02  0.00000000000E+00 0. -1.
         25    2    1    2    0    0  0.48520417720E+02 -0.82824168279E+02  0.27264050038E+03  0.31495106226E+03  0.12508898987E+03 0.  0.
          5    1    3    3  502    0  0.65748524526E+02 -0.31229240815E+02  0.24121302813E+03  0.25199073653E+03  0.41800000000E+01 0. -1.
         -5    1    3    3    0  502 -0.17228106806E+02 -0.51594927463E+02  0.31427472251E+02  0.62960325731E+02  0.41800000000E+01 0. -1.
        -11    1    1    2    0    0  0.22268604093E+02  0.47915842264E+01  0.10810602609E+02  0.25213471328E+02  0.00000000000E+00 0.  1.
         11    1    1    2    0    0 -0.70789021813E+02  0.78032584052E+02  0.13211009666E+03  0.16897706182E+03  0.00000000000E+00 0. -1.
</event>
<event>
 7    1  0.2384639E-009  0.2817187E+03  0.7561462E-02  0.1094754E+00
         -2   -1    0    0    0  501 -0.00000000000E+00  0.00000000000E+00  0.19615745753E+03  0.19615745753E+03  0.00000000000E+00 0. -1.
          2   -1    0    0  501    0  0.00000000000E+00 -0.00000000000E+00 -0.56951268598E+03  0.56951268598E+03  0.00000000000E+00 0.  1.
         25    2    1    2    0    0 -0.22665524625E+03  0.14803286748E+03 -0.33121617265E+01  0.29823495861E+03  0.12508712810E+03 0.  0.
          5    1    3    3  502    0 -0.26576528337E+02  0.73485199109E+02  0.26472752352E+02  0.82611532873E+02  0.41800000000E+01 0.  1.
         -5    1    3    3    0  502 -0.20007871791E+03  0.74547668374E+02 -0.29784914078E+02  0.21562342574E+03  0.41800000000E+01 0.  1.
        -11    1    1    2    0    0  0.12817142846E+03 -0.70473152942E+02 -0.26990907365E+03  0.30699395498E+03  0.00000000000E+00 0.  1.
         11    1    1    2    0    0  0.98483817789E+02 -0.77559714541E+02 -0.10013399307E+03  0.16044122991E+03  0.00000000000E+00 0. -1.
</event>
<event>
 7    1  0.2384639E-009  0.3015575E+03  0.7561462E-02  0.1084465E+00
          2   -1    0    0  501    0  0.00000000000E+00  0.00000000000E+00  0.10578520507E+04  0.10578520507E+04  0.00000000000E+00 0. -1.
         -2   -1    0    0    0  501 -0.00000000000E+00 -0.00000000000E+00 -0.95397201896E+02  0.95397201896E+02  0.00000000000E+00 0.  1.
         25    2    1    2    0    0  0.28244011285E+03 -0.94895432927E+02  0.49975335378E+03  0.59512511173E+03  0.12507167328E+03 0.  0.
          5    1    3    3  502    0  0.11724296656E+03 -0.35209223969E+02  0.98807282070E+02  0.15737202436E+03  0.41800000000E+01 0.  1.
         -5    1    3    3    0  502  0.16519714629E+03 -0.59686208958E+02  0.40094607171E+03  0.43775308737E+03  0.41800000000E+01 0.  1.
        -11    1    1    2    0    0 -0.12675153127E+03  0.76773924542E+02  0.16568319338E+03  0.22228609209E+03  0.00000000000E+00 0.  1.
         11    1    1    2    0    0 -0.15568858158E+03  0.18121508384E+02  0.29701830167E+03  0.33583804880E+03  0.00000000000E+00 0. -1.
</event>
<event>
 7    1  0.2384639E-009  0.9926235E+02  0.7561462E-02  0.1281855E+00
         -1   -1    0    0    0  501 -0.00000000000E+00  0.00000000000E+00  0.18205667657E+03  0.18205667657E+03  0.00000000000E+00 0.  1.
          1   -1    0    0  501    0  0.00000000000E+00 -0.00000000000E+00 -0.85725787813E+02  0.85725787813E+02  0.00000000000E+00 0. -1.
         25    2    1    2    0    0 -0.44145852550E+02  0.22071660008E+02  0.91968362904E+02  0.16291770100E+03  0.12509189842E+03 0.  0.
          5    1    3    3  502    0  0.27031858539E+02 -0.29280163291E+02  0.53889798515E+02  0.67153794550E+02  0.41800000000E+01 0. -1.
         -5    1    3    3    0  502 -0.71177711089E+02  0.51351823299E+02  0.38078564389E+02  0.95763906447E+02  0.41800000000E+01 0. -1.
        -11    1    1    2    0    0  0.23708361712E+02 -0.37922806878E+02  0.40559891264E+02  0.60376572244E+02  0.00000000000E+00 0.  1.
         11    1    1    2    0    0  0.20437490837E+02  0.15851146870E+02 -0.36197365409E+02  0.44488191145E+02  0.00000000000E+00 0. -1.
</event>
<event>
 7    1  0.2384639E-009  0.8398327E+02  0.7561462E-02  0.1318113E+00
          1   -1    0    0  501    0  0.00000000000E+00  0.00000000000E+00  0.45666166025E+03  0.45666166025E+03  0.00000000000E+00 0. -1.
         -1   -1    0    0    0  501 -0.00000000000E+00 -0.00000000000E+00 -0.33294595993E+02  0.33294595993E+02  0.00000000000E+00 0.  1.
         25    2    1    2    0    0  0.19933292558E+02 -0.47124549918E+02  0.29192865735E+03  0.32169508677E+03  0.12508928215E+03 0.  0.
          5    1    3    3  502    0  0.41852594397E+02 -0.14300644172E+02  0.23328130618E+02  0.50177905094E+02  0.41800000000E+01 0.  1.
         -5    1    3    3    0  502 -0.21919301839E+02 -0.32823905746E+02  0.26860052674E+03  0.27151718167E+03  0.41800000000E+01 0.  1.
        -11    1    1    2    0    0 -0.92033226765E+01  0.63559882752E+02  0.42099299166E+02  0.76791346088E+02  0.00000000000E+00 0.  1.
         11    1    1    2    0    0 -0.10729969881E+02 -0.16435332835E+02  0.89339107739E+02  0.91469823388E+02  0.00000000000E+00 0. -1.
</event>
<event>
 7    1  0.2384639E-009  0.3738690E+03  0.7561462E-02  0.1053223E+00
         -2   -1    0    0    0  501 -0.00000000000E+00  0.00000000000E+00  0.24911036414E+03  0.24911036414E+03  0.00000000000E+00 0.  1.
          2   -1    0    0  501    0  0.00000000000E+00 -0.00000000000E+00 -0.58080223907E+03  0.58080223907E+03  0.00000000000E+00 0. -1.
         25    2    1    2    0    0 -0.42842413462E+02 -0.35973606693E+03 -0.12799275036E+03  0.40407186998E+03  0.12508565755E+03 0.  0.
          5    1    3    3  502    0 -0.64780059285E+01  0.94903768279E+01 -0.42645233044E+01  0.12949531735E+02  0.41800000000E+01 0.  1.
         -5    1    3    3    0  502 -0.36364407534E+02 -0.36922644376E+03 -0.12372822706E+03  0.39112233825E+03  0.41800000000E+01 0.  1.
        -11    1    1    2    0    0  0.24970251350E+02  0.72439624953E+02 -0.85104882646E+02  0.11451573589E+03  0.00000000000E+00 0. -1.
         11    1    1    2    0    0  0.17872162112E+02  0.28729644198E+03 -0.11859424192E+03  0.31132499734E+03  0.00000000000E+00 0.  1.
</event>
<event>
 7    1  0.2384639E-009  0.7864064E+02  0.7561462E-02  0.1332954E+00
          1   -1    0    0  501    0  0.00000000000E+00  0.00000000000E+00  0.41745480115E+02  0.41745480115E+02  0.00000000000E+00 0. -1.
         -1   -1    0    0    0  501 -0.00000000000E+00 -0.00000000000E+00 -0.29792607367E+03  0.29792607367E+03  0.00000000000E+00 0.  1.
         25    2    1    2    0    0  0.12424331720E+01 -0.11307661740E+02 -0.11281472274E+03  0.16883333205E+03  0.12509246776E+03 0.  0.
          5    1    3    3  502    0  0.27648218839E+02  0.14505960232E+02  0.15597909253E+02  0.35151302398E+02  0.41800000000E+01 0.  1.
         -5    1    3    3    0  502 -0.26405785667E+02 -0.25813621972E+02 -0.12841263199E+03  0.13368202965E+03  0.41800000000E+01 0.  1.
        -11    1    1    2    0    0  0.37279581153E+02  0.28010540668E+02 -0.10072668273E+03  0.11099649622E+03  0.00000000000E+00 0.  1.
         11    1    1    2    0    0 -0.38522014325E+02 -0.16702878928E+02 -0.42639188082E+02  0.59841725513E+02  0.00000000000E+00 0. -1.
</event>
<event>
 7    1  0.2384639E-009  0.3727754E+03  0.7561462E-02  0.1053637E+00
         -2   -1    0    0    0  501 -0.00000000000E+00  0.00000000000E+00  0.13673406197E+03  0.13673406197E+03  0.00000000000E+00 0.  1.
          2   -1    0    0  501    0  0.00000000000E+00 -0.00000000000E+00 -0.10819954897E+04  0.10819954897E+04  0.00000000000E+00 0. -1.
         25    2    1    2    0    0 -0.34742323392E+03  0.98159824024E+02 -0.35933236407E+03  0.52450552001E+03  0.12509211861E+03 0.  0.
          5    1    3    3  502    0 -0.15812119890E+02 -0.22246791152E+02 -0.14621768977E+02  0.31244381575E+02  0.41800000000E+01 0.  1.
         -5    1    3    3    0  502 -0.33161111403E+03  0.12040661518E+03 -0.34471059509E+03  0.49326113844E+03  0.41800000000E+01 0.  1.
        -11    1    1    2    0    0  0.27026597638E+03 -0.99365173630E+02 -0.39954365144E+03  0.49249595443E+03  0.00000000000E+00 0. -1.
         11    1    1    2    0    0  0.77157257537E+02  0.12053496063E+01 -0.18638541226E+03  0.20172807728E+03  0.00000000000E+00 0.  1.
</event>
<event>
 7    1  0.2384639E-009  0.1232407E+03  0.7561462E-02  0.1237845E+00
          2   -1    0    0  501    0  0.00000000000E+00  0.00000000000E+00  0.60049099786E+02  0.60049099786E+02  0.00000000000E+00 0.  1.
         -2   -1    0    0    0  501 -0.00000000000E+00 -0.00000000000E+00 -0.41684984684E+03  0.41684984684E+03  0.00000000000E+00 0. -1.
         25    2    1    2    0    0 -0.97212232976E+02 -0.53683874980E+02 -0.23953294820E+03  0.29215489436E+03  0.12508506047E+03 0.  0.
          5    1    3    3  502    0 -0.53247455734E+02  0.13445106181E+02 -0.18986011487E+03  0.19768762744E+03  0.41800000000E+01 0.  1.
         -5    1    3    3    0  502 -0.43964777241E+02 -0.67128981162E+02 -0.49672833334E+02  0.94467266929E+02  0.41800000000E+01 0.  1.
        -11    1    1    2    0    0  0.15831909317E+02  0.86629440873E+01 -0.84082378063E+02  0.85997338642E+02  0.00000000000E+00 0. -1.
         11    1    1    2    0    0  0.81380323659E+02  0.45020930893E+02 -0.33185420783E+02  0.98746713615E+02  0.00000000000E+00 0.  1.
</event>
<event>
 7    1  0.2384639E-009  0.1021467E+03  0.7561462E-02  0.1275845E+00
         -1   -1    0    0    0  501 -0.00000000000E+00  0.00000000000E+00  0.51851892277E+03  0.51851892277E+03  0.00000000000E+00 0.  1.
          1   -1    0    0  501    0  0.00000000000E+00 -0.00000000000E+00 -0.29005420556E+02  0.29005420556E+02  0.00000000000E+00 0. -1.
         25    2    1    2    0    0 -0.43577030039E+02 -0.30747063655E+02  0.32351499816E+03  0.35093135137E+03  0.12508604985E+03 0.  0.
          5    1    3    3  502    0  0.43272608077E+02 -0.56973344718E+01  0.13253689754E+03  0.13960114556E+03  0.41800000000E+01 0. -1.
         -5    1    3    3    0  502 -0.86849638115E+02 -0.25049729183E+02  0.19097810062E+03  0.21133020581E+03  0.41800000000E+01 0. -1.
        -11    1    1    2    0    0  0.18472831186E+02  0.39312060123E+02  0.16437626206E+03  0.17001834928E+03  0.00000000000E+00 0.  1.
         11    1    1    2    0    0  0.25104198852E+02 -0.85649964678E+01  0.16222419950E+01  0.26574642680E+02  0.00000000000E+00 0. -1.
</event>
<event>
 7    1  0.2384639E-009  0.1151065E+03  0.7561462E-02  0.1251395E+00
          1   -1    0    0  501    0  0.00000000000E+00  0.00000000000E+00  0.41680109691E+02  0.41680109691E+02  0.00000000000E+00 0. -1.
         -1   -1    0    0    0  501 -0.00000000000E+00 -0.00000000000E+00 -0.38059952705E+03  0.38059952705E+03  0.00000000000E+00 0.  1.
         25    2    1    2    0    0 -0.53147272922E+02 -0.34497733440E+02 -0.20512864789E+03  0.24847416033E+03  0.12508764900E+03 0.  0.
          5    1    3    3  502    0 -0.83065496489E+02 -0.32971438389E+02 -0.80913889036E+02  0.12062969077E+03  0.41800000000E+01 0. -1.
         -5    1    3    3    0  502  0.29918223567E+02 -0.15262950508E+01 -0.12421475886E+03  0.12784446956E+03  0.41800000000E+01 0. -1.
        -11    1    1    2    0    0  0.48827332850E+02 -0.22199061938E+02 -0.72732978859E+02  0.90371416930E+02  0.00000000000E+00 0. -1.
         11    1    1    2    0    0  0.43199400722E+01  0.56696795378E+02 -0.61057790606E+02  0.83434059485E+02  0.00000000000E+00 0.  1.
</event>
<event>
 7    1  0.2384639E-009  0.1044817E+03  0.7561462E-02  0.1271144E+00
          2   -1    0    0  501    0  0.00000000000E+00  0.00000000000E+00  0.22215396449E+03  0.22215396449E+03  0.00000000000E+00 0.  1.
         -2   -1    0    0    0  501 -0.00000000000E+00 -0.00000000000E+00 -0.60961949966E+02  0.60961949966E+02  0.00000000000E+00 0. -1.
         25    2    1    2    0    0 -0.14465680309E+02 -0.51867239390E+02  0.86178685104E+02  0.16116573624E+03  0.12509261506E+03 0.  0.
          5    1    3    3  502    0 -0.55310914864E+02 -0.48341419952E+02  0.93844079466E+02  0.11924920896E+03  0.41800000000E+01 0.  1.
         -5    1    3    3    0  502  0.40845234554E+02 -0.35258194378E+01 -0.76653943621E+01  0.41916527280E+02  0.41800000000E+01 0.  1.
        -11    1    1    2    0    0 -0.16091935615E+02 -0.14150821684E+02  0.75041290089E+01  0.22704803420E+02  0.00000000000E+00 0.  1.
         11    1    1    2    0    0  0.30557615924E+02  0.66018061074E+02  0.67509200411E+02  0.99245374799E+02  0.00000000000E+00 0. -1.
</event>
<event>
 7    1  0.2384639E-009  0.1068089E+03  0.7561462E-02  0.1266596E+00
          1   -1    0    0  501    0  0.00000000000E+00  0.00000000000E+00  0.15112544734E+02  0.15112544734E+02  0.00000000000E+00 0. -1.
         -1   -1    0    0    0  501 -0.00000000000E+00 -0.00000000000E+00 -0.94301074948E+03  0.94301074948E+03  0.00000000000E+00 0.  1.
         25    2    1    2    0    0 -0.46517200569E+02  0.29268968118E+02 -0.58194466085E+03  0.59776872602E+03  0.12508932439E+03 0.  0.
          5    1    3    3  502    0 -0.86600325118E+02  0.45204326355E+01 -0.31891608339E+03  0.33052230071E+03  0.41800000000E+01 0. -1.
         -5    1    3    3    0  502  0.40083124549E+02  0.24748535482E+02 -0.26302857746E+03  0.26724642531E+03  0.41800000000E+01 0. -1.
        -11    1    1    2    0    0  0.53242069677E+02 -0.40389633760E+01 -0.31658884539E+03  0.32106000722E+03  0.00000000000E+00 0.  1.
         11    1    1    2    0    0 -0.67248691079E+01 -0.25230004742E+02 -0.29364698506E+02  0.39294560974E+02  0.00000000000E+00 0. -1.
</event>
<event>
 7    1  0.2384639E-009  0.1207339E+03  0.7561462E-02  0.1241891E+00
          1   -1    0    0  501    0  0.00000000000E+00  0.00000000000E+00  0.18322618244E+04  0.18322618244E+04  0.00000000000E+00 0. -1.
         -1   -1    0    0    0  501 -0.00000000000E+00 -0.00000000000E+00 -0.18802673465E+02  0.18802673465E+02  0.00000000000E+00 0.  1.
         25    2    1    2    0    0  0.10058426931E+03 -0.43158137667E+02  0.14708783420E+04  0.14802394677E+04  0.12508383085E+03 0.  0.
          5    1    3    3  502    0 -0.27883642717E+01  0.10333551126E+02  0.11623859249E+02  0.16344532971E+02  0.41800000000E+01 0. -1.
         -5    1    3    3    0  502  0.10337263358E+03 -0.53491688793E+02  0.14592544827E+04  0.14638949347E+04  0.41800000000E+01 0. -1.
        -11    1    1    2    0    0 -0.20607723083E+02  0.23297774189E+02  0.17978839399E+02  0.35926357997E+02  0.00000000000E+00 0.  1.
         11    1    1    2    0    0 -0.79976546222E+02  0.19860363478E+02  0.32460196957E+03  0.33489867218E+03  0.00000000000E+00 0. -1.
</event>
<event>
 7    1  0.2384639E-009  0.1018844E+03  0.7561462E-02  0.1276383E+00
          1   -1    0    0  501    0  0.00000000000E+00  0.00000000000E+00  0.45136853805E+02  0.45136853805E+02  0.00000000000E+00 0. -1.
         -1   -1    0    0    0  501 -0.00000000000E+00 -0.00000000000E+00 -0.32659822300E+03  0.32659822300E+03  0.00000000000E+00 0.  1.
         25    2    1    2    0    0 -0.52182814196E+02 -0.62038924007E+01 -0.13890825496E+03  0.19418208546E+03  0.12509853972E+03 0.  0.
          5    1    3    3  502    0 -0.62452857222E+02  0.36536533054E+02 -0.33389657370E+02  0.79797363629E+02  0.41800000000E+01 0. -1.
         -5    1    3    3    0  502  0.10270043026E+02 -0.42740425455E+02 -0.10551859759E+03  0.11438472183E+03  0.41800000000E+01 0. -1.
        -11    1    1    2    0    0  0.18236175109E+01 -0.26842123252E+02 -0.10063431584E+03  0.10416856861E+03  0.00000000000E+00 0. -1.
         11    1    1    2    0    0  0.50359196686E+02  0.33046015653E+02 -0.41918798402E+02  0.73384422740E+02  0.00000000000E+00 0.  1.
</event>
<event>
 7    1  0.2384639E-009  0.1286265E+03  0.7561462E-02  0.1229508E+00
         -1   -1    0    0    0  501 -0.00000000000E+00  0.00000000000E+00  0.42376147662E+03  0.42376147662E+03  0.00000000000E+00 0. -1.
          1   -1    0    0  501    0  0.00000000000E+00 -0.00000000000E+00 -0.64836538490E+02  0.64836538490E+02  0.00000000000E+00 0.  1.
         25    2    1    2    0    0 -0.24644216369E+02  0.69765893971E+02  0.42591450257E+02  0.15144600552E+03  0.12508894272E+03 0.  0.
          5    1    3    3  502    0  0.82517076441E+01 -0.34323521574E+02  0.49077571059E+01  0.35885279602E+02  0.41800000000E+01 0.  1.
         -5    1    3    3    0  502 -0.32895924013E+02  0.10408941555E+03  0.37683693151E+02  0.11556072592E+03  0.41800000000E+01 0.  1.
        -11    1    1    2    0    0  0.31723243765E+02  0.93160802248E+01  0.56551192687E+02  0.65507182355E+02  0.00000000000E+00 0.  1.
         11    1    1    2    0    0 -0.70790273963E+01 -0.79081974196E+02  0.25978229518E+03  0.27164482723E+03  0.00000000000E+00 0. -1.
</event>
<event>
 7    1  0.2384639E-009  0.1167406E+03  0.7561462E-02  0.1248573E+00
          2   -1    0    0  501    0  0.00000000000E+00  0.00000000000E+00  0.33292252001E+03  0.33292252001E+03  0.00000000000E+00 0. -1.
         -2   -1    0    0    0  501 -0.00000000000E+00 -0.00000000000E+00 -0.68912986393E+02  0.68912986393E+02  0.00000000000E+00 0.  1.
         25    2    1    2    0    0  0.19987562620E+02 -0.59721210590E+02  0.31798189521E+02  0.14362405879E+03  0.12510243704E+03 0.  0.
          5    1    3    3  502    0  0.49139278064E+02 -0.81115356132E+02  0.44800306848E+02  0.10497099382E+03  0.41800000000E+01 0. -1.
         -5    1    3    3    0  502 -0.29151715444E+02  0.21394145542E+02 -0.13002117327E+02  0.38653064973E+02  0.41800000000E+01 0. -1.
        -11    1    1    2    0    0 -0.23717743761E+02  0.79015473103E+02  0.22027937801E+03  0.23522113156E+03  0.00000000000E+00 0. -1.
         11    1    1    2    0    0  0.37301811414E+01 -0.19294262513E+02  0.11931966087E+02  0.22990316048E+02  0.00000000000E+00 0.  1.
</event>
<event>
 7    1  0.2384639E-009  0.1225038E+03  0.7561462E-02  0.1239023E+00
          2   -1    0    0  501    0  0.00000000000E+00  0.00000000000E+00  0.44029359583E+03  0.44029359583E+03  0.00000000000E+00 0. -1.
         -2   -1    0    0    0  501 -0.00000000000E+00 -0.00000000000E+00 -0.39283450138E+02  0.39283450138E+02  0.00000000000E+00 0.  1.
         25    2    1    2    0    0 -0.62104334817E+02 -0.21281826564E+02  0.28342721996E+03  0.31668215848E+03  0.12508691355E+03 0.  0.
          5    1    3    3  502    0  0.10832092905E+02 -0.52441295951E+02  0.16947111810E+03  0.17777895272E+03  0.41800000000E+01 0.  1.
         -5    1    3    3    0  502 -0.72936427722E+02  0.31159469387E+02  0.11395610185E+03  0.13890320576E+03  0.41800000000E+01 0.  1.
        -11    1    1    2    0    0  0.85866986474E+02  0.13862701861E+02  0.99310044040E+02  0.13201438829E+03  0.00000000000E+00 0.  1.
         11    1    1    2    0    0 -0.23762651658E+02  0.74191247031E+01  0.18272881696E+02  0.30880499197E+02  0.00000000000E+00 0. -1.
</event>
<event>
 7    1  0.2384639E-009  0.1125429E+03  0.7561462E-02  0.1255932E+00
          2   -1    0    0  501    0  0.00000000000E+00  0.00000000000E+00  0.15097002672E+03  0.15097002672E+03  0.00000000000E+00 0. -1.
         -2   -1    0    0    0  501 -0.00000000000E+00 -0.00000000000E+00 -0.17199280528E+03  0.17199280528E+03  0.00000000000E+00 0.  1.
         25    2    1    2    0    0 -0.11799222750E+02 -0.64256463607E+02  0.88813434879E+02  0.16674274107E+03  0.12508877132E+03 0.  0.
          5    1    3    3  502    0 -0.52786370348E+02 -0.24168479907E+02  0.92335455257E+02  0.10915046960E+03  0.41800000000E+01 0. -1.
         -5    1    3    3    0  502  0.40987147598E+02 -0.40087983700E+02 -0.35220203786E+01  0.57592271469E+02  0.41800000000E+01 0. -1.
        -11    1    1    2    0    0  0.12272535721E+02 -0.20900181332E+02 -0.36622951486E+02  0.43916662992E+02  0.00000000000E+00 0.  1.
         11    1    1    2    0    0 -0.47331297126E+00  0.85156644939E+02 -0.73213261948E+02  0.11230342794E+03  0.00000000000E+00 0. -1.
</event>
<event>
 7    1  0.2384639E-009  0.1144553E+03  0.7561462E-02  0.1252535E+00
         -2   -1    0    0    0  501 -0.00000000000E+00  0.00000000000E+00  0.34831322766E+02  0.34831322766E+02  0.00000000000E+00 0.  1.
          2   -1    0    0  501    0  0.00000000000E+00 -0.00000000000E+00 -0.43407511269E+03  0.43407511269E+03  0.00000000000E+00 0. -1.
         25    2    1    2    0    0  0.71460205895E+01 -0.38172027092E+02 -0.14060779669E+03  0.19216200193E+03  0.12509002052E+03 0.  0.
          5    1    3    3  502    0  0.30959710343E+02 -0.77912216610E+02 -0.82112864892E+02  0.11742577291E+03  0.41800000000E+01 0.  1.
         -5    1    3    3    0  502 -0.23813689753E+02  0.39740189518E+02 -0.58494931796E+02  0.74736229022E+02  0.41800000000E+01 0.  1.
        -11    1    1    2    0    0  0.94843823912E+01  0.65650506150E+02 -0.17623309243E+03  0.18830306777E+03  0.00000000000E+00 0.  1.
         11    1    1    2    0    0 -0.16630402981E+02 -0.27478479058E+02 -0.82402900806E+02  0.88441365751E+02  0.00000000000E+00 0. -1.
</event>
<event>
 7    1  0.2384639E-009  0.1104447E+03  0.7561462E-02  0.1259749E+00
          1   -1    0    0  501    0  0.00000000000E+00  0.00000000000E+00  0.32658345531E+03  0.32658345531E+03  0.00000000000E+00 0. -1.
         -1   -1    0    0    0  501 -0.00000000000E+00 -0.00000000000E+00 -0.44668450699E+02  0.44668450699E+02  0.00000000000E+00 0.  1.
         25    2    1    2    0    0 -0.51062922248E+02  0.11298784115E+02  0.17356883104E+03  0.22025170056E+03  0.12509831310E+03 0.  0.
          5    1    3    3  502    0  0.31630429845E+02  0.31402261338E+02  0.32028696828E+02  0.55044490459E+02  0.41800000000E+01 0. -1.
         -5    1    3    3    0  502 -0.82693352093E+02 -0.20103477223E+02  0.14154013421E+03  0.16520721010E+03  0.41800000000E+01 0. -1.
        -11    1    1    2    0    0  0.53758134393E+02 -0.36881797591E+02  0.36562553861E+02  0.74746400259E+02  0.00000000000E+00 0.  1.
         11    1    1    2    0    0 -0.26952121451E+01  0.25583013476E+02  0.71783619719E+02  0.76253805197E+02  0.00000000000E+00 0. -1.
</event>
<event>
 7    1  0.2384639E-009  0.1169711E+03  0.7561462E-02  0.1248179E+00
          2   -1    0    0  501    0  0.00000000000E+00  0.00000000000E+00  0.60903344419E+03  0.60903344419E+03  0.00000000000E+00 0. -1.
         -2   -1    0    0    0  501 -0.00000000000E+00 -0.00000000000E+00 -0.31055400275E+02  0.31055400275E+02  0.00000000000E+00 0.  1.
         25    2    1    2    0    0  0.19492848551E+02  0.41834372022E+02  0.15244536492E+03  0.20252478183E+03  0.12508641871E+03 0.  0.
          5    1    3    3  502    0 -0.50830429450E+02 -0.71424204813E+00  0.60152339307E+02  0.78867097220E+02  0.41800000000E+01 0.  1.
         -5    1    3    3    0  502  0.70323278000E+02  0.42548614070E+02  0.92293025609E+02  0.12365768461E+03  0.41800000000E+01 0.  1.
        -11    1    1    2    0    0  0.29655813543E+02  0.79242291008E+01  0.16359576047E+03  0.16645069399E+03  0.00000000000E+00 0. -1.
         11    1    1    2    0    0 -0.49148662094E+02 -0.49758601123E+02  0.26193691853E+03  0.27111336865E+03  0.00000000000E+00 0.  1.
</event>
<event>
 7    1  0.2730443E-009  0.1294937E+03  0.7561462E-02  0.1228209E+00
         -1   -1    0    0    0  501 -0.00000000000E+00  0.00000000000E+00  0.30877822458E+02  0.30877822458E+02  0.00000000000E+00 0.  1.
          1   -1    0    0  501    0  0.00000000000E+00 -0.00000000000E+00 -0.96777885295E+03  0.96777885295E+03  0.00000000000E+00 0. -1.
         25    2    1    2    0    0 -0.50419503739E+02 -0.64890591141E+02 -0.80449223607E+03  0.81829489836E+03  0.12508344259E+03 0.  0.
          5    1    3    3  502    0 -0.51056666959E+02 -0.10095111251E+03 -0.59302521095E+03  0.60373361972E+03  0.41800000000E+01 0.  1.
         -5    1    3    3    0  502  0.63716321991E+00  0.36060521371E+02 -0.21146702513E+03  0.21456127865E+03  0.41800000000E+01 0.  1.
        -11    1    1    2    0    0 -0.18615965016E+02  0.18862901667E+02 -0.30462014370E+01  0.26676629396E+02  0.00000000000E+00 0.  1.
         11    1    1    2    0    0  0.69035468755E+02  0.46027689474E+02 -0.12936259298E+03  0.15368514765E+03  0.00000000000E+00 0. -1.
</event>
<event>
 7    1  0.2384639E-009  0.2261150E+03  0.7561462E-02  0.1129404E+00
         -2   -1    0    0    0  501 -0.00000000000E+00  0.00000000000E+00  0.19467599655E+03  0.19467599655E+03  0.00000000000E+00 0. -1.
          2   -1    0    0  501    0  0.00000000000E+00 -0.00000000000E+00 -0.63878546400E+03  0.63878546400E+03  0.00000000000E+00 0.  1.
         25    2    1    2    0    0  0.16350034313E+03  0.14898204315E+03  0.73481128788E+02  0.26452688887E+03  0.12508791812E+03 0.  0.
          5    1    3    3  502    0  0.13408404211E+03  0.80671738374E+02 -0.46086506923E+01  0.15660514609E+03  0.41800000000E+01 0. -1.
         -5    1    3    3    0  502  0.29416301019E+02  0.68310304778E+02  0.78089779480E+02  0.10792174278E+03  0.41800000000E+01 0. -1.
        -11    1    1    2    0    0 -0.13175146887E+03 -0.12073801996E+03 -0.31709567137E+03  0.36398596651E+03  0.00000000000E+00 0. -1.
         11    1    1    2    0    0 -0.31748874256E+02 -0.28244023191E+02 -0.20049492487E+03  0.20494860517E+03  0.00000000000E+00 0.  1.
</event>
<event>
 7    1  0.2384639E-009  0.8276970E+02  0.7561462E-02  0.1321370E+00
         -1   -1    0    0    0  501 -0.00000000000E+00  0.00000000000E+00  0.54578196830E+03  0.54578196830E+03  0.00000000000E+00 0.  1.
          1   -1    0    0  501    0  0.00000000000E+00 -0.00000000000E+00 -0.32442996757E+02  0.32442996757E+02  0.00000000000E+00 0. -1.
         25    2    1    2    0    0 -0.33772991633E+02  0.62108249835E+02  0.34172636503E+03  0.37070652554E+03  0.12509344449E+03 0.  0.
          5    1    3    3  502    0 -0.29536133842E+02  0.16634617394E+02  0.96692458826E+01  0.35497329676E+02  0.41800000000E+01 0.  1.
         -5    1    3    3    0  502 -0.42368577912E+01  0.45473632441E+02  0.33205711915E+03  0.33520919586E+03  0.41800000000E+01 0.  1.
        -11    1    1    2    0    0  0.82325825281E+01 -0.59254373133E+02  0.36708138243E+02  0.70187916081E+02  0.00000000000E+00 0. -1.
         11    1    1    2    0    0  0.25540409105E+02 -0.28538767013E+01  0.13490446826E+03  0.13733052344E+03  0.00000000000E+00 0.  1.
</event>
<event>
 7    1  0.2384639E-009  0.2125652E+03  0.7561462E-02  0.1139551E+00
         -1   -1    0    0    0  501 -0.00000000000E+00  0.00000000000E+00  0.32504132251E+04  0.32504132251E+04  0.00000000000E+00 0.  1.
          1   -1    0    0  501    0  0.00000000000E+00 -0.00000000000E+00 -0.20256579333E+02  0.20256579333E+02  0.00000000000E+00 0. -1.
         25    2    1    2    0    0 -0.57330896158E+02 -0.19385616479E+03  0.23811780787E+04  0.23930156413E+04  0.12509105812E+03 0.  0.
          5    1    3    3  502    0 -0.24678607675E+00  0.19418796393E+01  0.62689665916E+03  0.62691365073E+03  0.41800000000E+01 0.  1.
         -5    1    3    3    0  502 -0.57084110082E+02 -0.19579804443E+03  0.17542814195E+04  0.17661019906E+04  0.41800000000E+01 0.  1.
        -11    1    1    2    0    0  0.58957559727E+02  0.65385403136E+02  0.44887973891E+03  0.45743225160E+03  0.00000000000E+00 0.  1.
         11    1    1    2    0    0 -0.16266635683E+01  0.12847076165E+03  0.40009882818E+03  0.42022191155E+03  0.00000000000E+00 0. -1.
</event>
<event>
 7    1  0.2384639E-009  0.1375535E+03  0.7561462E-02  0.1216659E+00
         -1   -1    0    0    0  501 -0.00000000000E+00  0.00000000000E+00  0.26205618396E+03  0.26205618396E+03  0.00000000000E+00 0.  1.
          1   -1    0    0  501    0  0.00000000000E+00 -0.00000000000E+00 -0.86967169378E+02  0.86967169378E+02  0.00000000000E+00 0. -1.
         25    2    1    2    0    0  0.93085912254E+02 -0.45569799302E+02  0.72946847969E+02  0.17807413408E+03  0.12509021118E+03 0.  0.
          5    1    3    3  502    0  0.45572174946E+02  0.35780371804E+02  0.58908380853E+02  0.82732870556E+02  0.41800000000E+01 0. -1.
         -5    1    3    3    0  502  0.47513737308E+02 -0.81350171106E+02  0.14038467116E+02  0.95341263527E+02  0.41800000000E+01 0. -1.
        -11    1    1    2    0    0 -0.10340941075E+03  0.43494880138E+02  0.59420986611E+02  0.12694945640E+03  0.00000000000E+00 0. -1.
         11    1    1    2    0    0  0.10323498497E+02  0.20749191632E+01  0.42721179996E+02  0.43999762852E+02  0.00000000000E+00 0.  1.
</event>
<event>
 7    1  0.2384639E-009  0.9429574E+02  0.7561462E-02  0.1292770E+00
         -2   -1    0    0    0  501 -0.00000000000E+00  0.00000000000E+00  0.26072057897E+02  0.26072057897E+02  0.00000000000E+00 0.  1.
          2   -1    0    0  501    0  0.00000000000E+00 -0.00000000000E+00 -0.69799938696E+03  0.69799938696E+03  0.00000000000E+00 0. -1.
         25    2    1    2    0    0 -0.51989529870E+02 -0.34178450507E+01 -0.53700049296E+03  0.55383457819E+03  0.12509443504E+03 0.  0.
          5    1    3    3  502    0 -0.84819404202E+02 -0.53032939585E+01 -0.48325534423E+03  0.49068896094E+03  0.41800000000E+01 0. -1.
         -5    1    3    3    0  502  0.32829874333E+02  0.18854489078E+01 -0.53745148725E+02  0.63145617249E+02  0.41800000000E+01 0. -1.
        -11    1    1    2    0    0  0.16944124762E+02 -0.21485267339E+02 -0.12245087927E+03  0.12547086479E+03  0.00000000000E+00 0. -1.
         11    1    1    2    0    0  0.35045405108E+02  0.24903112390E+02 -0.12475956840E+02  0.44766001887E+02  0.00000000000E+00 0.  1.
</event>
<event>
 7    1  0.2384639E-009  0.1069426E+03  0.7561462E-02  0.1266339E+00
          2   -1    0    0  501    0  0.00000000000E+00  0.00000000000E+00  0.18609758617E+03  0.18609758617E+03  0.00000000000E+00 0.  1.
         -2   -1    0    0    0  501 -0.00000000000E+00 -0.00000000000E+00 -0.68571888858E+02  0.68571888858E+02  0.00000000000E+00 0. -1.
         25    2    1    2    0    0  0.11282293882E+02  0.17203299420E+02  0.51127734032E+02  0.13668829319E+03  0.12508557328E+03 0.  0.
          5    1    3    3  502    0  0.14174745833E+02 -0.48391670886E+02  0.49636594771E+02  0.70879765597E+02  0.41800000000E+01 0. -1.
         -5    1    3    3    0  502 -0.28924519504E+01  0.65594970306E+02  0.14911392612E+01  0.65808527593E+02  0.41800000000E+01 0. -1.
        -11    1    1    2    0    0  0.41360605308E+02  0.21284955688E+01  0.29608413189E+02  0.50910591200E+02  0.00000000000E+00 0.  1.
         11    1    1    2    0    0 -0.52642899190E+02 -0.19331794989E+02  0.36789550091E+02  0.67070590638E+02  0.00000000000E+00 0. -1.
</event>
<event>
 7    1  0.2384639E-009  0.1139744E+03  0.7561462E-02  0.1253382E+00
         -1   -1    0    0    0  501 -0.00000000000E+00  0.00000000000E+00  0.36172855385E+02  0.36172855385E+02  0.00000000000E+00 0.  1.
          1   -1    0    0  501    0  0.00000000000E+00 -0.00000000000E+00 -0.49670808594E+03  0.49670808594E+03  0.00000000000E+00 0. -1.
         25    2    1    2    0    0 -0.34167874228E+02  0.10743804159E+02 -0.39211248234E+03  0.41313766211E+03  0.12509059155E+03 0.  0.
          5    1    3    3  502    0 -0.80517298237E+02  0.18338157593E+02 -0.23646521086E+03  0.25050467398E+03  0.41800000000E+01 0.  1.
         -5    1    3    3    0  502  0.46349424009E+02 -0.75943534348E+01 -0.15564727148E+03  0.16263298813E+03  0.41800000000E+01 0.  1.
        -11    1    1    2    0    0  0.58683157993E+02 -0.30946999887E+02 -0.43050100550E+02  0.79086920482E+02  0.00000000000E+00 0.  1.
         11    1    1    2    0    0 -0.24515283765E+02  0.20203195728E+02 -0.25372647671E+02  0.40656358734E+02  0.00000000000E+00 0. -1.
</event>
<event>
 7    1  0.2384639E-009  0.1041364E+03  0.7561462E-02  0.1271831E+00
          1   -1    0    0  501    0  0.00000000000E+00  0.00000000000E+00  0.27017250926E+04  0.27017250926E+04  0.00000000000E+00 0. -1.
         -1   -1    0    0    0  501 -0.00000000000E+00 -0.00000000000E+00 -0.88244062595E+01  0.88244062595E+01  0.00000000000E+00 0.  1.
         25    2    1    2    0    0 -0.83518623478E+02 -0.93308445789E+01  0.20365372552E+04  0.20421050427E+04  0.12508632533E+03 0.  0.
          5    1    3    3  502    0 -0.13613895382E+02 -0.35969861013E+01  0.22670898839E+02  0.27013302476E+02  0.41800000000E+01 0.  1.
         -5    1    3    3    0  502 -0.69904728096E+02 -0.57338584776E+01  0.20138663563E+04  0.20150917403E+04  0.41800000000E+01 0.  1.
        -11    1    1    2    0    0 -0.14209144950E+02  0.20514543803E+02  0.81804704606E+02  0.85526346837E+02  0.00000000000E+00 0. -1.
         11    1    1    2    0    0  0.97727768429E+02 -0.11183699224E+02  0.57455872656E+03  0.58291810927E+03  0.00000000000E+00 0.  1.
</event>
<event>
 7    1  0.2384639E-009  0.6385032E+02  0.7561462E-02  0.1382349E+00
          1   -1    0    0  501    0  0.00000000000E+00  0.00000000000E+00  0.21658385324E+03  0.21658385324E+03  0.00000000000E+00 0.  1.
         -1   -1    0    0    0  501 -0.00000000000E+00 -0.00000000000E+00 -0.62099703012E+02  0.62099703012E+02  0.00000000000E+00 0. -1.
         25    2    1    2    0    0 -0.95824788694E+01 -0.15739469631E+01  0.41431444793E+02  0.13212938995E+03  0.12508920761E+03 0.  0.
          5    1    3    3  502    0  0.73416898807E+01 -0.21840907989E+02  0.81033220962E+02  0.84349161060E+02  0.41800000000E+01 0. -1.
         -5    1    3    3    0  502 -0.16924168750E+02  0.20266961026E+02 -0.39601776169E+02  0.47780228891E+02  0.41800000000E+01 0. -1.
        -11    1    1    2    0    0 -0.36961622990E+01 -0.36778465592E+02  0.95371130592E+02  0.10228377045E+03  0.00000000000E+00 0.  1.
         11    1    1    2    0    0  0.13278641168E+02  0.38352412555E+02  0.17681574846E+02  0.44270395854E+02  0.00000000000E+00 0. -1.
</event>
<event>
 7    1  0.2384639E-009  0.2517974E+03  0.7561462E-02  0.1112174E+00
         -1   -1    0    0    0  501 -0.00000000000E+00  0.00000000000E+00  0.64063677084E+02  0.64063677084E+02  0.00000000000E+00 0.  1.
          1   -1    0    0  501    0  0.00000000000E+00 -0.00000000000E+00 -0.11968990706E+04  0.11968990706E+04  0.00000000000E+00 0. -1.
         25    2    1    2    0    0 -0.22562469474E+03 -0.10675806563E+03 -0.47385174246E+03  0.54998774330E+03  0.12508899430E+03 0.  0.
          5    1    3    3  502    0 -0.20868682006E+03 -0.85520690964E+02 -0.47115903878E+03  0.52237179257E+03  0.41800000000E+01 0. -1.
         -5    1    3    3    0  502 -0.16937874678E+02 -0.21237374668E+02 -0.26927036764E+01  0.27615950726E+02  0.41800000000E+01 0. -1.
        -11    1    1    2    0    0  0.12889943119E+03  0.49097797152E+02 -0.23691739135E+03  0.27414504805E+03  0.00000000000E+00 0.  1.
         11    1    1    2    0    0  0.96725263549E+02  0.57660268480E+02 -0.42206625975E+03  0.43682995638E+03  0.00000000000E+00 0. -1.
</event>
<event>
 7    1  0.2384639E-009  0.1009571E+03  0.7561462E-02  0.1278296E+00
         -1   -1    0    0    0  501 -0.00000000000E+00  0.00000000000E+00  0.18615773386E+03  0.18615773386E+03  0.00000000000E+00 0.  1.
          1   -1    0    0  501    0  0.00000000000E+00 -0.00000000000E+00 -0.14027685002E+03  0.14027685002E+03  0.00000000000E+00 0. -1.
         25    2    1    2    0    0  0.54945769850E+02  0.38082555666E+02 -0.75600672525E+02  0.16072531474E+03  0.12509135238E+03 0.  0.
          5    1    3    3  502    0  0.43752520328E+02 -0.18543665076E+02 -0.89309090236E+02  0.10125085949E+03  0.41800000000E+01 0. -1.
         -5    1    3    3    0  502  0.11193249522E+02  0.56626220742E+02  0.13708417711E+02  0.59474455243E+02  0.41800000000E+01 0. -1.
        -11    1    1    2    0    0 -0.25097111818E+02  0.19297392650E+02  0.86639697787E+02  0.92242569443E+02  0.00000000000E+00 0.  1.
         11    1    1    2    0    0 -0.29848658032E+02 -0.57379948316E+02  0.34841858581E+02  0.73466699697E+02  0.00000000000E+00 0. -1.
</event>
<event>
 7    1  0.2384639E-009  0.1069112E+03  0.7561462E-02  0.1266399E+00
         -2   -1    0    0    0  501 -0.00000000000E+00  0.00000000000E+00  0.61809647205E+02  0.61809647205E+02  0.00000000000E+00 0.  1.
          2   -1    0    0  501    0  0.00000000000E+00 -0.00000000000E+00 -0.30742547422E+03  0.30742547422E+03  0.00000000000E+00 0. -1.
         25    2    1    2    0    0 -0.65541480368E+02  0.12734218661E+02 -0.83203067321E+02  0.16440413740E+03  0.12509246184E+03 0.  0.
          5    1    3    3  502    0 -0.73763880368E+02  0.45340387279E+02 -0.14624008228E+02  0.87910151759E+02  0.41800000000E+01 0. -1.
         -5    1    3    3    0  502  0.82224000001E+01 -0.32606168618E+02 -0.68579059094E+02  0.76493985645E+02  0.41800000000E+01 0. -1.
        -11    1    1    2    0    0  0.26381313307E+02  0.26799622052E+02 -0.13979422406E+03  0.14476400973E+03  0.00000000000E+00 0. -1.
         11    1    1    2    0    0  0.39160167062E+02 -0.39533840713E+02 -0.22618535633E+02  0.60066974287E+02  0.00000000000E+00 0.  1.
</event>
<event>
 7    1  0.2384639E-009  0.1280192E+03  0.7561462E-02  0.1230425E+00
          2   -1    0    0  501    0  0.00000000000E+00  0.00000000000E+00  0.47602065420E+03  0.47602065420E+03  0.00000000000E+00 0. -1.
         -2   -1    0    0    0  501 -0.00000000000E+00 -0.00000000000E+00 -0.49266158033E+02  0.49266158033E+02  0.00000000000E+00 0.  1.
         25    2    1    2    0    0 -0.67300024217E+02  0.24592654956E+01  0.36943498250E+03  0.39580340151E+03  0.12507112021E+03 0.  0.
          5    1    3    3  502    0 -0.10468260919E+02  0.59921797667E+02  0.16778144102E+03  0.17851691985E+03  0.41800000000E+01 0. -1.
         -5    1    3    3    0  502 -0.56831763299E+02 -0.57462532171E+02  0.20165354148E+03  0.21728648167E+03  0.41800000000E+01 0. -1.
        -11    1    1    2    0    0  0.17716838969E+02 -0.45280732303E+02  0.36301968709E+02  0.60680013457E+02  0.00000000000E+00 0.  1.
         11    1    1    2    0    0  0.49583185248E+02  0.42821466807E+02  0.21017544961E+02  0.68803397264E+02  0.00000000000E+00 0. -1.
</event>
<event>
 7    1  0.2384639E-009  0.9392519E+02  0.7561462E-02  0.1293615E+00
         -1   -1    0    0    0  501 -0.00000000000E+00  0.00000000000E+00  0.46164686142E+02  0.46164686142E+02  0.00000000000E+00 0.  1.
          1   -1    0    0  501    0  0.00000000000E+00 -0.00000000000E+00 -0.30018399404E+03  0.30018399404E+03  0.00000000000E+00 0. -1.
         25    2    1    2    0    0  0.11842858668E+02  0.40305945015E+02 -0.12102845539E+03  0.17905356975E+03  0.12508985299E+03 0.  0.
          5    1    3    3  502    0  0.35787174683E+02  0.55104539545E+02 -0.13282604925E+03  0.14824798113E+03  0.41800000000E+01 0. -1.
         -5    1    3    3    0  502 -0.23944316015E+02 -0.14798594530E+02  0.11797593854E+02  0.30805588620E+02  0.41800000000E+01 0. -1.
        -11    1    1    2    0    0  0.34766353718E+02 -0.50886369015E+01 -0.84002917403E+02  0.91055388136E+02  0.00000000000E+00 0. -1.
         11    1    1    2    0    0 -0.46609212386E+02 -0.35217308114E+02 -0.48987935098E+02  0.76239722292E+02  0.00000000000E+00 0.  1.
</event>
<event>
 7    1  0.2384639E-009  0.8513140E+02  0.7561462E-02  0.1315089E+00
         -3   -1    0    0    0  501 -0.00000000000E+00  0.00000000000E+00  0.26391897782E+03  0.26391897782E+03  0.00000000000E+00 0.  1.
          3   -1    0    0  501    0  0.00000000000E+00 -0.00000000000E+00 -0.49583203200E+02  0.49583203200E+02  0.00000000000E+00 0. -1.
         25    2    1    2    0    0 -0.16543921212E+00 -0.31631072428E+02  0.91360789904E+02  0.15809622316E+03  0.12508824778E+03 0.  0.
          5    1    3    3  502    0 -0.36719428142E+02 -0.67697637899E+02  0.60630074809E+02  0.98105886427E+02  0.41800000000E+01 0.  1.
         -5    1    3    3    0  502  0.36553988930E+02  0.36066565471E+02  0.30730715095E+02  0.59990336737E+02  0.41800000000E+01 0.  1.
        -11    1    1    2    0    0  0.13431110355E+02  0.19212453671E+02  0.13272831485E+03  0.13478248649E+03  0.00000000000E+00 0.  1.
         11    1    1    2    0    0 -0.13265671143E+02  0.12418618757E+02 -0.97533301300E+01  0.20623471370E+02  0.00000000000E+00 0. -1.
</event>
<event>
 7    1  0.2384639E-009  0.1160791E+03  0.7561462E-02  0.1249709E+00
         -1   -1    0    0    0  501 -0.00000000000E+00  0.00000000000E+00  0.30124592555E+02  0.30124592555E+02  0.00000000000E+00 0.  1.
          1   -1    0    0  501    0  0.00000000000E+00 -0.00000000000E+00 -0.69107900849E+03  0.69107900849E+03  0.00000000000E+00 0. -1.
         25    2    1    2    0    0  0.42797970471E+02 -0.77904185937E+02 -0.34049628867E+03  0.37347975958E+03  0.12509468317E+03 0.  0.
          5    1    3    3  502    0  0.79964331779E+02 -0.44614584298E+02 -0.14395790291E+03  0.17066372110E+03  0.41800000000E+01 0. -1.
         -5    1    3    3    0  502 -0.37166361308E+02 -0.33289601639E+02 -0.19653838575E+03  0.20281603848E+03  0.41800000000E+01 0. -1.
        -11    1    1    2    0    0 -0.24629030944E+02  0.27866978716E+02 -0.19306560866E+02  0.41903471938E+02  0.00000000000E+00 0.  1.
         11    1    1    2    0    0 -0.18168939526E+02  0.50037207222E+02 -0.30115156640E+03  0.30582036952E+03  0.00000000000E+00 0. -1.
</event>
<event>
 7    1  0.2710291E-009  0.1455749E+03  0.7561462E-02  0.1206018E+00
         -2   -1    0    0    0  501 -0.00000000000E+00  0.00000000000E+00  0.26362640343E+02  0.26362640343E+02  0.00000000000E+00 0.  1.
          2   -1    0    0  501    0  0.00000000000E+00 -0.00000000000E+00 -0.91463836293E+03  0.91463836293E+03  0.00000000000E+00 0. -1.
         25    2    1    2    0    0 -0.86392719812E+02 -0.68490467594E+02 -0.49685767375E+03  0.52408874182E+03  0.12508723016E+03 0.  0.
          5    1    3    3  502    0 -0.21877631251E+02  0.35526717153E+02 -0.91846727027E+02  0.10096569737E+03  0.41800000000E+01 0.  1.
         -5    1    3    3    0  502 -0.64515088561E+02 -0.10401718475E+03 -0.40501094672E+03  0.42312304444E+03  0.41800000000E+01 0.  1.
        -11    1    1    2    0    0  0.25924531739E+02  0.60414343416E+02 -0.10358917572E+03  0.12268941097E+03  0.00000000000E+00 0.  1.
         11    1    1    2    0    0  0.60468188073E+02  0.80761241781E+01 -0.28782887311E+03  0.29422285049E+03  0.00000000000E+00 0. -1.
</event>
<event>
 7    1  0.2742094E-009  0.1098360E+03  0.7561462E-02  0.1260874E+00
          2   -1    0    0  501    0  0.00000000000E+00  0.00000000000E+00  0.22993256424E+04  0.22993256424E+04  0.00000000000E+00 0. -1.
         -2   -1    0    0    0  501 -0.00000000000E+00 -0.00000000000E+00 -0.23209876437E+02  0.23209876437E+02  0.00000000000E+00 0.  1.
         25    2    1    2    0    0  0.18746925014E+02 -0.88156982952E+02  0.20941187591E+04  0.20997867590E+04  0.12509178620E+03 0.  0.
          5    1    3    3  502    0 -0.31657650250E+02 -0.26091431867E+02  0.21242402885E+03  0.21638948696E+03  0.41800000000E+01 0. -1.
         -5    1    3    3    0  502  0.50404575265E+02 -0.62065551085E+02  0.18816947303E+04  0.18833972720E+04  0.41800000000E+01 0. -1.
        -11    1    1    2    0    0 -0.25973335709E+02  0.29639252418E+02  0.96200604984E+01  0.40566550454E+02  0.00000000000E+00 0.  1.
         11    1    1    2    0    0  0.72264106943E+01  0.58517730533E+02  0.17237694633E+03  0.18218220940E+03  0.00000000000E+00 0. -1.
</event>
<event>
 7    1  0.2384639E-009  0.1629382E+03  0.7561462E-02  0.1185419E+00
         -2   -1    0    0    0  501 -0.00000000000E+00  0.00000000000E+00  0.78954706663E+02  0.78954706663E+02  0.00000000000E+00 0.  1.
          2   -1    0    0  501    0  0.00000000000E+00 -0.00000000000E+00 -0.41289055093E+03  0.41289055093E+03  0.00000000000E+00 0. -1.
         25    2    1    2    0    0 -0.14195687360E+03  0.23908889383E+02 -0.17428730525E+03  0.25835397465E+03  0.12508925810E+03 0.  0.
          5    1    3    3  502    0 -0.13651514336E+03  0.50227498537E+02 -0.93156204677E+02  0.17278523330E+03  0.41800000000E+01 0. -1.
         -5    1    3    3    0  502 -0.54417302389E+01 -0.26318609154E+02 -0.81131100573E+02  0.85568741349E+02  0.41800000000E+01 0. -1.
        -11    1    1    2    0    0  0.37225080052E+02 -0.30632607168E+02 -0.10416526703E+03  0.11478007694E+03  0.00000000000E+00 0.  1.
         11    1    1    2    0    0  0.10473179355E+03  0.67237177853E+01 -0.55483271992E+02  0.11871120601E+03  0.00000000000E+00 0. -1.
</event>
<event>
 7    1  0.2405876E-009  0.3697712E+03  0.7561462E-02  0.1054780E+00
          3   -1    0    0  501    0  0.00000000000E+00  0.00000000000E+00  0.43333693638E+03  0.43333693638E+03  0.00000000000E+00 0. -1.
         -3   -1    0    0    0  501 -0.00000000000E+00 -0.00000000000E+00 -0.42898080393E+03  0.42898080393E+03  0.00000000000E+00 0.  1.
         25    2    1    2    0    0 -0.35964865238E+03  0.50179217556E+02 -0.20282500748E+03  0.43434036533E+03  0.12509381383E+03 0.  0.
          5    1    3    3  502    0 -0.26607684212E+02 -0.20510753677E+02 -0.51756156436E+02  0.61845226207E+02  0.41800000000E+01 0.  1.
         -5    1    3    3    0  502 -0.33304096817E+03  0.70689971234E+02 -0.15106885105E+03  0.37249513912E+03  0.41800000000E+01 0.  1.
        -11    1    1    2    0    0  0.16445970845E+03 -0.34448340309E+01  0.14095733858E+03  0.21662833121E+03  0.00000000000E+00 0. -1.
         11    1    1    2    0    0  0.19518894393E+03 -0.46734383525E+02  0.66223801353E+02  0.21134904377E+03  0.00000000000E+00 0.  1.
</event>
<event>
 7    1  0.2384639E-009  0.8378286E+02  0.7561462E-02  0.1318647E+00
          1   -1    0    0  501    0  0.00000000000E+00  0.00000000000E+00  0.50738710907E+02  0.50738710907E+02  0.00000000000E+00 0. -1.
         -1   -1    0    0    0  501 -0.00000000000E+00 -0.00000000000E+00 -0.33649568623E+03  0.33649568623E+03  0.00000000000E+00 0.  1.
         25    2    1    2    0    0  0.60602333424E+02  0.61629336829E+01 -0.21853345702E+03  0.25906417220E+03  0.12508696538E+03 0.  0.
          5    1    3    3  502    0 -0.53493114091E+01 -0.16833648858E+02 -0.17651597914E+03  0.17744675302E+03  0.41800000000E+01 0.  1.
         -5    1    3    3    0  502  0.65951644833E+02  0.22996582541E+02 -0.42017477884E+02  0.81617419173E+02  0.41800000000E+01 0.  1.
        -11    1    1    2    0    0 -0.33860510678E+02  0.22178640799E+02  0.99807003854E+01  0.41689814958E+02  0.00000000000E+00 0. -1.
         11    1    1    2    0    0 -0.26741822746E+02 -0.28341574482E+02 -0.77204218685E+02  0.86480409982E+02  0.00000000000E+00 0.  1.
</event>
<event>
 7    1  0.2384639E-009  0.1404175E+03  0.7561462E-02  0.1212768E+00
         -1   -1    0    0    0  501 -0.00000000000E+00  0.00000000000E+00  0.37256216109E+03  0.37256216109E+03  0.00000000000E+00 0.  1.
          1   -1    0    0  501    0  0.00000000000E+00 -0.00000000000E+00 -0.62408242516E+02  0.62408242516E+02  0.00000000000E+00 0. -1.
         25    2    1    2    0    0 -0.75348720584E+02  0.53926550597E+02  0.92164113296E+02  0.18090569902E+03  0.12508855106E+03 0.  0.
          5    1    3    3  502    0 -0.15441892292E+02 -0.39109763071E+02  0.41164795133E+02  0.58991849975E+02  0.41800000000E+01 0. -1.
         -5    1    3    3    0  502 -0.59906828292E+02  0.93036313669E+02  0.50999318162E+02  0.12191384905E+03  0.41800000000E+01 0. -1.
        -11    1    1    2    0    0 -0.16765466161E+02 -0.27166228521E+02  0.78826430885E+02  0.85045229342E+02  0.00000000000E+00 0.  1.
         11    1    1    2    0    0  0.92114186746E+02 -0.26760322076E+02  0.13916337439E+03  0.16901947524E+03  0.00000000000E+00 0. -1.
</event>
<event>
 7    1  0.2384639E-009  0.1171576E+03  0.7561462E-02  0.1247861E+00
         -2   -1    0    0    0  501 -0.00000000000E+00  0.00000000000E+00  0.38431158590E+02  0.38431158590E+02  0.00000000000E+00 0. -1.
          2   -1    0    0  501    0  0.00000000000E+00 -0.00000000000E+00 -0.47788998447E+03  0.47788998447E+03  0.00000000000E+00 0.  1.
         25    2    1    2    0    0  0.74401001196E+02  0.22792019183E+02 -0.30662685851E+03  0.34018017743E+03  0.12509011808E+03 0.  0.
          5    1    3    3  502    0  0.10320138762E+03  0.54449620952E+01 -0.16645286801E+03  0.19596990505E+03  0.41800000000E+01 0.  1.
         -5    1    3    3    0  502 -0.28800386419E+02  0.17347057088E+02 -0.14017399050E+03  0.14421027238E+03  0.41800000000E+01 0.  1.
        -11    1    1    2    0    0 -0.60451215016E+02  0.10089593370E+02 -0.12551804982E+03  0.13968153107E+03  0.00000000000E+00 0.  1.
         11    1    1    2    0    0 -0.13949786180E+02 -0.32881612553E+02 -0.73139175557E+01  0.36459434562E+02  0.00000000000E+00 0. -1.
</event>
<event>
 7    1  0.2384639E-009  0.1365281E+03  0.7561462E-02  0.1218079E+00
         -1   -1    0    0    0  501 -0.00000000000E+00  0.00000000000E+00  0.10250098216E+03  0.10250098216E+03  0.00000000000E+00 0.  1.
          1   -1    0    0  501    0  0.00000000000E+00 -0.00000000000E+00 -0.24236694788E+03  0.24236694788E+03  0.00000000000E+00 0. -1.
         25    2    1    2    0    0 -0.11216912171E+03 -0.21515008841E+02 -0.72372224128E+02  0.18420119146E+03  0.12509009808E+03 0.  0.
          5    1    3    3  502    0 -0.11449565613E+02  0.36801823505E+02 -0.53735136449E+02  0.66260124171E+02  0.41800000000E+01 0.  1.
         -5    1    3    3    0  502 -0.10071955610E+03 -0.58316832346E+02 -0.18637087679E+02  0.11794106729E+03  0.41800000000E+01 0.  1.
        -11    1    1    2    0    0  0.78305374830E+02  0.11507119851E+01 -0.86613551384E+02  0.11676884494E+03  0.00000000000E+00 0. -1.
         11    1    1    2    0    0  0.33863746883E+02  0.20364296856E+02  0.19119809791E+02  0.43897893638E+02  0.00000000000E+00 0.  1.
</event>
<event>
 7    1  0.2384639E-009  0.1489153E+03  0.7561462E-02  0.1201812E+00
         -1   -1    0    0    0  501 -0.00000000000E+00  0.00000000000E+00  0.17651754341E+03  0.17651754341E+03  0.00000000000E+00 0.  1.
          1   -1    0    0  501    0  0.00000000000E+00 -0.00000000000E+00 -0.17688305896E+03  0.17688305896E+03  0.00000000000E+00 0. -1.
         25    2    1    2    0    0  0.12046889701E+03  0.61441654880E+02  0.32207118104E+02  0.18700985004E+03  0.12509018128E+03 0.  0.
          5    1    3    3  502    0  0.28312766623E+02  0.19658999150E+02 -0.47005209148E+02  0.58438438450E+02  0.41800000000E+01 0. -1.
         -5    1    3    3    0  502  0.92156130392E+02  0.41782655730E+02  0.79212327252E+02  0.12857141159E+03  0.41800000000E+01 0. -1.
        -11    1    1    2    0    0 -0.78228048853E+02  0.99773630375E+01 -0.52661056749E+01  0.79037378939E+02  0.00000000000E+00 0. -1.
         11    1    1    2    0    0 -0.42240848162E+02 -0.71419017918E+02 -0.27306527975E+02  0.87353373397E+02  0.00000000000E+00 0.  1.
</event>
<event>
 7    1  0.2384639E-009  0.1571440E+03  0.7561462E-02  0.1191959E+00
          1   -1    0    0  501    0  0.00000000000E+00  0.00000000000E+00  0.29141753479E+04  0.29141753479E+04  0.00000000000E+00 0. -1.
         -1   -1    0    0    0  501 -0.00000000000E+00 -0.00000000000E+00 -0.14207378849E+02  0.14207378849E+02  0.00000000000E+00 0.  1.
         25    2    1    2    0    0  0.49392477462E+02 -0.10976406522E+03  0.23986146761E+04  0.24048881516E+04  0.12508752988E+03 0.  0.
          5    1    3    3  502    0 -0.32790160278E+02  0.99754078003E+00  0.32184844576E+03  0.32354301745E+03  0.41800000000E+01 0. -1.
         -5    1    3    3    0  502  0.82182637741E+02 -0.11076160600E+03  0.20767662304E+04  0.20813451341E+04  0.41800000000E+01 0. -1.
        -11    1    1    2    0    0 -0.19300127845E+02  0.11143561723E+03  0.44959137147E+03  0.46359766287E+03  0.00000000000E+00 0. -1.
         11    1    1    2    0    0 -0.30092349617E+02 -0.16715520050E+01  0.51761921414E+02  0.59896912275E+02  0.00000000000E+00 0.  1.
</event>
<event>
 7    1  0.2384639E-009  0.4684968E+02  0.7561462E-02  0.1463114E+00
         -2   -1    0    0    0  501 -0.00000000000E+00  0.00000000000E+00  0.32422084743E+02  0.32422084743E+02  0.00000000000E+00 0. -1.
          2   -1    0    0  501    0  0.00000000000E+00 -0.00000000000E+00 -0.35583234659E+03  0.35583234659E+03  0.00000000000E+00 0.  1.
         25    2    1    2    0    0 -0.26461428044E+02 -0.18879258893E+02 -0.21687130897E+03  0.25246243574E+03  0.12508990053E+03 0.  0.
          5    1    3    3  502    0 -0.11371601494E+02 -0.26945985989E+02  0.49385531754E+01  0.29954318369E+02  0.41800000000E+01 0.  1.
         -5    1    3    3    0  502 -0.15089826550E+02  0.80667270969E+01 -0.22180986214E+03  0.22250811737E+03  0.41800000000E+01 0.  1.
        -11    1    1    2    0    0  0.80705808756E+01  0.25691370567E+02  0.53726982504E+00  0.26934540206E+02  0.00000000000E+00 0. -1.
         11    1    1    2    0    0  0.18390847168E+02 -0.68121116742E+01 -0.10707622270E+03  0.10885745538E+03  0.00000000000E+00 0.  1.
</event>
<event>
 7    1  0.2384639E-009  0.1201761E+03  0.7561462E-02  0.1242807E+00
         -2   -1    0    0    0  501 -0.00000000000E+00  0.00000000000E+00  0.67090247493E+02  0.67090247493E+02  0.00000000000E+00 0.  1.
          2   -1    0    0  501    0  0.00000000000E+00 -0.00000000000E+00 -0.37942375309E+03  0.37942375309E+03  0.00000000000E+00 0. -1.
         25    2    1    2    0    0 -0.58071620387E+02 -0.12680985019E+02 -0.35017919791E+02  0.14284791612E+03  0.12508457922E+03 0.  0.
          5    1    3    3  502    0  0.13732327045E+01  0.38114953448E+02 -0.50101459716E+02  0.63105182910E+02  0.41800000000E+01 0. -1.
         -5    1    3    3    0  502 -0.59444853091E+02 -0.50795938467E+02  0.15083539925E+02  0.79742733214E+02  0.41800000000E+01 0. -1.
        -11    1    1    2    0    0  0.30060410197E+02 -0.48120017202E+02 -0.12295386418E+03  0.13541350388E+03  0.00000000000E+00 0.  1.
         11    1    1    2    0    0  0.28011210190E+02  0.60801002222E+02 -0.15436172163E+03  0.16825258058E+03  0.00000000000E+00 0. -1.
</event>
<event>
 7    1  0.2384639E-009  0.1580574E+03  0.7561462E-02  0.1190908E+00
          1   -1    0    0  501    0  0.00000000000E+00  0.00000000000E+00  0.21692530599E+03  0.21692530599E+03  0.00000000000E+00 0. -1.
         -1   -1    0    0    0  501 -0.00000000000E+00 -0.00000000000E+00 -0.15627807198E+03  0.15627807198E+03  0.00000000000E+00 0.  1.
         25    2    1    2    0    0  0.13721002110E+03  0.28709413853E+02  0.73965570600E+02  0.20191349596E+03  0.12508930362E+03 0.  0.
          5    1    3    3  502    0  0.86899505868E+01  0.29193051274E+02  0.66317380161E+02  0.73097310452E+02  0.41800000000E+01 0. -1.
         -5    1    3    3    0  502  0.12852007052E+03 -0.48363742097E+00  0.76481904390E+01  0.12881618550E+03  0.41800000000E+01 0. -1.
        -11    1    1    2    0    0 -0.67557718794E+02 -0.49887146808E+02  0.26817297066E+02  0.88158608243E+02  0.00000000000E+00 0. -1.
         11    1    1    2    0    0 -0.69652302309E+02  0.21177732955E+02 -0.40135633653E+02  0.83131273771E+02  0.00000000000E+00 0.  1.
</event>
<event>
 7    1  0.2384639E-009  0.1759815E+03  0.7561462E-02  0.1171750E+00
          2   -1    0    0  501    0  0.00000000000E+00  0.00000000000E+00  0.68599803837E+03  0.68599803837E+03  0.00000000000E+00 0. -1.
         -2   -1    0    0    0  501 -0.00000000000E+00 -0.00000000000E+00 -0.46224793577E+02  0.46224793577E+02  0.00000000000E+00 0.  1.
         25    2    1    2    0    0  0.13437371762E+03  0.40175309865E+02  0.37285609482E+03  0.41754006358E+03  0.12509071003E+03 0.  0.
          5    1    3    3  502    0  0.12416849655E+03 -0.18885815535E+02  0.28046522507E+03  0.30733158711E+03  0.41800000000E+01 0. -1.
         -5    1    3    3    0  502  0.10205221067E+02  0.59061125400E+02  0.92390869750E+02  0.11020847646E+03  0.41800000000E+01 0. -1.
        -11    1    1    2    0    0 -0.63319024252E+02  0.26626260032E+02  0.98930962608E+02  0.12043916273E+03  0.00000000000E+00 0. -1.
         11    1    1    2    0    0 -0.71054693363E+02 -0.66801569897E+02  0.16798618736E+03  0.19424360565E+03  0.00000000000E+00 0.  1.
</event>
<event>
 7    1  0.2384639E-009  0.1026602E+03  0.7561462E-02  0.1274799E+00
          3   -1    0    0  501    0  0.00000000000E+00  0.00000000000E+00  0.24850402728E+03  0.24850402728E+03  0.00000000000E+00 0. -1.
         -3   -1    0    0    0  501 -0.00000000000E+00 -0.00000000000E+00 -0.60253624780E+02  0.60253624780E+02  0.00000000000E+00 0.  1.
         25    2    1    2    0    0  0.33329231165E+02  0.40659885577E+02  0.12876396257E+03  0.18705792090E+03  0.12508574567E+03 0.  0.
          5    1    3    3  502    0 -0.38011463088E+02 -0.40618164861E+01  0.82198628247E+02  0.90749416334E+02  0.41800000000E+01 0. -1.
         -5    1    3    3    0  502  0.71340694252E+02  0.44721702064E+02  0.46565334326E+02  0.96308504571E+02  0.41800000000E+01 0. -1.
        -11    1    1    2    0    0 -0.47168896529E+02 -0.90147370922E+01 -0.52670592760E+01  0.48310580601E+02  0.00000000000E+00 0.  1.
         11    1    1    2    0    0  0.13839665364E+02 -0.31645148485E+02  0.64753499200E+02  0.73389150551E+02  0.00000000000E+00 0. -1.
</event>
<event>
 7    1  0.2892627E-009  0.1168957E+03  0.7561462E-02  0.1248308E+00
          1   -1    0    0  501    0  0.00000000000E+00  0.00000000000E+00  0.44598292459E+03  0.44598292459E+03  0.00000000000E+00 0. -1.
         -1   -1    0    0    0  501 -0.00000000000E+00 -0.00000000000E+00 -0.51965798162E+02  0.51965798162E+02  0.00000000000E+00 0.  1.
         25    2    1    2    0    0 -0.85716617768E+02 -0.20143885991E+02  0.31082135095E+03  0.34642575619E+03  0.12509107738E+03 0.  0.
          5    1    3    3  502    0  0.66641348215E+01 -0.37380649702E+02  0.25325868300E+02  0.45832255783E+02  0.41800000000E+01 0. -1.
         -5    1    3    3    0  502 -0.92380752589E+02  0.17236763711E+02  0.28549548265E+03  0.30059350040E+03  0.41800000000E+01 0. -1.
        -11    1    1    2    0    0  0.27507754258E+02 -0.17128401897E+02 -0.11412433932E+02  0.34355528582E+02  0.00000000000E+00 0.  1.
         11    1    1    2    0    0  0.58208863509E+02  0.37272287888E+02  0.94608209411E+02  0.11716743798E+03  0.00000000000E+00 0. -1.
</event>
<event>
 7    1  0.2384639E-009  0.1380038E+03  0.7561462E-02  0.1216041E+00
         -2   -1    0    0    0  501 -0.00000000000E+00  0.00000000000E+00  0.48869241552E+02  0.48869241552E+02  0.00000000000E+00 0.  1.
          2   -1    0    0  501    0  0.00000000000E+00 -0.00000000000E+00 -0.41571960551E+03  0.41571960551E+03  0.00000000000E+00 0. -1.
         25    2    1    2    0    0  0.89863847507E+02  0.12138029009E+02 -0.21399564705E+03  0.26394063280E+03  0.12509067850E+03 0.  0.
          5    1    3    3  502    0  0.11157067836E+03  0.33816322650E+02 -0.13129490879E+03  0.17563423762E+03  0.41800000000E+01 0.  1.
         -5    1    3    3    0  502 -0.21706830857E+02 -0.21678293641E+02 -0.82700738259E+02  0.88306395180E+02  0.41800000000E+01 0.  1.
        -11    1    1    2    0    0 -0.89102738928E+02  0.23971449590E+02 -0.12316164154E+03  0.15389190501E+03  0.00000000000E+00 0. -1.
         11    1    1    2    0    0 -0.76110857919E+00 -0.36109478598E+02 -0.29693075370E+02  0.46756309262E+02  0.00000000000E+00 0.  1.
</event>
<event>
 7    1  0.2384639E-009  0.1040295E+03  0.7561462E-02  0.1272044E+00
          3   -1    0    0  501    0  0.00000000000E+00  0.00000000000E+00  0.17951719238E+03  0.17951719238E+03  0.00000000000E+00 0. -1.
         -3   -1    0    0    0  501 -0.00000000000E+00 -0.00000000000E+00 -0.83805971282E+02  0.83805971282E+02  0.00000000000E+00 0.  1.
         25    2    1    2    0    0  0.44576538460E+02  0.30491751659E+02  0.87155748972E+02  0.16173821368E+03  0.12508521290E+03 0.  0.
          5    1    3    3  502    0  0.85473285882E+02  0.38757865158E+02  0.65678122714E+02  0.11462522809E+03  0.41800000000E+01 0.  1.
         -5    1    3    3    0  502 -0.40896747422E+02 -0.82661134985E+01  0.21477626258E+02  0.47112985596E+02  0.41800000000E+01 0.  1.
        -11    1    1    2    0    0 -0.34892230802E+02  0.51310990385E+01  0.39831835285E+02  0.53201231657E+02  0.00000000000E+00 0. -1.
         11    1    1    2    0    0 -0.96843076576E+01 -0.35622850698E+02 -0.31276363156E+02  0.48383718324E+02  0.00000000000E+00 0.  1.
</event>
<event>
 7    1  0.2384639E-009  0.9890423E+02  0.7561462E-02  0.1282617E+00
         -2   -1    0    0    0  501 -0.00000000000E+00  0.00000000000E+00  0.14149615804E+02  0.14149615804E+02  0.00000000000E+00 0.  1.
          2   -1    0    0  501    0  0.00000000000E+00 -0.00000000000E+00 -0.98750851954E+03  0.98750851954E+03  0.00000000000E+00 0. -1.
         25    2    1    2    0    0  0.11825327812E+02  0.67460456297E+01 -0.70100359359E+03  0.71220696323E+03  0.12508945892E+03 0.  0.
          5    1    3    3  502    0 -0.37603348681E+01 -0.45414537580E+02 -0.54513040071E+03  0.54704775525E+03  0.41800000000E+01 0. -1.
         -5    1    3    3    0  502  0.15585662680E+02  0.52160583210E+02 -0.15587319287E+03  0.16515920797E+03  0.41800000000E+01 0. -1.
        -11    1    1    2    0    0  0.54353904862E+01 -0.50302746357E+02 -0.15672251729E+03  0.16468714942E+03  0.00000000000E+00 0. -1.
         11    1    1    2    0    0 -0.17260718298E+02  0.43556700727E+02 -0.11563279286E+03  0.12476402270E+03  0.00000000000E+00 0.  1.
</event>
<event>
 7    1  0.2384639E-009  0.1115228E+03  0.7561462E-02  0.1257776E+00
         -1   -1    0    0    0  501 -0.00000000000E+00  0.00000000000E+00  0.15431789704E+02  0.15431789704E+02  0.00000000000E+00 0.  1.
          1   -1    0    0  501    0  0.00000000000E+00 -0.00000000000E+00 -0.93884277702E+03  0.93884277702E+03  0.00000000000E+00 0. -1.
         25    2    1    2    0    0  0.25676118147E+01 -0.46127509560E+02 -0.42078732909E+03  0.44141057491E+03  0.12508788730E+03 0.  0.
          5    1    3    3  502    0  0.15380671100E+02 -0.81600442187E+02 -0.36210761471E+03  0.37153007178E+03  0.41800000000E+01 0. -1.
         -5    1    3    3    0  502 -0.12813059285E+02  0.35472932627E+02 -0.58679714388E+02  0.69880503133E+02  0.41800000000E+01 0. -1.
        -11    1    1    2    0    0 -0.35150763523E+02 -0.10446252046E+02 -0.18556312047E+03  0.18915171698E+03  0.00000000000E+00 0.  1.
         11    1    1    2    0    0  0.32583151709E+02  0.56573761605E+02 -0.31706053775E+03  0.32371227483E+03  0.00000000000E+00 0. -1.
</event>
<event>
 7    1  0.2384639E-009  0.2155240E+03  0.7561462E-02  0.1137265E+00
          2   -1    0    0  501    0  0.00000000000E+00  0.00000000000E+00  0.76556736709E+02  0.76556736709E+02  0.00000000000E+00 0. -1.
         -2   -1    0    0    0  501 -0.00000000000E+00 -0.00000000000E+00 -0.78842219321E+03  0.78842219321E+03  0.00000000000E+00 0.  1.
         25    2    1    2    0    0  0.19503712905E+03  0.54240153342E+02 -0.21637276564E+03  0.32163096312E+03  0.12509127380E+03 0.  0.
          5    1    3    3  502    0  0.15980512214E+03 -0.34987581613E+01 -0.10510100256E+03  0.19134683564E+03  0.41800000000E+01 0. -1.
         -5    1    3    3    0  502  0.35232006915E+02  0.57738911503E+02 -0.11127176309E+03  0.13028412748E+03  0.41800000000E+01 0. -1.
        -11    1    1    2    0    0 -0.11238050061E+03 -0.41241949030E+02 -0.39414697571E+03  0.41192488846E+03  0.00000000000E+00 0.  1.
         11    1    1    2    0    0 -0.82656628442E+02 -0.12998204312E+02 -0.10134571515E+03  0.13142307834E+03  0.00000000000E+00 0. -1.
</event>
<event>
 7    1  0.3252663E-009  0.7445315E+02  0.7561462E-02  0.1345573E+00
          2   -1    0    0  501    0  0.00000000000E+00  0.00000000000E+00  0.21199429901E+03  0.21199429901E+03  0.00000000000E+00 0. -1.
         -2   -1    0    0    0  501 -0.00000000000E+00 -0.00000000000E+00 -0.77644245485E+02  0.77644245485E+02  0.00000000000E+00 0.  1.
         25    2    1    2    0    0 -0.22400361701E+02  0.60867618328E+02  0.99264254089E+02  0.17235407839E+03  0.12508354421E+03 0.  0.
          5    1    3    3  502    0 -0.21367640515E+02  0.21611622339E+02  0.12266990945E+03  0.12644768628E+03  0.41800000000E+01 0.  1.
         -5    1    3    3    0  502 -0.10327211862E+01  0.39255995989E+02 -0.23405655359E+02  0.45906392114E+02  0.41800000000E+01 0.  1.
        -11    1    1    2    0    0 -0.10621808069E+02 -0.35617971627E+02  0.58698802795E+02  0.69476702276E+02  0.00000000000E+00 0. -1.
         11    1    1    2    0    0  0.33022169770E+02 -0.25249646701E+02 -0.23613003358E+02  0.47807763830E+02  0.00000000000E+00 0.  1.
</event>
<event>
 7    1  0.2384639E-009  0.1230864E+03  0.7561462E-02  0.1238091E+00
         -2   -1    0    0    0  501 -0.00000000000E+00  0.00000000000E+00  0.35402447534E+02  0.35402447534E+02  0.00000000000E+00 0.  1.
          2   -1    0    0  501    0  0.00000000000E+00 -0.00000000000E+00 -0.62165196605E+03  0.62165196605E+03  0.00000000000E+00 0. -1.
         25    2    1    2    0    0  0.62958161910E+02  0.28986920639E+02 -0.48297022759E+03  0.50369846238E+03  0.12509168056E+03 0.  0.
          5    1    3    3  502    0  0.95891198393E+02  0.47829927432E+01 -0.26493297551E+03  0.28182432979E+03  0.41800000000E+01 0.  1.
         -5    1    3    3    0  502 -0.32933036483E+02  0.24203927896E+02 -0.21803725208E+03  0.22187413259E+03  0.41800000000E+01 0.  1.
        -11    1    1    2    0    0 -0.69982712737E+01 -0.49044756892E+02 -0.26282685059E+02  0.56081579091E+02  0.00000000000E+00 0.  1.
         11    1    1    2    0    0 -0.55959890636E+02  0.20057836253E+02 -0.76996605863E+02  0.97274372111E+02  0.00000000000E+00 0. -1.
</event>
<event>
 7    1  0.2384639E-009  0.1373780E+03  0.7561462E-02  0.1216901E+00
          2   -1    0    0  501    0  0.00000000000E+00  0.00000000000E+00  0.48963672621E+03  0.48963672621E+03  0.00000000000E+00 0. -1.
         -2   -1    0    0    0  501 -0.00000000000E+00 -0.00000000000E+00 -0.10331003588E+03  0.10331003588E+03  0.00000000000E+00 0.  1.
         25    2    1    2    0    0  0.37635255776E+02 -0.10547645176E+03 -0.13002705546E+02  0.16839894097E+03  0.12508972226E+03 0.  0.
          5    1    3    3  502    0  0.40060486738E+02 -0.11793603556E+02  0.42230815580E+02  0.59538608206E+02  0.41800000000E+01 0.  1.
         -5    1    3    3    0  502 -0.24252309626E+01 -0.93682848205E+02 -0.55233521127E+02  0.10886033276E+03  0.41800000000E+01 0.  1.
        -11    1    1    2    0    0  0.26086857263E+02  0.38760666714E+02  0.85429130579E+02  0.97370682227E+02  0.00000000000E+00 0.  1.
         11    1    1    2    0    0 -0.63722113039E+02  0.66715785047E+02  0.31390026530E+03  0.32717713890E+03  0.00000000000E+00 0. -1.
</event>
<event>
 7    1  0.2384639E-009  0.1328574E+03  0.7561462E-02  0.1223276E+00
         -2   -1    0    0    0  501 -0.00000000000E+00  0.00000000000E+00  0.28251638143E+02  0.28251638143E+02  0.00000000000E+00 0.  1.
          2   -1    0    0  501    0  0.00000000000E+00 -0.00000000000E+00 -0.79442256240E+03  0.79442256240E+03  0.00000000000E+00 0. -1.
         25    2    1    2    0    0  0.17811070617E+02 -0.11420808021E+03 -0.54644092363E+03  0.57236922054E+03  0.12509245293E+03 0.  0.
          5    1    3    3  502    0  0.53613819749E+02 -0.40428796686E+02 -0.38926551705E+03  0.39503676339E+03  0.41800000000E+01 0.  1.
         -5    1    3    3    0  502 -0.35802749131E+02 -0.73779283527E+02 -0.15717540658E+03  0.17733245715E+03  0.41800000000E+01 0.  1.
        -11    1    1    2    0    0 -0.11298683048E+02  0.33542558057E+02 -0.41377316575E+02  0.54450397304E+02  0.00000000000E+00 0. -1.
         11    1    1    2    0    0 -0.65123875690E+01  0.80665522156E+02 -0.17835268405E+03  0.19585458270E+03  0.00000000000E+00 0.  1.
</event>
<event>
 7    1  0.2384639E-009  0.1752634E+03  0.7561462E-02  0.1172467E+00
         -1   -1    0    0    0  501 -0.00000000000E+00  0.00000000000E+00  0.61519218058E+02  0.61519218058E+02  0.00000000000E+00 0.  1.
          1   -1    0    0  501    0  0.00000000000E+00 -0.00000000000E+00 -0.54533820483E+03  0.54533820483E+03  0.00000000000E+00 0. -1.
         25    2    1    2    0    0 -0.63985842204E+02 -0.12941309433E+03 -0.21099274353E+03  0.28461770075E+03  0.12508941110E+03 0.  0.
          5    1    3    3  502    0 -0.64157552923E+02 -0.49249873064E+01 -0.92068344070E+02  0.11240328944E+03  0.41800000000E+01 0.  1.
         -5    1    3    3    0  502  0.17171071919E+00 -0.12448810702E+03 -0.11892439946E+03  0.17221441131E+03  0.41800000000E+01 0.  1.
        -11    1    1    2    0    0  0.50658335386E+02  0.25485494031E+02 -0.48381289022E+02  0.74542112108E+02  0.00000000000E+00 0.  1.
         11    1    1    2    0    0  0.13327506818E+02  0.10392760030E+03 -0.22444495422E+03  0.24769761003E+03  0.00000000000E+00 0. -1.
</event>
<event>
 7    1  0.2384639E-009  0.8078964E+02  0.7561462E-02  0.1326825E+00
          1   -1    0    0  501    0  0.00000000000E+00  0.00000000000E+00  0.10464293983E+03  0.10464293983E+03  0.00000000000E+00 0. -1.
         -1   -1    0    0    0  501 -0.00000000000E+00 -0.00000000000E+00 -0.14211561485E+03  0.14211561485E+03  0.00000000000E+00 0.  1.
         25    2    1    2    0    0  0.80494548832E+01  0.30165703499E+02  0.25574295668E+02  0.13143852486E+03  0.12508907957E+03 0.  0.
          5    1    3    3  502    0  0.63371696297E+02  0.83646545452E+01  0.31777871207E+02  0.71506956554E+02  0.41800000000E+01 0.  1.
         -5    1    3    3    0  502 -0.55322241414E+02  0.21801048954E+02 -0.62035755393E+01  0.59931568309E+02  0.41800000000E+01 0.  1.
        -11    1    1    2    0    0 -0.13831366478E+02 -0.10364806221E+02 -0.84092911211E+02  0.85850763669E+02  0.00000000000E+00 0.  1.
         11    1    1    2    0    0  0.57819115943E+01 -0.19800897278E+02  0.21045940524E+02  0.29469266147E+02  0.00000000000E+00 0. -1.
</event>
<event>
 7    1  0.2384639E-009  0.1512263E+03  0.7561462E-02  0.1198974E+00
          2   -1    0    0  501    0  0.00000000000E+00  0.00000000000E+00  0.45404114315E+02  0.45404114315E+02  0.00000000000E+00 0. -1.
         -2   -1    0    0    0  501 -0.00000000000E+00 -0.00000000000E+00 -0.63335730719E+03  0.63335730719E+03  0.00000000000E+00 0.  1.
         25    2    1    2    0    0  0.62430702465E+02 -0.11255456423E+03 -0.28159351372E+03  0.33392935548E+03  0.12509110658E+03 0.  0.
          5    1    3    3  502    0  0.23663402215E+02  0.47131346649E+01 -0.15534662451E+03  0.15726479704E+03  0.41800000000E+01 0.  1.
         -5    1    3    3    0  502  0.38767300251E+02 -0.11726769890E+03 -0.12624688921E+03  0.17666455844E+03  0.41800000000E+01 0.  1.
        -11    1    1    2    0    0 -0.40046053202E+02  0.43086849217E+00 -0.11662877842E+03  0.12331319467E+03  0.00000000000E+00 0.  1.
         11    1    1    2    0    0 -0.22384649263E+02  0.11212369574E+03 -0.18973090074E+03  0.22151887135E+03  0.00000000000E+00 0. -1.
</event>
<event>
 7    1  0.2384639E-009  0.1040374E+03  0.7561462E-02  0.1272028E+00
         -2   -1    0    0    0  501 -0.00000000000E+00  0.00000000000E+00  0.58709507843E+02  0.58709507843E+02  0.00000000000E+00 0.  1.
          2   -1    0    0  501    0  0.00000000000E+00 -0.00000000000E+00 -0.24883972822E+03  0.24883972822E+03  0.00000000000E+00 0. -1.
         25    2    1    2    0    0 -0.47598919191E+02 -0.71120258178E+01 -0.77748377259E+02  0.15494820703E+03  0.12509156117E+03 0.  0.
          5    1    3    3  502    0 -0.17516461454E+02 -0.50778254416E+02 -0.85638285298E+02  0.10117631073E+03  0.41800000000E+01 0.  1.
         -5    1    3    3    0  502 -0.30082457736E+02  0.43666228598E+02  0.78899080391E+01  0.53771896306E+02  0.41800000000E+01 0.  1.
        -11    1    1    2    0    0  0.19299153975E+02 -0.40929153977E+02 -0.66276073720E+02  0.80250675618E+02  0.00000000000E+00 0.  1.
         11    1    1    2    0    0  0.28299765215E+02  0.48041179795E+02 -0.46105769399E+02  0.72350353414E+02  0.00000000000E+00 0. -1.
</event>
<event>
 7    1  0.2384639E-009  0.9475719E+02  0.7561462E-02  0.1291724E+00
          1   -1    0    0  501    0  0.00000000000E+00  0.00000000000E+00  0.39854777226E+02  0.39854777226E+02  0.00000000000E+00 0. -1.
         -1   -1    0    0    0  501 -0.00000000000E+00 -0.00000000000E+00 -0.47354877915E+03  0.47354877915E+03  0.00000000000E+00 0.  1.
         25    2    1    2    0    0  0.89717847934E+01  0.65754318940E+02 -0.13701294692E+03  0.19702939577E+03  0.12507562429E+03 0.  0.
          5    1    3    3  502    0  0.33649539210E+02  0.16184387657E+02  0.10829476379E+02  0.39102120805E+02  0.41800000000E+01 0.  1.
         -5    1    3    3    0  502 -0.24677754416E+02  0.49569931283E+02 -0.14784242330E+03  0.15792727496E+03  0.41800000000E+01 0.  1.
        -11    1    1    2    0    0  0.29991036990E+02 -0.38772357828E+02 -0.74395167312E+02  0.89092081302E+02  0.00000000000E+00 0.  1.
         11    1    1    2    0    0 -0.38962821784E+02 -0.26981961113E+02 -0.22228588770E+03  0.22728207931E+03  0.00000000000E+00 0. -1.
</event>
<event>
 7    1  0.2384639E-009  0.1819913E+03  0.7561462E-02  0.1165890E+00
         -2   -1    0    0    0  501 -0.00000000000E+00  0.00000000000E+00  0.89187490017E+02  0.89187490017E+02  0.00000000000E+00 0. -1.
          2   -1    0    0  501    0  0.00000000000E+00 -0.00000000000E+00 -0.44170714543E+03  0.44170714543E+03  0.00000000000E+00 0.  1.
         25    2    1    2    0    0  0.52110069896E+02  0.15880327774E+03 -0.22107679275E+03  0.30406619010E+03  0.12508940509E+03 0.  0.
          5    1    3    3  502    0  0.82912708627E+02  0.11604590376E+03 -0.10703442886E+03  0.17836762708E+03  0.41800000000E+01 0. -1.
         -5    1    3    3    0  502 -0.30802638731E+02  0.42757373984E+02 -0.11404236389E+03  0.12569856302E+03  0.41800000000E+01 0. -1.
        -11    1    1    2    0    0 -0.22971807982E+02 -0.10246842329E+03 -0.12473083641E+03  0.16304987974E+03  0.00000000000E+00 0.  1.
         11    1    1    2    0    0 -0.29138261914E+02 -0.56334854456E+02 -0.67120262576E+01  0.63778565604E+02  0.00000000000E+00 0. -1.
</event>
<event>
 7    1  0.2384639E-009  0.1215668E+03  0.7561462E-02  0.1240534E+00
         -2   -1    0    0    0  501 -0.00000000000E+00  0.00000000000E+00  0.16564315521E+02  0.16564315521E+02  0.00000000000E+00 0.  1.
          2   -1    0    0  501    0  0.00000000000E+00 -0.00000000000E+00 -0.14092401567E+04  0.14092401567E+04  0.00000000000E+00 0. -1.
         25    2    1    2    0    0 -0.57428649951E+02  0.87532394644E+02 -0.92824444923E+03  0.94246754486E+03  0.12508935066E+03 0.  0.
          5    1    3    3  502    0 -0.65374413281E+02  0.73625970153E+02 -0.91740140671E+03  0.92267947350E+03  0.41800000000E+01 0. -1.
         -5    1    3    3    0  502  0.79457633301E+01  0.13906424491E+02 -0.10843042518E+02  0.19788071358E+02  0.41800000000E+01 0. -1.
        -11    1    1    2    0    0  0.66225551278E+02 -0.35267139098E+02 -0.33833718592E+03  0.34655684399E+03  0.00000000000E+00 0. -1.
         11    1    1    2    0    0 -0.87969013270E+01 -0.52265255546E+02 -0.12609420599E+03  0.13678008333E+03  0.00000000000E+00 0.  1.
</event>
<event>
 7    1  0.2384639E-009  0.1011431E+03  0.7561462E-02  0.1277910E+00
          2   -1    0    0  501    0  0.00000000000E+00  0.00000000000E+00  0.11240917838E+02  0.11240917838E+02  0.00000000000E+00 0.  1.
         -2   -1    0    0    0  501 -0.00000000000E+00 -0.00000000000E+00 -0.11359528327E+04  0.11359528327E+04  0.00000000000E+00 0. -1.
         25    2    1    2    0    0  0.72586526872E+01  0.30115969283E+02 -0.61664977224E+03  0.62997111128E+03  0.12508796824E+03 0.  0.
          5    1    3    3  502    0 -0.47817384607E+01 -0.36766263202E+02 -0.42410198683E+03  0.42574005070E+03  0.41800000000E+01 0.  1.
         -5    1    3    3    0  502  0.12040391148E+02  0.66882232485E+02 -0.19254778541E+03  0.20423106058E+03  0.41800000000E+01 0.  1.
        -11    1    1    2    0    0 -0.17445117678E+02 -0.61482944697E+02 -0.34047372778E+03  0.34642003974E+03  0.00000000000E+00 0.  1.
         11    1    1    2    0    0  0.10186464991E+02  0.31366975415E+02 -0.16758841486E+03  0.17080259954E+03  0.00000000000E+00 0. -1.
</event>
<event>
 7    1  0.2384639E-009  0.1079133E+03  0.7561462E-02  0.1264484E+00
          2   -1    0    0  501    0  0.00000000000E+00  0.00000000000E+00  0.26680680220E+03  0.26680680220E+03  0.00000000000E+00 0. -1.
         -2   -1    0    0    0  501 -0.00000000000E+00 -0.00000000000E+00 -0.54599849403E+02  0.54599849403E+02  0.00000000000E+00 0.  1.
         25    2    1    2    0    0  0.40974521019E+02  0.24406849232E+02  0.87402963311E+02  0.15988045563E+03  0.12509147227E+03 0.  0.
          5    1    3    3  502    0  0.80569636252E+02  0.76268651454E+01  0.26604339178E+02  0.85293016249E+02  0.41800000000E+01 0.  1.
         -5    1    3    3    0  502 -0.39595115234E+02  0.16779984086E+02  0.60798624133E+02  0.74587439376E+02  0.41800000000E+01 0.  1.
        -11    1    1    2    0    0 -0.59999178882E+02  0.79675048633E+00  0.42948719375E+02  0.73791115819E+02  0.00000000000E+00 0.  1.
         11    1    1    2    0    0  0.19024657864E+02 -0.25203599718E+02  0.81855270116E+02  0.87735080164E+02  0.00000000000E+00 0. -1.
</event>
<event>
 7    1  0.2384639E-009  0.8096111E+02  0.7561462E-02  0.1326346E+00
          1   -1    0    0  501    0  0.00000000000E+00  0.00000000000E+00  0.45500707102E+03  0.45500707102E+03  0.00000000000E+00 0. -1.
         -1   -1    0    0    0  501 -0.00000000000E+00 -0.00000000000E+00 -0.30446871214E+02  0.30446871214E+02  0.00000000000E+00 0.  1.
         25    2    1    2    0    0  0.16474246912E+02  0.38213516227E+02  0.27094795143E+03  0.30131755520E+03  0.12509117897E+03 0.  0.
          5    1    3    3  502    0  0.27225950204E+01 -0.22892351910E+02  0.21782891015E+03  0.21908532309E+03  0.41800000000E+01 0. -1.
         -5    1    3    3    0  502  0.13751651892E+02  0.61105868137E+02  0.53119041279E+02  0.82232232105E+02  0.41800000000E+01 0. -1.
        -11    1    1    2    0    0  0.97954576650E+01 -0.47007027089E+02  0.28166649837E+02  0.55668408902E+02  0.00000000000E+00 0.  1.
         11    1    1    2    0    0 -0.26269704577E+02  0.87935108621E+01  0.12544559854E+03  0.12846797813E+03  0.00000000000E+00 0. -1.
</event>
<event>
 7    1  0.2384639E-009  0.1407520E+03  0.7561462E-02  0.1212321E+00
         -1   -1    0    0    0  501 -0.00000000000E+00  0.00000000000E+00  0.13395071281E+02  0.13395071281E+02  0.00000000000E+00 0.  1.
          1   -1    0    0  501    0  0.00000000000E+00 -0.00000000000E+00 -0.15850599744E+04  0.15850599744E+04  0.00000000000E+00 0. -1.
         25    2    1    2    0    0  0.87124881385E+02 -0.46840567095E+02 -0.86621017087E+03  0.88076799355E+03  0.12508962655E+03 0.  0.
          5    1    3    3  502    0  0.78122210519E+02  0.22271147355E+02 -0.60271508124E+03  0.60817927072E+03  0.41800000000E+01 0.  1.
         -5    1    3    3    0  502  0.90026708663E+01 -0.69111714450E+02 -0.26349508963E+03  0.27258872283E+03  0.41800000000E+01 0.  1.
        -11    1    1    2    0    0  0.17009138086E+02  0.26326218060E+01 -0.61158854084E+02  0.63534611897E+02  0.00000000000E+00 0. -1.
         11    1    1    2    0    0 -0.10413401947E+03  0.44207945289E+02 -0.64429587816E+03  0.65415244023E+03  0.00000000000E+00 0.  1.
</event>
<event>
 7    1  0.2384639E-009  0.1326234E+03  0.7561462E-02  0.1223614E+00
          1   -1    0    0  501    0  0.00000000000E+00  0.00000000000E+00  0.48518253530E+03  0.48518253530E+03  0.00000000000E+00 0. -1.
         -1   -1    0    0    0  501 -0.00000000000E+00 -0.00000000000E+00 -0.44298292855E+02  0.44298292855E+02  0.00000000000E+00 0.  1.
         25    2    1    2    0    0  0.68118817473E+02  0.54829536419E+02  0.30870673898E+03  0.34437451194E+03  0.12508997731E+03 0.  0.
          5    1    3    3  502    0  0.10393699914E+03  0.30142722905E+02  0.20535487515E+03  0.23216283226E+03  0.41800000000E+01 0.  1.
         -5    1    3    3    0  502 -0.35818181668E+02  0.24686813514E+02  0.10335186382E+03  0.11221167968E+03  0.41800000000E+01 0.  1.
        -11    1    1    2    0    0 -0.70205195734E+02 -0.69286649232E+02  0.69284627634E+02  0.12053949102E+03  0.00000000000E+00 0.  1.
         11    1    1    2    0    0  0.20863782618E+01  0.14457112812E+02  0.62892875830E+02  0.64566825191E+02  0.00000000000E+00 0. -1.
</event>
<event>
 7    1  0.2569089E-009  0.1459861E+03  0.7561462E-02  0.1205494E+00
          1   -1    0    0  501    0  0.00000000000E+00  0.00000000000E+00  0.12254605604E+03  0.12254605604E+03  0.00000000000E+00 0. -1.
         -1   -1    0    0    0  501 -0.00000000000E+00 -0.00000000000E+00 -0.22730340955E+03  0.22730340955E+03  0.00000000000E+00 0.  1.
         25    2    1    2    0    0 -0.67181281852E+02 -0.10676676931E+03 -0.51923335991E+02  0.18508335055E+03  0.12508935274E+03 0.  0.
          5    1    3    3  502    0 -0.78518620575E+01 -0.98067247541E+02 -0.71695738872E+02  0.12180553415E+03  0.41800000000E+01 0. -1.
         -5    1    3    3    0  502 -0.59329419795E+02 -0.86995217735E+01  0.19772402881E+02  0.63277816397E+02  0.41800000000E+01 0. -1.
        -11    1    1    2    0    0  0.28709605408E+02  0.83813694477E+02 -0.73798492965E+02  0.11530478910E+03  0.00000000000E+00 0.  1.
         11    1    1    2    0    0  0.38471676445E+02  0.22953074837E+02  0.20964475451E+02  0.49461325941E+02  0.00000000000E+00 0. -1.
</event>
<event>
 7    1  0.2384639E-009  0.8284041E+02  0.7561462E-02  0.1321179E+00
          1   -1    0    0  501    0  0.00000000000E+00  0.00000000000E+00  0.63703897650E+02  0.63703897650E+02  0.00000000000E+00 0. -1.
         -1   -1    0    0    0  501 -0.00000000000E+00 -0.00000000000E+00 -0.19410898897E+03  0.19410898897E+03  0.00000000000E+00 0.  1.
         25    2    1    2    0    0 -0.88357208780E+01 -0.19217591575E+02 -0.67119793713E+02  0.14352624575E+03  0.12508929099E+03 0.  0.
          5    1    3    3  502    0  0.49538294267E+02 -0.39212331880E+02 -0.45660617525E+02  0.78064165679E+02  0.41800000000E+01 0.  1.
         -5    1    3    3    0  502 -0.58374015145E+02  0.19994740306E+02 -0.21459176188E+02  0.65462080067E+02  0.41800000000E+01 0.  1.
        -11    1    1    2    0    0 -0.11353792516E+02 -0.16610727667E+01  0.21660917974E+02  0.24512509760E+02  0.00000000000E+00 0. -1.
         11    1    1    2    0    0  0.20189513394E+02  0.20878664341E+02 -0.84946215580E+02  0.89774131113E+02  0.00000000000E+00 0.  1.
</event>
<event>
 7    1  0.2384639E-009  0.1321800E+03  0.7561462E-02  0.1224256E+00
         -2   -1    0    0    0  501 -0.00000000000E+00  0.00000000000E+00  0.54655668758E+02  0.54655668758E+02  0.00000000000E+00 0.  1.
          2   -1    0    0  501    0  0.00000000000E+00 -0.00000000000E+00 -0.55161499575E+03  0.55161499575E+03  0.00000000000E+00 0. -1.
         25    2    1    2    0    0  0.96881917298E+02 -0.18662568503E+02 -0.42742203280E+03  0.45614846001E+03  0.12508967219E+03 0.  0.
          5    1    3    3  502    0  0.91376756015E+02  0.22855984727E+02 -0.38504640517E+03  0.39642188904E+03  0.41800000000E+01 0.  1.
         -5    1    3    3    0  502  0.55051612825E+01 -0.41518553230E+02 -0.42375627632E+02  0.59726570973E+02  0.41800000000E+01 0.  1.
        -11    1    1    2    0    0 -0.86474225810E+02 -0.19317077630E+02 -0.28093459259E+02  0.92952588295E+02  0.00000000000E+00 0.  1.
         11    1    1    2    0    0 -0.10407691487E+02  0.37979646133E+02 -0.41443834938E+02  0.57169616204E+02  0.00000000000E+00 0. -1.
</event>
<event>
 7    1  0.2384639E-009  0.1059521E+03  0.7561462E-02  0.1268255E+00
         -1   -1    0    0    0  501 -0.00000000000E+00  0.00000000000E+00  0.75282736184E+02  0.75282736184E+02  0.00000000000E+00 0.  1.
          1   -1    0    0  501    0  0.00000000000E+00 -0.00000000000E+00 -0.17094079797E+03  0.17094079797E+03  0.00000000000E+00 0. -1.
         25    2    1    2    0    0  0.43691120638E+01  0.30144434507E+02 -0.48984123049E+02  0.13774863456E+03  0.12508983148E+03 0.  0.
          5    1    3    3  502    0  0.21556525077E+02 -0.40707834809E+02  0.55810378344E+01  0.46587895118E+02  0.41800000000E+01 0.  1.
         -5    1    3    3    0  502 -0.17187413013E+02  0.70852269317E+02 -0.54565160883E+02  0.91160739442E+02  0.41800000000E+01 0.  1.
        -11    1    1    2    0    0  0.40688465386E+02 -0.49134018982E+01 -0.38423891030E+02  0.56179072043E+02  0.00000000000E+00 0.  1.
         11    1    1    2    0    0 -0.45057577450E+02 -0.25231032609E+02 -0.82500477079E+01  0.52295827552E+02  0.00000000000E+00 0. -1.
</event>
<event>
 7    1  0.2384639E-009  0.9841700E+02  0.7561462E-02  0.1283660E+00
         -1   -1    0    0    0  501 -0.00000000000E+00  0.00000000000E+00  0.79373769261E+02  0.79373769261E+02  0.00000000000E+00 0.  1.
          1   -1    0    0  501    0  0.00000000000E+00 -0.00000000000E+00 -0.26890006146E+03  0.26890006146E+03  0.00000000000E+00 0. -1.
         25    2    1    2    0    0  0.40140026714E+02 -0.34811278271E+02 -0.10132132278E+02  0.13628502108E+03  0.12509156657E+03 0.  0.
          5    1    3    3  502    0 -0.14643992491E+02 -0.25086187814E+02 -0.56545390967E+02  0.63707275682E+02  0.41800000000E+01 0. -1.
         -5    1    3    3    0  502  0.54784019205E+02 -0.97250904569E+01  0.46413258689E+02  0.72577745396E+02  0.41800000000E+01 0. -1.
        -11    1    1    2    0    0 -0.65211272590E+02 -0.41674937315E+01 -0.89072467008E+02  0.11047073122E+03  0.00000000000E+00 0.  1.
         11    1    1    2    0    0  0.25071245875E+02  0.38978772003E+02 -0.90321692912E+02  0.10151807842E+03  0.00000000000E+00 0. -1.
</event>
<event>
 7    1  0.2384639E-009  0.2058904E+03  0.7561462E-02  0.1144862E+00
          1   -1    0    0  501    0  0.00000000000E+00  0.00000000000E+00  0.31094901438E+03  0.31094901438E+03  0.00000000000E+00 0. -1.
         -1   -1    0    0    0  501 -0.00000000000E+00 -0.00000000000E+00 -0.15389489071E+03  0.15389489071E+03  0.00000000000E+00 0.  1.
         25    2    1    2    0    0 -0.85260753817E+02 -0.16891046231E+03  0.77844905470E+02  0.23979726482E+03  0.12507101378E+03 0.  0.
          5    1    3    3  502    0  0.20577633523E+02 -0.22162048133E+01  0.29826611764E+02  0.36543805693E+02  0.41800000000E+01 0.  1.
         -5    1    3    3    0  502 -0.10583838734E+03 -0.16669425749E+03  0.48018293706E+02  0.20325345912E+03  0.41800000000E+01 0.  1.
        -11    1    1    2    0    0  0.55303646788E+02  0.66641941809E+02 -0.85153224340E+01  0.87018115771E+02  0.00000000000E+00 0.  1.
         11    1    1    2    0    0  0.29957107028E+02  0.10226852050E+03  0.87724540635E+02  0.13802852450E+03  0.00000000000E+00 0. -1.
</event>
<event>
 7    1  0.2492764E-009  0.1234859E+03  0.7561462E-02  0.1237455E+00
         -2   -1    0    0    0  501 -0.00000000000E+00  0.00000000000E+00  0.28319824426E+02  0.28319824426E+02  0.00000000000E+00 0.  1.
          2   -1    0    0  501    0  0.00000000000E+00 -0.00000000000E+00 -0.65021508834E+03  0.65021508834E+03  0.00000000000E+00 0. -1.
         25    2    1    2    0    0 -0.70050315241E+02 -0.36526857137E+02 -0.38650903549E+03  0.41385630509E+03  0.12508616543E+03 0.  0.
          5    1    3    3  502    0 -0.54777945797E+02  0.39154482382E+02 -0.22311794497E+03  0.23309394373E+03  0.41800000000E+01 0.  1.
         -5    1    3    3    0  502 -0.15272369444E+02 -0.75681339519E+02 -0.16339109052E+03  0.18076236135E+03  0.41800000000E+01 0.  1.
        -11    1    1    2    0    0  0.14074822820E+02  0.43556672443E+02 -0.17959077869E+03  0.18533249079E+03  0.00000000000E+00 0. -1.
         11    1    1    2    0    0  0.55975492421E+02 -0.70298153057E+01 -0.55795449726E+02  0.79346116888E+02  0.00000000000E+00 0.  1.
</event>
<event>
 7    1  0.2384639E-009  0.8480948E+02  0.7561462E-02  0.1315932E+00
          1   -1    0    0  501    0  0.00000000000E+00  0.00000000000E+00  0.18309335962E+03  0.18309335962E+03  0.00000000000E+00 0. -1.
         -1   -1    0    0    0  501 -0.00000000000E+00 -0.00000000000E+00 -0.10133671351E+03  0.10133671351E+03  0.00000000000E+00 0.  1.
         25    2    1    2    0    0 -0.42958799183E+02  0.39169951823E+02  0.10274151230E+03  0.17199583139E+03  0.12508798550E+03 0.  0.
          5    1    3    3  502    0  0.26495878431E+02 -0.42889225418E+01  0.83395973077E+02  0.87708535251E+02  0.41800000000E+01 0. -1.
         -5    1    3    3    0  502 -0.69454677615E+02  0.43458874365E+02  0.19345539219E+02  0.84287296144E+02  0.41800000000E+01 0. -1.
        -11    1    1    2    0    0  0.18678020836E+02 -0.28078297715E+02 -0.57824551589E+02  0.66939809018E+02  0.00000000000E+00 0.  1.
         11    1    1    2    0    0  0.24280778348E+02 -0.11091654108E+02  0.36839685405E+02  0.45494432723E+02  0.00000000000E+00 0. -1.
</event>
<event>
 7    1  0.2384639E-009  0.9135735E+02  0.7561462E-02  0.1299598E+00
         -2   -1    0    0    0  501 -0.00000000000E+00  0.00000000000E+00  0.21807202603E+03  0.21807202603E+03  0.00000000000E+00 0. -1.
          2   -1    0    0  501    0  0.00000000000E+00 -0.00000000000E+00 -0.61033614228E+02  0.61033614228E+02  0.00000000000E+00 0.  1.
         25    2    1    2    0    0 -0.91606634764E+01 -0.15508960250E+01  0.47281248747E+02  0.13405073283E+03  0.12509100469E+03 0.  0.
          5    1    3    3  502    0 -0.11878317620E+02  0.45563161150E+02 -0.20358740175E+02  0.51468891429E+02  0.41800000000E+01 0. -1.
         -5    1    3    3    0  502  0.27176541435E+01 -0.47114057175E+02  0.67639988922E+02  0.82581841399E+02  0.41800000000E+01 0. -1.
        -11    1    1    2    0    0  0.13154377580E+02  0.43746875687E+02  0.83548519944E+02  0.95221751542E+02  0.00000000000E+00 0. -1.
         11    1    1    2    0    0 -0.39937141041E+01 -0.42195979662E+02  0.26208643110E+02  0.49833155887E+02  0.00000000000E+00 0.  1.
</event>
<event>
 7    1  0.2384639E-009  0.1453463E+03  0.7561462E-02  0.1206311E+00
         -1   -1    0    0    0  501 -0.00000000000E+00  0.00000000000E+00  0.62331203716E+02  0.62331203716E+02  0.00000000000E+00 0.  1.
          1   -1    0    0  501    0  0.00000000000E+00 -0.00000000000E+00 -0.44862106372E+03  0.44862106372E+03  0.00000000000E+00 0. -1.
         25    2    1    2    0    0 -0.88144614110E+02 -0.81011783709E+02 -0.26547051556E+03  0.31694070970E+03  0.12507772280E+03 0.  0.
          5    1    3    3  502    0 -0.62684636394E+02  0.14236782772E+02 -0.55861758603E+02  0.85264635681E+02  0.41800000000E+01 0. -1.
         -5    1    3    3    0  502 -0.25459977716E+02 -0.95248566481E+02 -0.20960875695E+03  0.23167607402E+03  0.41800000000E+01 0. -1.
        -11    1    1    2    0    0  0.73172220520E+01  0.32528251758E+02  0.81011333299E+01  0.34311182757E+02  0.00000000000E+00 0.  1.
         11    1    1    2    0    0  0.80827392058E+02  0.48483531951E+02 -0.12892047778E+03  0.15970037498E+03  0.00000000000E+00 0. -1.
</event>
<event>
 7    1  0.2384639E-009  0.1160287E+03  0.7561462E-02  0.1249796E+00
          3   -1    0    0  501    0  0.00000000000E+00  0.00000000000E+00  0.31541279019E+02  0.31541279019E+02  0.00000000000E+00 0. -1.
         -3   -1    0    0    0  501 -0.00000000000E+00 -0.00000000000E+00 -0.50823158505E+03  0.50823158505E+03  0.00000000000E+00 0.  1.
         25    2    1    2    0    0 -0.34638667825E+02 -0.46613271579E+02 -0.33742773226E+03  0.36452360481E+03  0.12508936635E+03 0.  0.
          5    1    3    3  502    0 -0.46918601582E+02  0.26700778783E+02 -0.21067720711E+03  0.21752389468E+03  0.41800000000E+01 0. -1.
         -5    1    3    3    0  502  0.12279933757E+02 -0.73314050362E+02 -0.12675052515E+03  0.14699971013E+03  0.41800000000E+01 0. -1.
        -11    1    1    2    0    0  0.95768544426E+01  0.69116389368E+02 -0.73398861083E+02  0.10127282078E+03  0.00000000000E+00 0. -1.
         11    1    1    2    0    0  0.25061813383E+02 -0.22503117789E+02 -0.65863712697E+02  0.73976438482E+02  0.00000000000E+00 0.  1.
</event>
<event>
 7    1  0.2384639E-009  0.1085868E+03  0.7561462E-02  0.1263210E+00
         -1   -1    0    0    0  501 -0.00000000000E+00  0.00000000000E+00  0.75674606391E+02  0.75674606391E+02  0.00000000000E+00 0.  1.
          1   -1    0    0  501    0  0.00000000000E+00 -0.00000000000E+00 -0.23449743864E+03  0.23449743864E+03  0.00000000000E+00 0. -1.
         25    2    1    2    0    0  0.78340136237E+02  0.18086338107E+01 -0.82990378448E+02  0.16934189397E+03  0.12509526785E+03 0.  0.
          5    1    3    3  502    0  0.10496411454E+03  0.18507595422E+02 -0.35843658580E+02  0.11252660436E+03  0.41800000000E+01 0.  1.
         -5    1    3    3    0  502 -0.26623978300E+02 -0.16698961611E+02 -0.47146719869E+02  0.56815289613E+02  0.41800000000E+01 0.  1.
        -11    1    1    2    0    0 -0.59000192980E+02 -0.49627242570E+01 -0.95949138920E+02  0.11274701177E+03  0.00000000000E+00 0. -1.
         11    1    1    2    0    0 -0.19339943257E+02  0.31540904463E+01  0.20116685122E+02  0.28083139284E+02  0.00000000000E+00 0.  1.
</event>
<event>
 7    1  0.2384639E-009  0.9038141E+02  0.7561462E-02  0.1301931E+00
          2   -1    0    0  501    0  0.00000000000E+00  0.00000000000E+00  0.81111273653E+03  0.81111273653E+03  0.00000000000E+00 0. -1.
         -2   -1    0    0    0  501 -0.00000000000E+00 -0.00000000000E+00 -0.15565920913E+02  0.15565920913E+02  0.00000000000E+00 0.  1.
         25    2    1    2    0    0  0.22624994175E+02 -0.19049497366E+02  0.46594127878E+03  0.48334509058E+03  0.12508568105E+03 0.  0.
          5    1    3    3  502    0 -0.33366467558E+02  0.87017828037E+01  0.40659615137E+02  0.53476339482E+02  0.41800000000E+01 0. -1.
         -5    1    3    3    0  502  0.55991461733E+02 -0.27751280170E+02  0.42528166364E+03  0.42986875109E+03  0.41800000000E+01 0. -1.
        -11    1    1    2    0    0 -0.32754642490E+02 -0.23078262621E+02  0.74660886926E+02  0.84733233426E+02  0.00000000000E+00 0.  1.
         11    1    1    2    0    0  0.10129648314E+02  0.42127759987E+02  0.25494464991E+03  0.25860033344E+03  0.00000000000E+00 0. -1.
</event>
<event>
 7    1  0.2384639E-009  0.1676016E+03  0.7561462E-02  0.1180372E+00
         -2   -1    0    0    0  501 -0.00000000000E+00  0.00000000000E+00  0.20560458558E+02  0.20560458558E+02  0.00000000000E+00 0.  1.
          2   -1    0    0  501    0  0.00000000000E+00 -0.00000000000E+00 -0.15255348664E+04  0.15255348664E+04  0.00000000000E+00 0. -1.
         25    2    1    2    0    0 -0.90866050052E+02  0.98108477508E+02 -0.61221894345E+03  0.63901522299E+03  0.12508600275E+03 0.  0.
          5    1    3    3  502    0 -0.11006633171E+03  0.46731918774E+02 -0.31941299796E+03  0.34108738656E+03  0.41800000000E+01 0. -1.
         -5    1    3    3    0  502  0.19200281658E+02  0.51376558734E+02 -0.29280594549E+03  0.29792783643E+03  0.41800000000E+01 0. -1.
        -11    1    1    2    0    0  0.10073940856E+03 -0.51950853832E+02 -0.63674296766E+03  0.64675260070E+03  0.00000000000E+00 0. -1.
         11    1    1    2    0    0 -0.98733585078E+01 -0.46157623675E+02 -0.25601249671E+03  0.26032750124E+03  0.00000000000E+00 0.  1.
</event>
<event>
 7    1  0.2448123E-009  0.1080618E+03  0.7561462E-02  0.1264202E+00
         -1   -1    0    0    0  501 -0.00000000000E+00  0.00000000000E+00  0.14987383530E+02  0.14987383530E+02  0.00000000000E+00 0.  1.
          1   -1    0    0  501    0  0.00000000000E+00 -0.00000000000E+00 -0.14546925218E+04  0.14546925218E+04  0.00000000000E+00 0. -1.
         25    2    1    2    0    0  0.67400720394E+02  0.62301476041E+02 -0.98411592601E+03  0.99627080374E+03  0.12508807906E+03 0.  0.
          5    1    3    3  502    0  0.48616889018E+02  0.57475267915E+02 -0.23303983827E+03  0.24493273962E+03  0.41800000000E+01 0.  1.
         -5    1    3    3    0  502  0.18783831375E+02  0.48262081258E+01 -0.75107608775E+03  0.75133806412E+03  0.41800000000E+01 0.  1.
        -11    1    1    2    0    0 -0.44648927019E+02  0.94315571709E+01 -0.99658038974E+02  0.10960933212E+03  0.00000000000E+00 0. -1.
         11    1    1    2    0    0 -0.22751793374E+02 -0.71733033212E+02 -0.35593117330E+03  0.36379976949E+03  0.00000000000E+00 0.  1.
</event>
<event>
 7    1  0.2424151E-009  0.1644227E+03  0.7561462E-02  0.1183792E+00
         -2   -1    0    0    0  501 -0.00000000000E+00  0.00000000000E+00  0.29293422950E+02  0.29293422950E+02  0.00000000000E+00 0.  1.
          2   -1    0    0  501    0  0.00000000000E+00 -0.00000000000E+00 -0.12495830092E+04  0.12495830092E+04  0.00000000000E+00 0. -1.
         25    2    1    2    0    0 -0.51082703381E+02 -0.14456717099E+03 -0.52958072980E+03  0.56534306561E+03  0.12509165815E+03 0.  0.
          5    1    3    3  502    0 -0.13522374851E+02 -0.64278786612E+02 -0.65507242915E+02  0.92861662187E+02  0.41800000000E+01 0. -1.
         -5    1    3    3    0  502 -0.37560328531E+02 -0.80288384375E+02 -0.46407348689E+03  0.47248140342E+03  0.41800000000E+01 0. -1.
        -11    1    1    2    0    0  0.19752980649E+01  0.11882813404E+03 -0.54068434535E+03  0.55359153584E+03  0.00000000000E+00 0.  1.
         11    1    1    2    0    0  0.49107405317E+02  0.25739036950E+02 -0.15002451108E+03  0.15994183069E+03  0.00000000000E+00 0. -1.
</event>
<event>
 7    1  0.2384639E-009  0.1137266E+03  0.7561462E-02  0.1253820E+00
          1   -1    0    0  501    0  0.00000000000E+00  0.00000000000E+00  0.16196415354E+02  0.16196415354E+02  0.00000000000E+00 0. -1.
         -1   -1    0    0    0  501 -0.00000000000E+00 -0.00000000000E+00 -0.10343617191E+04  0.10343617191E+04  0.00000000000E+00 0.  1.
         25    2    1    2    0    0 -0.69517051966E+02 -0.12438741461E+02 -0.59918537976E+03  0.61616441219E+03  0.12509244873E+03 0.  0.
          5    1    3    3  502    0  0.42041316475E+01 -0.38188574818E+02 -0.40477268243E+03  0.40661337756E+03  0.41800000000E+01 0. -1.
         -5    1    3    3    0  502 -0.73721183613E+02  0.25749833357E+02 -0.19441269733E+03  0.20955103463E+03  0.41800000000E+01 0. -1.
        -11    1    1    2    0    0  0.65751474334E+02 -0.26934038860E+02 -0.20975303206E+03  0.22146113267E+03  0.00000000000E+00 0. -1.
         11    1    1    2    0    0  0.37655776319E+01  0.39372780321E+02 -0.20922689194E+03  0.21293258960E+03  0.00000000000E+00 0.  1.
</event>
<event>
 7    1  0.2384639E-009  0.1751239E+03  0.7561462E-02  0.1172607E+00
         -2   -1    0    0    0  501 -0.00000000000E+00  0.00000000000E+00  0.37230199895E+03  0.37230199895E+03  0.00000000000E+00 0.  1.
          2   -1    0    0  501    0  0.00000000000E+00 -0.00000000000E+00 -0.92998396664E+02  0.92998396664E+02  0.00000000000E+00 0. -1.
         25    2    1    2    0    0 -0.28850686289E+01 -0.14609464633E+03  0.10272148193E+03  0.21806325443E+03  0.12509160953E+03 0.  0.
          5    1    3    3  502    0  0.53680149259E+02 -0.97169072258E+02  0.33396708096E+02  0.11600086008E+03  0.41800000000E+01 0.  1.
         -5    1    3    3    0  502 -0.56565217888E+02 -0.48925574070E+02  0.69324773832E+02  0.10206239435E+03  0.41800000000E+01 0.  1.
        -11    1    1    2    0    0  0.24499489071E+02  0.10014735656E+02  0.64166591201E+02  0.69410887628E+02  0.00000000000E+00 0.  1.
         11    1    1    2    0    0 -0.21614420442E+02  0.13607991067E+03  0.11241552916E+03  0.17782625356E+03  0.00000000000E+00 0. -1.
</event>
<event>
 7    1  0.2384639E-009  0.9772089E+02  0.7561462E-02  0.1285163E+00
          2   -1    0    0  501    0  0.00000000000E+00  0.00000000000E+00  0.15540867300E+04  0.15540867300E+04  0.00000000000E+00 0. -1.
         -2   -1    0    0    0  501 -0.00000000000E+00 -0.00000000000E+00 -0.21713391109E+02  0.21713391109E+02  0.00000000000E+00 0.  1.
         25    2    1    2    0    0 -0.71633043585E+01 -0.77038375281E+02  0.13469332917E+04  0.13549404845E+04  0.12509276631E+03 0.  0.
          5    1    3    3  502    0 -0.32096426173E+02 -0.16151084008E+02  0.10564787713E+04  0.10570978690E+04  0.41800000000E+01 0.  1.
         -5    1    3    3    0  502  0.24933121814E+02 -0.60887291272E+02  0.29045452044E+03  0.29784261556E+03  0.41800000000E+01 0.  1.
        -11    1    1    2    0    0 -0.22181642289E+02  0.23683274775E+02  0.82251945148E+01  0.33475014317E+02  0.00000000000E+00 0.  1.
         11    1    1    2    0    0  0.29344946648E+02  0.53355100506E+02  0.17721485265E+03  0.18738462222E+03  0.00000000000E+00 0. -1.
</event>
<event>
 7    1  0.2384639E-009  0.1327818E+03  0.7561462E-02  0.1223385E+00
         -1   -1    0    0    0  501 -0.00000000000E+00  0.00000000000E+00  0.10473311861E+03  0.10473311861E+03  0.00000000000E+00 0.  1.
          1   -1    0    0  501    0  0.00000000000E+00 -0.00000000000E+00 -0.23082252680E+03  0.23082252680E+03  0.00000000000E+00 0. -1.
         25    2    1    2    0    0  0.42422685684E+02 -0.71006968923E+02  0.11221142747E+02  0.15038327591E+03  0.12509013443E+03 0.  0.
          5    1    3    3  502    0 -0.30839121809E+02 -0.69866007431E+02  0.31171440893E+01  0.76547367137E+02  0.41800000000E+01 0.  1.
         -5    1    3    3    0  502  0.73261807493E+02 -0.11409614913E+01  0.81039986572E+01  0.73835908774E+02  0.41800000000E+01 0.  1.
        -11    1    1    2    0    0 -0.50164130023E+02  0.63421900639E+01 -0.27647681109E+02  0.57628617774E+02  0.00000000000E+00 0.  1.
         11    1    1    2    0    0  0.77414443395E+01  0.64664778859E+02 -0.10966286983E+03  0.12754375173E+03  0.00000000000E+00 0. -1.
</event>
<event>
 7    1  0.2384639E-009  0.1134615E+03  0.7561462E-02  0.1254291E+00
          1   -1    0    0  501    0  0.00000000000E+00  0.00000000000E+00  0.17650952901E+03  0.17650952901E+03  0.00000000000E+00 0. -1.
         -1   -1    0    0    0  501 -0.00000000000E+00 -0.00000000000E+00 -0.75661110703E+02  0.75661110703E+02  0.00000000000E+00 0.  1.
         25    2    1    2    0    0  0.11852667898E+02  0.40561578744E+02  0.58435813044E+02  0.14438941087E+03  0.12509128794E+03 0.  0.
          5    1    3    3  502    0 -0.53663172976E+02  0.31418948291E+02  0.44703647807E+02  0.76699250145E+02  0.41800000000E+01 0.  1.
         -5    1    3    3    0  502  0.65515840874E+02  0.91426304531E+01  0.13732165237E+02  0.67690160726E+02  0.41800000000E+01 0.  1.
        -11    1    1    2    0    0 -0.47635490996E+02 -0.40511875826E+02  0.20430546311E+02  0.65785707475E+02  0.00000000000E+00 0.  1.
         11    1    1    2    0    0  0.35782823098E+02 -0.49702918088E-01  0.21982058955E+02  0.41995521370E+02  0.00000000000E+00 0. -1.
</event>
<event>
 7    1  0.2384639E-009  0.1462986E+03  0.7561462E-02  0.1205096E+00
         -1   -1    0    0    0  501 -0.00000000000E+00  0.00000000000E+00  0.19546145116E+03  0.19546145116E+03  0.00000000000E+00 0.  1.
          1   -1    0    0  501    0  0.00000000000E+00 -0.00000000000E+00 -0.11772833380E+03  0.11772833380E+03  0.00000000000E+00 0. -1.
         25    2    1    2    0    0 -0.26134389373E+02 -0.99848474467E+02  0.24414853225E+02  0.16399988559E+03  0.12508858163E+03 0.  0.
          5    1    3    3  502    0  0.45452285170E+02 -0.69268830784E+02  0.23813427484E+01  0.82989302555E+02  0.41800000000E+01 0.  1.
         -5    1    3    3    0  502 -0.71586674543E+02 -0.30579643683E+02  0.22033510476E+02  0.81010583036E+02  0.41800000000E+01 0.  1.
        -11    1    1    2    0    0  0.55814392478E+02  0.70810446351E+02  0.12608822414E+02  0.91040365348E+02  0.00000000000E+00 0. -1.
         11    1    1    2    0    0 -0.29680003104E+02  0.29038028115E+02  0.40709441726E+02  0.58149534020E+02  0.00000000000E+00 0.  1.
</event>
<event>
 7    1  0.2384639E-009  0.9725814E+02  0.7561462E-02  0.1286170E+00
         -3   -1    0    0    0  501 -0.00000000000E+00  0.00000000000E+00  0.80755316254E+02  0.80755316254E+02  0.00000000000E+00 0.  1.
          3   -1    0    0  501    0  0.00000000000E+00 -0.00000000000E+00 -0.19663575755E+03  0.19663575755E+03  0.00000000000E+00 0. -1.
         25    2    1    2    0    0 -0.24308432269E+02  0.18578694937E+02 -0.78594342498E+01  0.12901732249E+03  0.12509049129E+03 0.  0.
          5    1    3    3  502    0 -0.18730736599E+02  0.53683005881E+02 -0.48510666604E+02  0.74856280887E+02  0.41800000000E+01 0. -1.
         -5    1    3    3    0  502 -0.55776956699E+01 -0.35104310943E+02  0.40651232354E+02  0.54161041605E+02  0.41800000000E+01 0. -1.
        -11    1    1    2    0    0 -0.37154598159E+02 -0.15252266558E+02 -0.42557998339E+02  0.58517339499E+02  0.00000000000E+00 0.  1.
         11    1    1    2    0    0  0.61463030428E+02 -0.33264283794E+01 -0.65463008711E+02  0.89856411817E+02  0.00000000000E+00 0. -1.
</event>
<event>
 7    1  0.2384639E-009  0.6792820E+02  0.7561462E-02  0.1367283E+00
         -1   -1    0    0    0  501 -0.00000000000E+00  0.00000000000E+00  0.22550415949E+02  0.22550415949E+02  0.00000000000E+00 0.  1.
          1   -1    0    0  501    0  0.00000000000E+00 -0.00000000000E+00 -0.10706039493E+04  0.10706039493E+04  0.00000000000E+00 0. -1.
         25    2    1    2    0    0 -0.28060230571E+02 -0.53101000071E+01 -0.95197610292E+03  0.96058383192E+03  0.12508886412E+03 0.  0.
          5    1    3    3  502    0 -0.23120938337E+01 -0.27933162188E+02 -0.46535960569E+02  0.54485551789E+02  0.41800000000E+01 0.  1.
         -5    1    3    3    0  502 -0.25748136738E+02  0.22623062181E+02 -0.90544014235E+03  0.90609828013E+03  0.41800000000E+01 0.  1.
        -11    1    1    2    0    0  0.26519412153E+02 -0.28623514611E+02 -0.10366521168E+02  0.40373872377E+02  0.00000000000E+00 0.  1.
         11    1    1    2    0    0  0.15408184186E+01  0.33933614618E+02 -0.85710909246E+02  0.92196660928E+02  0.00000000000E+00 0. -1.
</event>
<event>
 7    1  0.2384639E-009  0.1970977E+03  0.7561462E-02  0.1152211E+00
          1   -1    0    0  501    0  0.00000000000E+00  0.00000000000E+00  0.40695571619E+03  0.40695571619E+03  0.00000000000E+00 0. -1.
         -1   -1    0    0    0  501 -0.00000000000E+00 -0.00000000000E+00 -0.10762470603E+03  0.10762470603E+03  0.00000000000E+00 0.  1.
         25    2    1    2    0    0 -0.10593888521E+03 -0.13447675311E+03  0.21839751425E+03  0.30438791928E+03  0.12508991426E+03 0.  0.
          5    1    3    3  502    0 -0.12216169284E+03 -0.76209333004E+02  0.18719834001E+03  0.23620337114E+03  0.41800000000E+01 0.  1.
         -5    1    3    3    0  502  0.16222807627E+02 -0.58267420103E+02  0.31199174238E+02  0.68184548146E+02  0.41800000000E+01 0.  1.
        -11    1    1    2    0    0  0.66098758241E+02  0.13429735874E+03  0.44378150326E+02  0.15612253723E+03  0.00000000000E+00 0.  1.
         11    1    1    2    0    0  0.39840126972E+02  0.17939436452E+00  0.36555345593E+02  0.54069965701E+02  0.00000000000E+00 0. -1.
</event>
<event>
 7    1  0.2384639E-009  0.9488667E+02  0.7561462E-02  0.1291432E+00
          2   -1    0    0  501    0  0.00000000000E+00  0.00000000000E+00  0.50799945485E+03  0.50799945485E+03  0.00000000000E+00 0. -1.
         -2   -1    0    0    0  501 -0.00000000000E+00 -0.00000000000E+00 -0.31860203991E+02  0.31860203991E+02  0.00000000000E+00 0.  1.
         25    2    1    2    0    0 -0.30015091131E+02  0.50247772484E+01  0.39680683564E+03  0.41716862906E+03  0.12509135134E+03 0.  0.
          5    1    3    3  502    0  0.85366317184E+01 -0.51308776836E+02  0.24754308919E+03  0.25298323673E+03  0.41800000000E+01 0. -1.
         -5    1    3    3    0  502 -0.38551722850E+02  0.56333554084E+02  0.14926374645E+03  0.16418539233E+03  0.41800000000E+01 0. -1.
        -11    1    1    2    0    0  0.22505908898E+02  0.27663437030E+02 -0.96009703770E+00  0.35674969796E+02  0.00000000000E+00 0.  1.
         11    1    1    2    0    0  0.75091822338E+01 -0.32688214278E+02  0.80292512258E+02  0.87016059985E+02  0.00000000000E+00 0. -1.
</event>
<event>
 7    1  0.2384639E-009  0.9964241E+02  0.7561462E-02  0.1281050E+00
          2   -1    0    0  501    0  0.00000000000E+00  0.00000000000E+00  0.62443214478E+03  0.62443214478E+03  0.00000000000E+00 0. -1.
         -2   -1    0    0    0  501 -0.00000000000E+00 -0.00000000000E+00 -0.27976920979E+02  0.27976920979E+02  0.00000000000E+00 0.  1.
         25    2    1    2    0    0  0.57859832079E+02 -0.13937093710E+02  0.43930311578E+03  0.46062611425E+03  0.12508871588E+03 0.  0.
          5    1    3    3  502    0  0.75369422942E+02 -0.28270309544E+02  0.42698297444E+03  0.43452467499E+03  0.41800000000E+01 0.  1.
         -5    1    3    3    0  502 -0.17509590863E+02  0.14333215835E+02  0.12320141340E+02  0.26101439252E+02  0.41800000000E+01 0.  1.
        -11    1    1    2    0    0 -0.76066597524E+02  0.14576186851E+02  0.75637000355E+02  0.10825686262E+03  0.00000000000E+00 0.  1.
         11    1    1    2    0    0  0.18206765445E+02 -0.63909314106E+00  0.81515107666E+02  0.83526088894E+02  0.00000000000E+00 0. -1.
</event>
<event>
 7    1  0.2384639E-009  0.2743257E+03  0.7561462E-02  0.1098829E+00
         -2   -1    0    0    0  501 -0.00000000000E+00  0.00000000000E+00  0.19938745481E+03  0.19938745481E+03  0.00000000000E+00 0.  1.
          2   -1    0    0  501    0  0.00000000000E+00 -0.00000000000E+00 -0.41162650024E+03  0.41162650024E+03  0.00000000000E+00 0. -1.
         25    2    1    2    0    0 -0.31640451226E+02 -0.25570962307E+03 -0.42149450458E+02  0.28950342779E+03  0.12508848487E+03 0.  0.
          5    1    3    3  502    0  0.46231527897E+02 -0.81607511294E+02 -0.29079951113E+02  0.98286601468E+02  0.41800000000E+01 0.  1.
         -5    1    3    3    0  502 -0.77871979123E+02 -0.17410211177E+03 -0.13069499344E+02  0.19121682632E+03  0.41800000000E+01 0.  1.
        -11    1    1    2    0    0  0.35185890798E+02  0.70889939662E+02 -0.90577067110E+02  0.12028148462E+03  0.00000000000E+00 0.  1.
         11    1    1    2    0    0 -0.35454395727E+01  0.18481968341E+03 -0.79512527864E+02  0.20122904264E+03  0.00000000000E+00 0. -1.
</event>
<event>
 7    1  0.2384639E-009  0.1166224E+03  0.7561462E-02  0.1248775E+00
         -2   -1    0    0    0  501 -0.00000000000E+00  0.00000000000E+00  0.43217154441E+03  0.43217154441E+03  0.00000000000E+00 0. -1.
          2   -1    0    0  501    0  0.00000000000E+00 -0.00000000000E+00 -0.36235177577E+02  0.36235177577E+02  0.00000000000E+00 0.  1.
         25    2    1    2    0    0  0.40483013993E+02  0.38634921685E+02  0.16966198772E+03  0.21809381419E+03  0.12509272607E+03 0.  0.
          5    1    3    3  502    0  0.10930710459E+01  0.79762212633E+02  0.95763833618E+02  0.12470521079E+03  0.41800000000E+01 0. -1.
         -5    1    3    3    0  502  0.39389942948E+02 -0.41127290948E+02  0.73898154100E+02  0.93388603403E+02  0.41800000000E+01 0. -1.
        -11    1    1    2    0    0 -0.40955863911E+02 -0.61230030642E+02  0.11359564865E+03  0.13539006918E+03  0.00000000000E+00 0.  1.
         11    1    1    2    0    0  0.47284991791E+00  0.22595108957E+02  0.11267873047E+03  0.11492283862E+03  0.00000000000E+00 0. -1.
</event>
<event>
 7    1  0.2384639E-009  0.2600086E+03  0.7561462E-02  0.1107138E+00
          4   -1    0    0  501    0  0.00000000000E+00  0.00000000000E+00  0.79910400942E+02  0.79910400942E+02  0.00000000000E+00 0. -1.
         -4   -1    0    0    0  501 -0.00000000000E+00 -0.00000000000E+00 -0.10242410708E+04  0.10242410708E+04  0.00000000000E+00 0.  1.
         25    2    1    2    0    0  0.47722424748E+02 -0.24028037392E+03 -0.28981060549E+03  0.39956186609E+03  0.12508960734E+03 0.  0.
          5    1    3    3  502    0 -0.42564149226E+02 -0.65687128062E+02 -0.86946755977E+02  0.11706287357E+03  0.41800000000E+01 0. -1.
         -5    1    3    3    0  502  0.90286573974E+02 -0.17459324586E+03 -0.20286384952E+03  0.28249899253E+03  0.41800000000E+01 0. -1.
        -11    1    1    2    0    0 -0.94906004878E+01  0.59684764459E+02 -0.28723840498E+03  0.29352724558E+03  0.00000000000E+00 0.  1.
         11    1    1    2    0    0 -0.38231824260E+02  0.18059560946E+03 -0.36728165942E+03  0.41106236010E+03  0.00000000000E+00 0. -1.
</event>
<event>
 7    1  0.2384639E-009  0.1493349E+03  0.7561462E-02  0.1201293E+00
         -2   -1    0    0    0  501 -0.00000000000E+00  0.00000000000E+00  0.26261798596E+02  0.26261798596E+02  0.00000000000E+00 0.  1.
          2   -1    0    0  501    0  0.00000000000E+00 -0.00000000000E+00 -0.11212709145E+04  0.11212709145E+04  0.00000000000E+00 0. -1.
         25    2    1    2    0    0  0.91671852416E+02 -0.83827314225E+02 -0.75209053620E+03  0.77247579341E+03  0.12509168488E+03 0.  0.
          5    1    3    3  502    0  0.61832772644E+02 -0.99245107726E+02 -0.70407026305E+03  0.71372634174E+03  0.41800000000E+01 0. -1.
         -5    1    3    3    0  502  0.29839079772E+02  0.15417793501E+02 -0.48020273143E+02  0.58749451664E+02  0.41800000000E+01 0. -1.
        -11    1    1    2    0    0 -0.34994813598E+02  0.84153730590E+02 -0.25138342387E+03  0.26739505072E+03  0.00000000000E+00 0.  1.
         11    1    1    2    0    0 -0.56677038818E+02 -0.32641636509E+00 -0.91535155838E+02  0.10766186897E+03  0.00000000000E+00 0. -1.
</event>
<event>
 7    1  0.2384639E-009  0.1033522E+03  0.7561462E-02  0.1273401E+00
          1   -1    0    0  501    0  0.00000000000E+00  0.00000000000E+00  0.17672299450E+03  0.17672299450E+03  0.00000000000E+00 0. -1.
         -1   -1    0    0    0  501 -0.00000000000E+00 -0.00000000000E+00 -0.70639264472E+02  0.70639264472E+02  0.00000000000E+00 0.  1.
         25    2    1    2    0    0 -0.27304865987E+01 -0.28603190666E+02  0.59722001065E+02  0.14156117824E+03  0.12508897514E+03 0.  0.
          5    1    3    3  502    0 -0.41622708658E+02  0.26892869096E+02  0.54020711018E+02  0.73426057385E+02  0.41800000000E+01 0. -1.
         -5    1    3    3    0  502  0.38892222060E+02 -0.55496059762E+02  0.57012900471E+01  0.68135120856E+02  0.41800000000E+01 0. -1.
        -11    1    1    2    0    0  0.16702914032E+01  0.58819195783E+02  0.47383511125E+02  0.75549220992E+02  0.00000000000E+00 0. -1.
         11    1    1    2    0    0  0.10601951955E+01 -0.30216005117E+02 -0.10217821588E+01  0.30251859742E+02  0.00000000000E+00 0.  1.
</event>
<event>
 7    1  0.2384639E-009  0.5952388E+02  0.7561462E-02  0.1399841E+00
         -1   -1    0    0    0  501 -0.00000000000E+00  0.00000000000E+00  0.23356217027E+02  0.23356217027E+02  0.00000000000E+00 0.  1.
          1   -1    0    0  501    0  0.00000000000E+00 -0.00000000000E+00 -0.58513209075E+03  0.58513209075E+03  0.00000000000E+00 0. -1.
         25    2    1    2    0    0 -0.12020919989E+02 -0.12485751508E+02 -0.43021502373E+03  0.44836654720E+03  0.12508875847E+03 0.  0.
          5    1    3    3  502    0 -0.10335388715E+02  0.17736124030E+02 -0.41253016825E+03  0.41306174172E+03  0.41800000000E+01 0.  1.
         -5    1    3    3    0  502 -0.16855312733E+01 -0.30221875538E+02 -0.17684855481E+02  0.35304805481E+02  0.41800000000E+01 0.  1.
        -11    1    1    2    0    0  0.28769957726E+02 -0.17155474167E+02 -0.11639591346E+02  0.35461258412E+02  0.00000000000E+00 0.  1.
         11    1    1    2    0    0 -0.16749037737E+02  0.29641225674E+02 -0.11992125865E+03  0.12466050216E+03  0.00000000000E+00 0. -1.
</event>
<event>
 7    1  0.2384639E-009  0.1101061E+03  0.7561462E-02  0.1260374E+00
         -1   -1    0    0    0  501 -0.00000000000E+00  0.00000000000E+00  0.10265916789E+03  0.10265916789E+03  0.00000000000E+00 0.  1.
          1   -1    0    0  501    0  0.00000000000E+00 -0.00000000000E+00 -0.17601926909E+03  0.17601926909E+03  0.00000000000E+00 0. -1.
         25    2    1    2    0    0  0.10718698024E+02  0.25598818672E+02  0.36479273886E+02  0.13322334751E+03  0.12509009910E+03 0.  0.
          5    1    3    3  502    0 -0.45070330287E+02 -0.25289186411E+02  0.21482683515E+02  0.56123575372E+02  0.41800000000E+01 0. -1.
         -5    1    3    3    0  502  0.55789028311E+02  0.50888005083E+02  0.14996590371E+02  0.77099772139E+02  0.41800000000E+01 0. -1.
        -11    1    1    2    0    0 -0.41322929788E+02 -0.41227319277E+02 -0.51984924901E+02  0.78164626257E+02  0.00000000000E+00 0.  1.
         11    1    1    2    0    0  0.30604231764E+02  0.15628500605E+02 -0.57854450182E+02  0.67290463209E+02  0.00000000000E+00 0. -1.
</event>
<event>
 7    1  0.2384639E-009  0.1007246E+03  0.7561462E-02  0.1278780E+00
         -1   -1    0    0    0  501 -0.00000000000E+00  0.00000000000E+00  0.60940048021E+02  0.60940048021E+02  0.00000000000E+00 0.  1.
          1   -1    0    0  501    0  0.00000000000E+00 -0.00000000000E+00 -0.21448452235E+03  0.21448452235E+03  0.00000000000E+00 0. -1.
         25    2    1    2    0    0  0.21991591828E+02  0.30442127879E+02 -0.98167986664E+02  0.16338335792E+03  0.12508722867E+03 0.  0.
          5    1    3    3  502    0  0.29705066730E+02 -0.41316179770E+02 -0.15059419362E+02  0.53232285426E+02  0.41800000000E+01 0. -1.
         -5    1    3    3    0  502 -0.77134749013E+01  0.71758307649E+02 -0.83108567302E+02  0.11015107249E+03  0.41800000000E+01 0. -1.
        -11    1    1    2    0    0  0.85440926874E+00  0.21415096342E+02  0.11550662954E+02  0.24346543517E+02  0.00000000000E+00 0.  1.
         11    1    1    2    0    0 -0.22846001097E+02 -0.51857224221E+02 -0.66927150617E+02  0.87694668936E+02  0.00000000000E+00 0. -1.
</event>
<event>
 7    1  0.2384639E-009  0.1082670E+03  0.7561462E-02  0.1263813E+00
         -1   -1    0    0    0  501 -0.00000000000E+00  0.00000000000E+00  0.10517631179E+03  0.10517631179E+03  0.00000000000E+00 0.  1.
          1   -1    0    0  501    0  0.00000000000E+00 -0.00000000000E+00 -0.27137284407E+03  0.27137284407E+03  0.00000000000E+00 0. -1.
         25    2    1    2    0    0 -0.74927752470E+02  0.17599906387E+02 -0.20114458982E+03  0.24905949325E+03  0.12509020894E+03 0.  0.
          5    1    3    3  502    0  0.29395262248E+02  0.15085692705E+02 -0.92708782671E+02  0.98509138415E+02  0.41800000000E+01 0. -1.
         -5    1    3    3    0  502 -0.10432301472E+03  0.25142136818E+01 -0.10843580715E+03  0.15055035484E+03  0.41800000000E+01 0. -1.
        -11    1    1    2    0    0  0.36459561507E+02 -0.17224051998E+02  0.66476696378E+02  0.77750361760E+02  0.00000000000E+00 0.  1.
         11    1    1    2    0    0  0.38468190963E+02 -0.37585438949E+00 -0.31528638836E+02  0.49739300853E+02  0.00000000000E+00 0. -1.
</event>
<event>
 7    1  0.2384639E-009  0.1177572E+03  0.7561462E-02  0.1246843E+00
         -2   -1    0    0    0  501 -0.00000000000E+00  0.00000000000E+00  0.77546276310E+02  0.77546276310E+02  0.00000000000E+00 0. -1.
          2   -1    0    0  501    0  0.00000000000E+00 -0.00000000000E+00 -0.19718742863E+03  0.19718742863E+03  0.00000000000E+00 0.  1.
         25    2    1    2    0    0  0.35458971400E+02  0.48563068569E+02 -0.42478093777E+02  0.14514817713E+03  0.12509154485E+03 0.  0.
          5    1    3    3  502    0 -0.43810471236E+02  0.13586114435E+01 -0.26591337405E+02  0.51437095952E+02  0.41800000000E+01 0. -1.
         -5    1    3    3    0  502  0.79269442636E+02  0.47204457125E+02 -0.15886756371E+02  0.93711081182E+02  0.41800000000E+01 0. -1.
        -11    1    1    2    0    0 -0.36369611627E+02 -0.69357617181E+02 -0.42370216055E+02  0.89041916643E+02  0.00000000000E+00 0.  1.
         11    1    1    2    0    0  0.91064022624E+00  0.20794548613E+02 -0.34792842488E+02  0.40543611161E+02  0.00000000000E+00 0. -1.
</event>
<event>
 7    1  0.2384639E-009  0.1088328E+03  0.7561462E-02  0.1262747E+00
          2   -1    0    0  501    0  0.00000000000E+00  0.00000000000E+00  0.66845190806E+02  0.66845190806E+02  0.00000000000E+00 0. -1.
         -2   -1    0    0    0  501 -0.00000000000E+00 -0.00000000000E+00 -0.19522771553E+03  0.19522771553E+03  0.00000000000E+00 0.  1.
         25    2    1    2    0    0  0.36430961792E+02 -0.66111222384E+01 -0.60736715759E+02  0.14389725733E+03  0.12508617074E+03 0.  0.
          5    1    3    3  502    0  0.10123580418E+02 -0.61946734087E+02 -0.89045605538E+01  0.63534623185E+02  0.41800000000E+01 0. -1.
         -5    1    3    3    0  502  0.26307381374E+02  0.55335611849E+02 -0.51832155205E+02  0.80362634144E+02  0.41800000000E+01 0. -1.
        -11    1    1    2    0    0 -0.64642923317E+02  0.14152753469E+01 -0.31193984595E+02  0.71789798817E+02  0.00000000000E+00 0. -1.
         11    1    1    2    0    0  0.28211961525E+02  0.51958468915E+01 -0.36451824375E+02  0.46385850195E+02  0.00000000000E+00 0.  1.
</event>
<event>
 7    1  0.2384639E-009  0.1304976E+03  0.7561462E-02  0.1226719E+00
          2   -1    0    0  501    0  0.00000000000E+00  0.00000000000E+00  0.17674956940E+03  0.17674956940E+03  0.00000000000E+00 0. -1.
         -2   -1    0    0    0  501 -0.00000000000E+00 -0.00000000000E+00 -0.13809116674E+03  0.13809116674E+03  0.00000000000E+00 0.  1.
         25    2    1    2    0    0 -0.86230054133E+02  0.53396169850E+02  0.70785396124E+02  0.17592197221E+03  0.12510473537E+03 0.  0.
          5    1    3    3  502    0 -0.81686231770E+02  0.86577902998E+02  0.29701047722E+02  0.12275177548E+03  0.41800000000E+01 0.  1.
         -5    1    3    3    0  502 -0.45438223631E+01 -0.33181733148E+02  0.41084348402E+02  0.53170196727E+02  0.41800000000E+01 0.  1.
        -11    1    1    2    0    0  0.47646085355E+02 -0.75869457488E+01  0.26552809426E+02  0.55070526453E+02  0.00000000000E+00 0. -1.
         11    1    1    2    0    0  0.38583968778E+02 -0.45809224101E+02 -0.58679802894E+02  0.83848237472E+02  0.00000000000E+00 0.  1.
</event>
<event>
 7    1  0.2384639E-009  0.1325529E+03  0.7561462E-02  0.1223716E+00
          1   -1    0    0  501    0  0.00000000000E+00  0.00000000000E+00  0.43050446086E+03  0.43050446086E+03  0.00000000000E+00 0. -1.
         -1   -1    0    0    0  501 -0.00000000000E+00 -0.00000000000E+00 -0.73436774709E+02  0.73436774709E+02  0.00000000000E+00 0.  1.
         25    2    1    2    0    0 -0.74797097883E+01  0.11733046904E+03  0.78137565905E+02  0.18861141569E+03  0.12508557830E+03 0.  0.
          5    1    3    3  502    0 -0.81836523066E+00  0.62707776653E+02 -0.28136808960E+02  0.68862815749E+02  0.41800000000E+01 0. -1.
         -5    1    3    3    0  502 -0.66613445577E+01  0.54622692387E+02  0.10627437486E+03  0.11974859994E+03  0.41800000000E+01 0. -1.
        -11    1    1    2    0    0 -0.40570959954E+02 -0.51289292630E+02  0.12553963502E+03  0.14155138393E+03  0.00000000000E+00 0.  1.
         11    1    1    2    0    0  0.48050669743E+02 -0.66041176410E+02  0.15339048522E+03  0.17377843595E+03  0.00000000000E+00 0. -1.
</event>
<event>
 7    1  0.2384639E-009  0.7953296E+02  0.7561462E-02  0.1330382E+00
          3   -1    0    0  501    0  0.00000000000E+00  0.00000000000E+00  0.15015383134E+03  0.15015383134E+03  0.00000000000E+00 0. -1.
         -3   -1    0    0    0  501 -0.00000000000E+00 -0.00000000000E+00 -0.93619011425E+02  0.93619011425E+02  0.00000000000E+00 0.  1.
         25    2    1    2    0    0 -0.35804510593E+02  0.29066640286E+02  0.45982013876E+02  0.14102337112E+03  0.12508562286E+03 0.  0.
          5    1    3    3  502    0 -0.60163277437E+02  0.11034835729E+00  0.72741189763E+02  0.94490132907E+02  0.41800000000E+01 0.  1.
         -5    1    3    3    0  502  0.24358766843E+02  0.28956291929E+02 -0.26759175886E+02  0.46533238212E+02  0.41800000000E+01 0.  1.
        -11    1    1    2    0    0  0.38511739429E+02 -0.78554679195E+01  0.46522829280E+02  0.60903498211E+02  0.00000000000E+00 0. -1.
         11    1    1    2    0    0 -0.27072288360E+01 -0.21211172367E+02 -0.35970023239E+02  0.41845973438E+02  0.00000000000E+00 0.  1.
</event>
<event>
 7    1  0.2384639E-009  0.1145705E+03  0.7561462E-02  0.1252333E+00
          2   -1    0    0  501    0  0.00000000000E+00  0.00000000000E+00  0.21190339551E+03  0.21190339551E+03  0.00000000000E+00 0. -1.
         -2   -1    0    0    0  501 -0.00000000000E+00 -0.00000000000E+00 -0.83003421204E+02  0.83003421204E+02  0.00000000000E+00 0.  1.
         25    2    1    2    0    0  0.25714028053E+02 -0.50851989829E+02  0.12347496493E+03  0.18477146075E+03  0.12508912676E+03 0.  0.
          5    1    3    3  502    0 -0.44663795693E+02 -0.25523009924E+02  0.87686479604E+02  0.10174807019E+03  0.41800000000E+01 0. -1.
         -5    1    3    3    0  502  0.70377823745E+02 -0.25328979905E+02  0.35788485329E+02  0.83023390561E+02  0.41800000000E+01 0. -1.
        -11    1    1    2    0    0  0.11526774184E+02 -0.19707876409E+02 -0.15569632825E+02  0.27634767629E+02  0.00000000000E+00 0.  1.
         11    1    1    2    0    0 -0.37240802237E+02  0.70559866238E+02  0.20994642197E+02  0.82500588336E+02  0.00000000000E+00 0. -1.
</event>
<event>
 7    1  0.2384639E-009  0.1275658E+03  0.7561462E-02  0.1231113E+00
          1   -1    0    0  501    0  0.00000000000E+00  0.00000000000E+00  0.15378993837E+03  0.15378993837E+03  0.00000000000E+00 0. -1.
         -1   -1    0    0    0  501 -0.00000000000E+00 -0.00000000000E+00 -0.13725423878E+03  0.13725423878E+03  0.00000000000E+00 0.  1.
         25    2    1    2    0    0 -0.71281196823E+02 -0.61844080587E+02 -0.87516522011E+01  0.15694073289E+03  0.12509237746E+03 0.  0.
          5    1    3    3  502    0 -0.75149001428E+02 -0.83350514346E+02 -0.39447409789E+02  0.11903046331E+03  0.41800000000E+01 0.  1.
         -5    1    3    3    0  502  0.38678046052E+01  0.21506433759E+02  0.30695757588E+02  0.37910269577E+02  0.41800000000E+01 0.  1.
        -11    1    1    2    0    0 -0.15894004107E+02  0.13762200113E+02  0.27385868787E+02  0.34525401196E+02  0.00000000000E+00 0. -1.
         11    1    1    2    0    0  0.87175200930E+02  0.48081880474E+02 -0.20985170024E+01  0.99578043066E+02  0.00000000000E+00 0.  1.
</event>
<event>
 7    1  0.2384639E-009  0.1440890E+03  0.7561462E-02  0.1207930E+00
          2   -1    0    0  501    0  0.00000000000E+00  0.00000000000E+00  0.39996644565E+02  0.39996644565E+02  0.00000000000E+00 0. -1.
         -2   -1    0    0    0  501 -0.00000000000E+00 -0.00000000000E+00 -0.70390942261E+03  0.70390942261E+03  0.00000000000E+00 0.  1.
         25    2    1    2    0    0 -0.10496573062E+03  0.28270226737E+02 -0.51777810021E+03  0.54365155614E+03  0.12508334470E+03 0.  0.
          5    1    3    3  502    0 -0.59046908157E+02 -0.38379480285E+02 -0.35348949937E+03  0.36046056710E+03  0.41800000000E+01 0.  1.
         -5    1    3    3    0  502 -0.45918822459E+02  0.66649707022E+02 -0.16428860083E+03  0.18319098904E+03  0.41800000000E+01 0.  1.
        -11    1    1    2    0    0 -0.30081031222E+01 -0.28453293395E+02 -0.36497221984E+02  0.46375487081E+02  0.00000000000E+00 0.  1.
         11    1    1    2    0    0  0.10797383374E+03  0.18306665799E+00 -0.10963745586E+03  0.15387902395E+03  0.00000000000E+00 0. -1.
</event>
<event>
 7    1  0.2384639E-009  0.9961410E+02  0.7561462E-02  0.1281110E+00
         -3   -1    0    0    0  501 -0.00000000000E+00  0.00000000000E+00  0.25487451485E+03  0.25487451485E+03  0.00000000000E+00 0.  1.
          3   -1    0    0  501    0  0.00000000000E+00 -0.00000000000E+00 -0.81584629207E+02  0.81584629207E+02  0.00000000000E+00 0. -1.
         25    2    1    2    0    0 -0.27054527260E+02  0.16775998324E+02  0.19775816767E+03  0.23615542429E+03  0.12509080693E+03 0.  0.
          5    1    3    3  502    0  0.39003404895E+02 -0.26833406286E+02  0.53549509769E+02  0.71598321788E+02  0.41800000000E+01 0.  1.
         -5    1    3    3    0  502 -0.66057932155E+02  0.43609404610E+02  0.14420865790E+03  0.16455710250E+03  0.41800000000E+01 0.  1.
        -11    1    1    2    0    0  0.28348876127E+00 -0.38167821331E+02  0.20846452268E+02  0.43490660184E+02  0.00000000000E+00 0.  1.
         11    1    1    2    0    0  0.26771038499E+02  0.21391823007E+02 -0.45314734298E+02  0.56813059576E+02  0.00000000000E+00 0. -1.
</event>
<event>
 7    1  0.2384639E-009  0.1119237E+03  0.7561462E-02  0.1257048E+00
          2   -1    0    0  501    0  0.00000000000E+00  0.00000000000E+00  0.21125791363E+03  0.21125791363E+03  0.00000000000E+00 0. -1.
         -2   -1    0    0    0  501 -0.00000000000E+00 -0.00000000000E+00 -0.73145907324E+02  0.73145907324E+02  0.00000000000E+00 0.  1.
         25    2    1    2    0    0  0.42452283552E+02  0.38979366051E+02  0.54590367255E+02  0.14815190380E+03  0.12508913241E+03 0.  0.
          5    1    3    3  502    0  0.16702868541E+02 -0.39612070610E+02 -0.85347671473E+01  0.44027452865E+02  0.41800000000E+01 0.  1.
         -5    1    3    3    0  502  0.25749415012E+02  0.78591436661E+02  0.63125134402E+02  0.10412445094E+03  0.41800000000E+01 0.  1.
        -11    1    1    2    0    0 -0.32320124842E+02 -0.63535238741E+02  0.31691049764E+02  0.78010509977E+02  0.00000000000E+00 0.  1.
         11    1    1    2    0    0 -0.10132158710E+02  0.24555872690E+02  0.51830589287E+02  0.58241407173E+02  0.00000000000E+00 0. -1.
</event>
<event>
 7    1  0.2384639E-009  0.1612127E+03  0.7561462E-02  0.1187334E+00
          2   -1    0    0  501    0  0.00000000000E+00  0.00000000000E+00  0.17590440012E+03  0.17590440012E+03  0.00000000000E+00 0. -1.
         -2   -1    0    0    0  501 -0.00000000000E+00 -0.00000000000E+00 -0.16387760565E+03  0.16387760565E+03  0.00000000000E+00 0.  1.
         25    2    1    2    0    0 -0.10016964558E+03 -0.62551727108E+02  0.59462254814E+02  0.18201543915E+03  0.12508870406E+03 0.  0.
          5    1    3    3  502    0 -0.12113884343E+01  0.33661945091E+02  0.11363463327E+02  0.35793780298E+02  0.41800000000E+01 0. -1.
         -5    1    3    3    0  502 -0.98958257144E+02 -0.96213672200E+02  0.48098791487E+02  0.14622165885E+03  0.41800000000E+01 0. -1.
        -11    1    1    2    0    0  0.62269648047E+02 -0.15027187768E+02 -0.22543873370E+02  0.67908406450E+02  0.00000000000E+00 0. -1.
         11    1    1    2    0    0  0.37899997531E+02  0.77578914876E+02 -0.24891586978E+02  0.89858160167E+02  0.00000000000E+00 0.  1.
</event>
<event>
 7    1  0.2384639E-009  0.1110995E+03  0.7561462E-02  0.1258547E+00
          2   -1    0    0  501    0  0.00000000000E+00  0.00000000000E+00  0.43771318456E+02  0.43771318456E+02  0.00000000000E+00 0. -1.
         -2   -1    0    0    0  501 -0.00000000000E+00 -0.00000000000E+00 -0.44131504587E+03  0.44131504587E+03  0.00000000000E+00 0.  1.
         25    2    1    2    0    0 -0.13602814319E+02 -0.74872394018E+02 -0.15301236749E+03  0.21178365494E+03  0.12509444412E+03 0.  0.
          5    1    3    3  502    0 -0.59529737165E+02 -0.50109351524E+01 -0.84726685244E+02  0.10375443446E+03  0.41800000000E+01 0. -1.
         -5    1    3    3    0  502  0.45926922846E+02 -0.69861458865E+02 -0.68285682250E+02  0.10802922048E+03  0.41800000000E+01 0. -1.
        -11    1    1    2    0    0  0.18230067876E+02  0.48210051827E+02 -0.24047857887E+03  0.24594001579E+03  0.00000000000E+00 0.  1.
         11    1    1    2    0    0 -0.46272535566E+01  0.26662342191E+02 -0.40527810516E+01  0.27362693596E+02  0.00000000000E+00 0. -1.
</event>
<event>
 7    1  0.2384639E-009  0.1022341E+03  0.7561462E-02  0.1275667E+00
          1   -1    0    0  501    0  0.00000000000E+00  0.00000000000E+00  0.36537751888E+03  0.36537751888E+03  0.00000000000E+00 0. -1.
         -1   -1    0    0    0  501 -0.00000000000E+00 -0.00000000000E+00 -0.71412634889E+02  0.71412634889E+02  0.00000000000E+00 0.  1.
         25    2    1    2    0    0  0.48179587886E+02  0.43730929989E+02  0.21865982724E+02  0.14267193459E+03  0.12507394930E+03 0.  0.
          5    1    3    3  502    0 -0.27698780294E+02  0.54769529514E+02  0.23527439834E+02  0.65863014038E+02  0.41800000000E+01 0. -1.
         -5    1    3    3    0  502  0.75878368180E+02 -0.11038599525E+02 -0.16614571100E+01  0.76808920555E+02  0.41800000000E+01 0. -1.
        -11    1    1    2    0    0 -0.95887050328E+01 -0.29921662749E+01 -0.51217724863E+01  0.11275144195E+02  0.00000000000E+00 0.  1.
         11    1    1    2    0    0 -0.38590882853E+02 -0.40738763714E+02  0.27722067375E+03  0.28284307498E+03  0.00000000000E+00 0. -1.
</event>
<event>
 7    1  0.2384639E-009  0.1168838E+03  0.7561462E-02  0.1248328E+00
         -1   -1    0    0    0  501 -0.00000000000E+00  0.00000000000E+00  0.49399124840E+03  0.49399124840E+03  0.00000000000E+00 0.  1.
          1   -1    0    0  501    0  0.00000000000E+00 -0.00000000000E+00 -0.32204502572E+02  0.32204502572E+02  0.00000000000E+00 0. -1.
         25    2    1    2    0    0 -0.10987713531E+02  0.63021834002E+02  0.27320727329E+03  0.30721823471E+03  0.12509335775E+03 0.  0.
          5    1    3    3  502    0 -0.48381990511E+02 -0.62290057553E+01  0.17263821058E+03  0.17944648693E+03  0.41800000000E+01 0.  1.
         -5    1    3    3    0  502  0.37394276980E+02  0.69250839758E+02  0.10056906271E+03  0.12777174779E+03  0.41800000000E+01 0.  1.
        -11    1    1    2    0    0 -0.13480419138E+02 -0.76759144132E+02  0.16439755907E+03  0.18193472823E+03  0.00000000000E+00 0. -1.
         11    1    1    2    0    0  0.24468132669E+02  0.13737310130E+02  0.24181913469E+02  0.37042788029E+02  0.00000000000E+00 0.  1.
</event>
<event>
 7    1  0.2384639E-009  0.8179560E+02  0.7561462E-02  0.1324032E+00
          1   -1    0    0  501    0  0.00000000000E+00  0.00000000000E+00  0.35267651587E+02  0.35267651587E+02  0.00000000000E+00 0. -1.
         -1   -1    0    0    0  501 -0.00000000000E+00 -0.00000000000E+00 -0.42759396828E+03  0.42759396828E+03  0.00000000000E+00 0.  1.
         25    2    1    2    0    0  0.18523340966E+02 -0.15396291051E+02 -0.31483765434E+03  0.33962866920E+03  0.12507887275E+03 0.  0.
          5    1    3    3  502    0  0.20114226933E+02 -0.65204949771E+02 -0.11644619617E+03  0.13503131711E+03  0.41800000000E+01 0.  1.
         -5    1    3    3    0  502 -0.15908859671E+01  0.49808658720E+02 -0.19839145818E+03  0.20459735208E+03  0.41800000000E+01 0.  1.
        -11    1    1    2    0    0 -0.30315451097E+01  0.26171660033E+02 -0.94329819451E+02  0.97940088280E+02  0.00000000000E+00 0.  1.
         11    1    1    2    0    0 -0.15491795856E+02 -0.10775368982E+02  0.16841157099E+02  0.25292862392E+02  0.00000000000E+00 0. -1.
</event>
<event>
 7    1  0.2614001E-009  0.1059598E+03  0.7561462E-02  0.1268240E+00
          1   -1    0    0  501    0  0.00000000000E+00  0.00000000000E+00  0.30215153492E+03  0.30215153492E+03  0.00000000000E+00 0. -1.
         -1   -1    0    0    0  501 -0.00000000000E+00 -0.00000000000E+00 -0.84989397034E+02  0.84989397034E+02  0.00000000000E+00 0.  1.
         25    2    1    2    0    0  0.52033908703E+02 -0.49364585899E+02  0.22823971630E+03  0.26997241243E+03  0.12508934958E+03 0.  0.
          5    1    3    3  502    0  0.22575039980E+02 -0.88164519769E+02  0.17745643161E+03  0.19947649610E+03  0.41800000000E+01 0. -1.
         -5    1    3    3    0  502  0.29458868723E+02  0.38799933870E+02  0.50783284694E+02  0.70495916329E+02  0.41800000000E+01 0. -1.
        -11    1    1    2    0    0 -0.16749203943E+02  0.19385671511E+02 -0.50325606957E+02  0.56471291894E+02  0.00000000000E+00 0.  1.
         11    1    1    2    0    0 -0.35284704759E+02  0.29978914388E+02  0.39248028539E+02  0.60697227631E+02  0.00000000000E+00 0. -1.
</event>
<event>
 7    1  0.2384639E-009  0.9835254E+02  0.7561462E-02  0.1283799E+00
         -1   -1    0    0    0  501 -0.00000000000E+00  0.00000000000E+00  0.30028353800E+02  0.30028353800E+02  0.00000000000E+00 0.  1.
          1   -1    0    0  501    0  0.00000000000E+00 -0.00000000000E+00 -0.55843038811E+03  0.55843038811E+03  0.00000000000E+00 0. -1.
         25    2    1    2    0    0  0.69032495145E+02 -0.11104019590E+02 -0.27831318198E+03  0.31304201451E+03  0.12509312910E+03 0.  0.
          5    1    3    3  502    0  0.11788936087E+01 -0.45377291967E+02 -0.19468070886E+03  0.19994634084E+03  0.41800000000E+01 0.  1.
         -5    1    3    3    0  502  0.67853601536E+02  0.34273272377E+02 -0.83632473122E+02  0.11309567366E+03  0.41800000000E+01 0.  1.
        -11    1    1    2    0    0 -0.35945348947E+02  0.19441250372E+02 -0.23426859526E+03  0.23780623426E+03  0.00000000000E+00 0. -1.
         11    1    1    2    0    0 -0.33087146197E+02 -0.83372307825E+01 -0.15820257068E+02  0.37610493141E+02  0.00000000000E+00 0.  1.
</event>
<event>
 7    1  0.2384639E-009  0.1132773E+03  0.7561462E-02  0.1254618E+00
          1   -1    0    0  501    0  0.00000000000E+00  0.00000000000E+00  0.16446320719E+03  0.16446320719E+03  0.00000000000E+00 0. -1.
         -1   -1    0    0    0  501 -0.00000000000E+00 -0.00000000000E+00 -0.14816507480E+03  0.14816507480E+03  0.00000000000E+00 0.  1.
         25    2    1    2    0    0 -0.11006558687E+02  0.68799201418E+02  0.95768192897E+02  0.17226241804E+03  0.12509324301E+03 0.  0.
          5    1    3    3  502    0 -0.13688656157E+02 -0.18563983270E+02 -0.17412135457E+02  0.29200267865E+02  0.41800000000E+01 0.  1.
         -5    1    3    3    0  502  0.26820974693E+01  0.87363184688E+02  0.11318032835E+03  0.14306215017E+03  0.41800000000E+01 0.  1.
        -11    1    1    2    0    0  0.16976343868E+02 -0.91025771259E+02 -0.65859016787E+02  0.11362788996E+03  0.00000000000E+00 0.  1.
         11    1    1    2    0    0 -0.59697851809E+01  0.22226569841E+02 -0.13611043725E+02  0.26737973993E+02  0.00000000000E+00 0. -1.
</event>
<event>
 7    1  0.2384639E-009  0.1214521E+03  0.7561462E-02  0.1240721E+00
         -2   -1    0    0    0  501 -0.00000000000E+00  0.00000000000E+00  0.17530468982E+03  0.17530468982E+03  0.00000000000E+00 0.  1.
          2   -1    0    0  501    0  0.00000000000E+00 -0.00000000000E+00 -0.13165793539E+03  0.13165793539E+03  0.00000000000E+00 0. -1.
         25    2    1    2    0    0 -0.16352077421E+02 -0.97153274876E+02 -0.14396794517E+02  0.15987693060E+03  0.12508883240E+03 0.  0.
          5    1    3    3  502    0 -0.51535256793E+02 -0.26908788566E+02 -0.46840120645E+02  0.74775897834E+02  0.41800000000E+01 0. -1.
         -5    1    3    3    0  502  0.35183179372E+02 -0.70244486310E+02  0.32443326128E+02  0.85101032767E+02  0.41800000000E+01 0. -1.
        -11    1    1    2    0    0 -0.82131100970E+01  0.64808481098E+02  0.78073852146E+02  0.10179941448E+03  0.00000000000E+00 0.  1.
         11    1    1    2    0    0  0.24565187518E+02  0.32344793778E+02 -0.20030303197E+02  0.45286280136E+02  0.00000000000E+00 0. -1.
</event>
<event>
 7    1  0.2384639E-009  0.1087498E+03  0.7561462E-02  0.1262903E+00
         -2   -1    0    0    0  501 -0.00000000000E+00  0.00000000000E+00  0.48695863492E+02  0.48695863492E+02  0.00000000000E+00 0.  1.
          2   -1    0    0  501    0  0.00000000000E+00 -0.00000000000E+00 -0.35964866044E+03  0.35964866044E+03  0.00000000000E+00 0. -1.
         25    2    1    2    0    0 -0.41402326999E+02 -0.61986700894E+02 -0.18581035173E+03  0.23607441604E+03  0.12509652006E+03 0.  0.
          5    1    3    3  502    0 -0.84458445277E+02 -0.32483176180E+02 -0.13856933499E+03  0.16555155908E+03  0.41800000000E+01 0.  1.
         -5    1    3    3    0  502  0.43056118279E+02 -0.29503524715E+02 -0.47241016736E+02  0.70522856962E+02  0.41800000000E+01 0.  1.
        -11    1    1    2    0    0  0.26864311554E+02  0.39179710432E+02 -0.13528584568E+03  0.14338410298E+03  0.00000000000E+00 0. -1.
         11    1    1    2    0    0  0.14538015445E+02  0.22806990462E+02  0.10143400461E+02  0.28886004914E+02  0.00000000000E+00 0.  1.
</event>
<event>
 7    1  0.2384639E-009  0.1242885E+03  0.7561462E-02  0.1236185E+00
         -1   -1    0    0    0  501 -0.00000000000E+00  0.00000000000E+00  0.52045139736E+02  0.52045139736E+02  0.00000000000E+00 0.  1.
          1   -1    0    0  501    0  0.00000000000E+00 -0.00000000000E+00 -0.33645495606E+03  0.33645495606E+03  0.00000000000E+00 0. -1.
         25    2    1    2    0    0 -0.32816641747E+02 -0.66063032751E+02 -0.18724028374E+03  0.23695401773E+03  0.12508807452E+03 0.  0.
          5    1    3    3  502    0  0.23524410745E+02 -0.71653420250E+02 -0.56205966692E+02  0.94149846661E+02  0.41800000000E+01 0.  1.
         -5    1    3    3    0  502 -0.56341052493E+02  0.55903874988E+01 -0.13103431705E+03  0.14280417107E+03  0.41800000000E+01 0.  1.
        -11    1    1    2    0    0 -0.12980563136E+02  0.69163626108E+02 -0.57405002842E+02  0.90815398183E+02  0.00000000000E+00 0.  1.
         11    1    1    2    0    0  0.45797204883E+02 -0.31005933571E+01 -0.39764529734E+02  0.60730679885E+02  0.00000000000E+00 0. -1.
</event>
<event>
 7    1  0.2384639E-009  0.1316631E+03  0.7561462E-02  0.1225009E+00
          4   -1    0    0  501    0  0.00000000000E+00  0.00000000000E+00  0.52932363988E+03  0.52932363988E+03  0.00000000000E+00 0. -1.
         -4   -1    0    0    0  501 -0.00000000000E+00 -0.00000000000E+00 -0.42965285844E+02  0.42965285844E+02  0.00000000000E+00 0.  1.
         25    2    1    2    0    0 -0.98007970014E+02  0.41061588510E+02  0.29735899481E+03  0.33964909005E+03  0.12509003292E+03 0.  0.
          5    1    3    3  502    0 -0.12435215464E+02 -0.27856444257E+02  0.16372138791E+03  0.16659166044E+03  0.41800000000E+01 0. -1.
         -5    1    3    3    0  502 -0.85572754550E+02  0.68918032767E+02  0.13363760691E+03  0.17305742960E+03  0.41800000000E+01 0. -1.
        -11    1    1    2    0    0  0.40178567499E+02  0.14179569127E+02  0.11886099272E+03  0.12626683277E+03  0.00000000000E+00 0. -1.
         11    1    1    2    0    0  0.57829402514E+02 -0.55241157637E+02  0.70138366503E+02  0.10637300291E+03  0.00000000000E+00 0.  1.
</event>
<event>
 7    1  0.2384639E-009  0.1302850E+03  0.7561462E-02  0.1227033E+00
         -2   -1    0    0    0  501 -0.00000000000E+00  0.00000000000E+00  0.38392352069E+02  0.38392352069E+02  0.00000000000E+00 0.  1.
          2   -1    0    0  501    0  0.00000000000E+00 -0.00000000000E+00 -0.63084195549E+03  0.63084195549E+03  0.00000000000E+00 0. -1.
         25    2    1    2    0    0  0.79641037213E+02  0.73163553108E+02 -0.26819532131E+03  0.31507498149E+03  0.12509161954E+03 0.  0.
          5    1    3    3  502    0 -0.12059203655E+02 -0.12768115488E+02  0.87463989315E+00  0.18074472630E+02  0.41800000000E+01 0.  1.
         -5    1    3    3    0  502  0.91700240868E+02  0.85931668596E+02 -0.26906996120E+03  0.29700050886E+03  0.41800000000E+01 0.  1.
        -11    1    1    2    0    0 -0.15497328110E+02 -0.43360852860E+02 -0.23895179939E+03  0.24334809054E+03  0.00000000000E+00 0.  1.
         11    1    1    2    0    0 -0.64143709104E+02 -0.29802700248E+02 -0.85302482717E+02  0.11081123552E+03  0.00000000000E+00 0. -1.
</event>
<event>
 7    1  0.2384639E-009  0.1135430E+03  0.7561462E-02  0.1254146E+00
          4   -1    0    0  501    0  0.00000000000E+00  0.00000000000E+00  0.18230568973E+03  0.18230568973E+03  0.00000000000E+00 0. -1.
         -4   -1    0    0    0  501 -0.00000000000E+00 -0.00000000000E+00 -0.97534238498E+02  0.97534238498E+02  0.00000000000E+00 0.  1.
         25    2    1    2    0    0  0.24195699290E+02  0.72576960516E+02  0.58955307064E+02  0.15803897543E+03  0.12509093677E+03 0.  0.
          5    1    3    3  502    0  0.51697795230E+02  0.49667415964E+01  0.66567680422E+02  0.84534365973E+02  0.41800000000E+01 0.  1.
         -5    1    3    3    0  502 -0.27502095940E+02  0.67610218920E+02 -0.76123733573E+01  0.73504609458E+02  0.41800000000E+01 0.  1.
        -11    1    1    2    0    0 -0.40400400672E+02 -0.75288204881E+02 -0.63531244547E+01  0.85678867634E+02  0.00000000000E+00 0.  1.
         11    1    1    2    0    0  0.16204701382E+02  0.27112443648E+01  0.32169268626E+02  0.36122085167E+02  0.00000000000E+00 0. -1.
</event>
<event>
 7    1  0.2830421E-009  0.1643942E+03  0.7561462E-02  0.1183823E+00
         -1   -1    0    0    0  501 -0.00000000000E+00  0.00000000000E+00  0.15362827803E+02  0.15362827803E+02  0.00000000000E+00 0.  1.
          1   -1    0    0  501    0  0.00000000000E+00 -0.00000000000E+00 -0.20889787646E+04  0.20889787646E+04  0.00000000000E+00 0. -1.
         25    2    1    2    0    0  0.12494286039E+03 -0.56581632070E+02 -0.13256508793E+04  0.13385851262E+04  0.12509071391E+03 0.  0.
          5    1    3    3  502    0  0.13938907736E+03 -0.56884183523E+02 -0.88839699799E+03  0.90107259622E+03  0.41800000000E+01 0. -1.
         -5    1    3    3    0  502 -0.14446216976E+02  0.30255145265E+00 -0.43725388132E+03  0.43751252994E+03  0.41800000000E+01 0. -1.
        -11    1    1    2    0    0 -0.27684087191E+02 -0.24151734810E+02 -0.20564028618E+03  0.20889624764E+03  0.00000000000E+00 0.  1.
         11    1    1    2    0    0 -0.97258773194E+02  0.80733366880E+02 -0.54232477129E+03  0.55686021859E+03  0.00000000000E+00 0. -1.
</event>
<event>
 7    1  0.2384639E-009  0.1540658E+03  0.7561462E-02  0.1195564E+00
          1   -1    0    0  501    0  0.00000000000E+00  0.00000000000E+00  0.39181653217E+02  0.39181653217E+02  0.00000000000E+00 0. -1.
         -1   -1    0    0    0  501 -0.00000000000E+00 -0.00000000000E+00 -0.90516556241E+03  0.90516556241E+03  0.00000000000E+00 0.  1.
         25    2    1    2    0    0  0.78172301814E+02  0.11724749425E+03 -0.63154132579E+03  0.65905227530E+03  0.12509025431E+03 0.  0.
          5    1    3    3  502    0  0.43574812319E+01 -0.14610397335E+02 -0.85312592745E+01  0.17964023430E+02  0.41800000000E+01 0. -1.
         -5    1    3    3    0  502  0.73814820582E+02  0.13185789158E+03 -0.62301006652E+03  0.64108825187E+03  0.41800000000E+01 0. -1.
        -11    1    1    2    0    0 -0.46151861123E+02 -0.76281754381E+02 -0.20938601448E+03  0.22757724710E+03  0.00000000000E+00 0.  1.
         11    1    1    2    0    0 -0.32020440691E+02 -0.40965739868E+02 -0.25056568920E+02  0.57717693223E+02  0.00000000000E+00 0. -1.
</event>
<event>
 7    1  0.2384639E-009  0.1938424E+03  0.7561462E-02  0.1155041E+00
         -2   -1    0    0    0  501 -0.00000000000E+00  0.00000000000E+00  0.80757237465E+02  0.80757237465E+02  0.00000000000E+00 0. -1.
          2   -1    0    0  501    0  0.00000000000E+00 -0.00000000000E+00 -0.56656000917E+03  0.56656000917E+03  0.00000000000E+00 0.  1.
         25    2    1    2    0    0  0.14048457595E+03 -0.11946439242E+03 -0.26362434133E+03  0.34518003155E+03  0.12507519221E+03 0.  0.
          5    1    3    3  502    0  0.10517303928E+03 -0.10732277073E+03 -0.10803422041E+03  0.18511728846E+03  0.41800000000E+01 0.  1.
         -5    1    3    3    0  502  0.35311536672E+02 -0.12141621692E+02 -0.15559012092E+03  0.16006274310E+03  0.41800000000E+01 0.  1.
        -11    1    1    2    0    0 -0.13637251700E+03  0.75981626153E+02 -0.19824594261E+03  0.25233336020E+03  0.00000000000E+00 0.  1.
         11    1    1    2    0    0 -0.41120589441E+01  0.43482766265E+02 -0.23932487766E+02  0.49803854886E+02  0.00000000000E+00 0. -1.
</event>
<event>
 7    1  0.2384639E-009  0.1434162E+03  0.7561462E-02  0.1208805E+00
          2   -1    0    0  501    0  0.00000000000E+00  0.00000000000E+00  0.88735898356E+03  0.88735898356E+03  0.00000000000E+00 0. -1.
         -2   -1    0    0    0  501 -0.00000000000E+00 -0.00000000000E+00 -0.25645655416E+02  0.25645655416E+02  0.00000000000E+00 0.  1.
         25    2    1    2    0    0  0.80111290821E+02 -0.66939902019E+02  0.44605468600E+03  0.47487878964E+03  0.12508522114E+03 0.  0.
          5    1    3    3  502    0 -0.14817666849E+02 -0.49371108879E+02  0.72674919419E+02  0.89197454870E+02  0.41800000000E+01 0. -1.
         -5    1    3    3    0  502  0.94928957670E+02 -0.17568793140E+02  0.37337976659E+03  0.38568133477E+03  0.41800000000E+01 0. -1.
        -11    1    1    2    0    0 -0.91914589584E+02  0.79299375833E+02  0.36222813408E+03  0.38202866895E+03  0.00000000000E+00 0. -1.
         11    1    1    2    0    0  0.11803298762E+02 -0.12359473814E+02  0.53430508059E+02  0.56097180375E+02  0.00000000000E+00 0.  1.
</event>
<event>
 7    1  0.2384639E-009  0.2337874E+03  0.7561462E-02  0.1124002E+00
          3   -1    0    0  501    0  0.00000000000E+00  0.00000000000E+00  0.11969560946E+03  0.11969560946E+03  0.00000000000E+00 0. -1.
         -3   -1    0    0    0  501 -0.00000000000E+00 -0.00000000000E+00 -0.53762078878E+03  0.53762078878E+03  0.00000000000E+00 0.  1.
         25    2    1    2    0    0 -0.19323480793E+03 -0.10324666277E+03 -0.29950981865E+03  0.39160312009E+03  0.12508919948E+03 0.  0.
          5    1    3    3  502    0  0.77955836665E+01 -0.24044374479E+02 -0.78151699071E+02  0.82243927049E+02  0.41800000000E+01 0.  1.
         -5    1    3    3    0  502 -0.20103039159E+03 -0.79202288294E+02 -0.22135811958E+03  0.30935919304E+03  0.41800000000E+01 0.  1.
        -11    1    1    2    0    0  0.10607067320E+03  0.25610492813E+02 -0.15726048872E+02  0.11024605965E+03  0.00000000000E+00 0. -1.
         11    1    1    2    0    0  0.87164134727E+02  0.77636169960E+02 -0.10268931180E+03  0.15546721850E+03  0.00000000000E+00 0.  1.
</event>
<event>
 7    1  0.2384639E-009  0.1256752E+03  0.7561462E-02  0.1234018E+00
         -1   -1    0    0    0  501 -0.00000000000E+00  0.00000000000E+00  0.42722359407E+02  0.42722359407E+02  0.00000000000E+00 0.  1.
          1   -1    0    0  501    0  0.00000000000E+00 -0.00000000000E+00 -0.47101270889E+03  0.47101270889E+03  0.00000000000E+00 0. -1.
         25    2    1    2    0    0  0.85863315724E+02  0.18931837193E+02 -0.19683647242E+03  0.24925305645E+03  0.12510621818E+03 0.  0.
          5    1    3    3  502    0  0.54437409033E+02 -0.33853359194E+02 -0.17065144183E+03  0.18234272245E+03  0.41800000000E+01 0.  1.
         -5    1    3    3    0  502  0.31425906691E+02  0.52785196386E+02 -0.26185030592E+02  0.66910334000E+02  0.41800000000E+01 0.  1.
        -11    1    1    2    0    0 -0.94321984698E+02  0.10506845424E+02 -0.19499667601E+03  0.21686570557E+03  0.00000000000E+00 0. -1.
         11    1    1    2    0    0  0.84586689741E+01 -0.29438682617E+02 -0.36457201047E+02  0.47616306274E+02  0.00000000000E+00 0.  1.
</event>
<event>
 7    1  0.2384639E-009  0.1395669E+03  0.7561462E-02  0.1213913E+00
         -2   -1    0    0    0  501 -0.00000000000E+00  0.00000000000E+00  0.46028323190E+02  0.46028323190E+02  0.00000000000E+00 0.  1.
          2   -1    0    0  501    0  0.00000000000E+00 -0.00000000000E+00 -0.59029766828E+03  0.59029766828E+03  0.00000000000E+00 0. -1.
         25    2    1    2    0    0  0.58701775104E+02  0.10472760580E+03 -0.34699328461E+03  0.38789899813E+03  0.12509006103E+03 0.  0.
          5    1    3    3  502    0  0.12186043162E+02  0.82638825954E+02 -0.31766654457E+03  0.32849228475E+03  0.41800000000E+01 0.  1.
         -5    1    3    3    0  502  0.46515731942E+02  0.22088779843E+02 -0.29326740042E+02  0.59406713379E+02  0.41800000000E+01 0.  1.
        -11    1    1    2    0    0 -0.65767855493E+02 -0.36454020852E+02 -0.14047206838E+03  0.15933206974E+03  0.00000000000E+00 0. -1.
         11    1    1    2    0    0  0.70660803885E+01 -0.68273584945E+02 -0.56803992108E+02  0.89094923608E+02  0.00000000000E+00 0.  1.
</event>
<event>
 7    1  0.2384639E-009  0.1445190E+03  0.7561462E-02  0.1207374E+00
          2   -1    0    0  501    0  0.00000000000E+00  0.00000000000E+00  0.21462041212E+03  0.21462041212E+03  0.00000000000E+00 0. -1.
         -2   -1    0    0    0  501 -0.00000000000E+00 -0.00000000000E+00 -0.14195040383E+03  0.14195040383E+03  0.00000000000E+00 0.  1.
         25    2    1    2    0    0  0.78228096910E+02 -0.11777351252E+03  0.57206374339E+02  0.19725635244E+03  0.12508902397E+03 0.  0.
          5    1    3    3  502    0  0.31524144458E+02 -0.19518255043E+02 -0.37541875804E+02  0.52930131330E+02  0.41800000000E+01 0. -1.
         -5    1    3    3    0  502  0.46703952451E+02 -0.98255257476E+02  0.94748250142E+02  0.14432622111E+03  0.41800000000E+01 0. -1.
        -11    1    1    2    0    0 -0.34891906818E+02  0.34987407242E+02 -0.27409833789E+02  0.56505422883E+02  0.00000000000E+00 0.  1.
         11    1    1    2    0    0 -0.43336190092E+02  0.82786105277E+02  0.42873467740E+02  0.10280904063E+03  0.00000000000E+00 0. -1.
</event>
<event>
 7    1  0.2384639E-009  0.1552089E+03  0.7561462E-02  0.1194215E+00
          2   -1    0    0  501    0  0.00000000000E+00  0.00000000000E+00  0.10028384513E+04  0.10028384513E+04  0.00000000000E+00 0. -1.
         -2   -1    0    0    0  501 -0.00000000000E+00 -0.00000000000E+00 -0.35154245787E+02  0.35154245787E+02  0.00000000000E+00 0.  1.
         25    2    1    2    0    0  0.75898162463E+02  0.12766094577E+03  0.71701197827E+03  0.74283922910E+03  0.12508435219E+03 0.  0.
          5    1    3    3  502    0  0.82036679003E+02  0.12055467472E+03  0.40184638075E+03  0.42750606127E+03  0.41800000000E+01 0. -1.
         -5    1    3    3    0  502 -0.61385165400E+01  0.71062710522E+01  0.31516559752E+03  0.31533316783E+03  0.41800000000E+01 0. -1.
        -11    1    1    2    0    0 -0.71057600669E+02 -0.82681976159E+02  0.15713526535E+03  0.19125110042E+03  0.00000000000E+00 0.  1.
         11    1    1    2    0    0 -0.48405617938E+01 -0.44978969615E+02  0.93536961857E+02  0.10390236754E+03  0.00000000000E+00 0. -1.
</event>
<event>
 7    1  0.2384639E-009  0.1690176E+03  0.7561462E-02  0.1178876E+00
         -2   -1    0    0    0  501 -0.00000000000E+00  0.00000000000E+00  0.31916213247E+02  0.31916213247E+02  0.00000000000E+00 0.  1.
          2   -1    0    0  501    0  0.00000000000E+00 -0.00000000000E+00 -0.10386593996E+04  0.10386593996E+04  0.00000000000E+00 0. -1.
         25    2    1    2    0    0 -0.14012716676E+03  0.76039569793E+01 -0.42923803009E+03  0.46860017928E+03  0.12508956200E+03 0.  0.
          5    1    3    3  502    0 -0.10207416175E+03 -0.53244499634E+02 -0.28611565732E+03  0.30843759985E+03  0.41800000000E+01 0.  1.
         -5    1    3    3    0  502 -0.38053005012E+02  0.60848456613E+02 -0.14312237277E+03  0.16016257943E+03  0.41800000000E+01 0.  1.
        -11    1    1    2    0    0  0.54620123365E+02 -0.30319260020E+02 -0.11298918688E+03  0.12910914668E+03  0.00000000000E+00 0. -1.
         11    1    1    2    0    0  0.85507043393E+02  0.22715303041E+02 -0.46451596938E+03  0.47286628688E+03  0.00000000000E+00 0.  1.
</event>
<event>
 7    1  0.2384639E-009  0.1232194E+03  0.7561462E-02  0.1237879E+00
          2   -1    0    0  501    0  0.00000000000E+00  0.00000000000E+00  0.45237892713E+02  0.45237892713E+02  0.00000000000E+00 0. -1.
         -2   -1    0    0    0  501 -0.00000000000E+00 -0.00000000000E+00 -0.82608544556E+03  0.82608544556E+03  0.00000000000E+00 0.  1.
         25    2    1    2    0    0  0.85687133584E+02 -0.75565327956E+02 -0.16034239168E+03  0.23325805335E+03  0.12508890131E+03 0.  0.
          5    1    3    3  502    0  0.22222921783E+02 -0.14766043173E+02  0.19320969059E+02  0.33206423007E+02  0.41800000000E+01 0. -1.
         -5    1    3    3    0  502  0.63464211802E+02 -0.60799284783E+02 -0.17966336074E+03  0.20005163034E+03  0.41800000000E+01 0. -1.
        -11    1    1    2    0    0 -0.75199541506E+01 -0.11939984356E+02 -0.12528718201E+02  0.18870127626E+02  0.00000000000E+00 0.  1.
         11    1    1    2    0    0 -0.78167179434E+02  0.87505312312E+02 -0.60797644296E+03  0.61919515730E+03  0.00000000000E+00 0. -1.
</event>
<event>
 7    1  0.2384639E-009  0.1930682E+03  0.7561462E-02  0.1155723E+00
          2   -1    0    0  501    0  0.00000000000E+00  0.00000000000E+00  0.85190008067E+03  0.85190008067E+03  0.00000000000E+00 0. -1.
         -2   -1    0    0    0  501 -0.00000000000E+00 -0.00000000000E+00 -0.61209970653E+02  0.61209970653E+02  0.00000000000E+00 0.  1.
         25    2    1    2    0    0 -0.12862166882E+03 -0.11898149713E+03  0.60353145202E+03  0.64077903464E+03  0.12508967704E+03 0.  0.
          5    1    3    3  502    0  0.57368225680E+01 -0.64145530741E+02  0.12452046485E+03  0.14025112767E+03  0.41800000000E+01 0. -1.
         -5    1    3    3    0  502 -0.13435849138E+03 -0.54835966391E+02  0.47901098718E+03  0.50052790697E+03  0.41800000000E+01 0. -1.
        -11    1    1    2    0    0  0.11776083403E+03  0.99726991499E+02  0.10352213455E+03  0.18582227856E+03  0.00000000000E+00 0.  1.
         11    1    1    2    0    0  0.10860834783E+02  0.19254505634E+02  0.83636523440E+02  0.86508738128E+02  0.00000000000E+00 0. -1.
</event>
<event>
 7    1  0.2384639E-009  0.1380882E+03  0.7561462E-02  0.1215925E+00
         -2   -1    0    0    0  501 -0.00000000000E+00  0.00000000000E+00  0.75075522670E+03  0.75075522670E+03  0.00000000000E+00 0.  1.
          2   -1    0    0  501    0  0.00000000000E+00 -0.00000000000E+00 -0.35662770517E+02  0.35662770517E+02  0.00000000000E+00 0. -1.
         25    2    1    2    0    0  0.10989571812E+03  0.47684993955E+02  0.35041242641E+03  0.39088454022E+03  0.12510366778E+03 0.  0.
          5    1    3    3  502    0  0.11569063873E+03  0.48660205409E+02  0.17537632086E+03  0.21569994390E+03  0.41800000000E+01 0.  1.
         -5    1    3    3    0  502 -0.57949206085E+01 -0.97521145346E+00  0.17503610555E+03  0.17518459632E+03  0.41800000000E+01 0.  1.
        -11    1    1    2    0    0 -0.38106411995E+02  0.21444116678E+02  0.55307528237E+02  0.70504407344E+02  0.00000000000E+00 0. -1.
         11    1    1    2    0    0 -0.71789306127E+02 -0.69129110634E+02  0.30937250154E+03  0.32502904965E+03  0.00000000000E+00 0.  1.
</event>
<event>
 7    1  0.2384639E-009  0.1374538E+03  0.7561462E-02  0.1216797E+00
          2   -1    0    0  501    0  0.00000000000E+00  0.00000000000E+00  0.14696542850E+04  0.14696542850E+04  0.00000000000E+00 0. -1.
         -2   -1    0    0    0  501 -0.00000000000E+00 -0.00000000000E+00 -0.15977403712E+02  0.15977403712E+02  0.00000000000E+00 0.  1.
         25    2    1    2    0    0  0.46399103622E+02  0.95781003134E+02  0.85879308023E+03  0.87435531909E+03  0.12507914288E+03 0.  0.
          5    1    3    3  502    0 -0.23628802081E+02  0.75872163420E+02  0.28341828050E+03  0.29437781777E+03  0.41800000000E+01 0. -1.
         -5    1    3    3    0  502  0.70027905703E+02  0.19908839714E+02  0.57537479973E+03  0.57997750132E+03  0.41800000000E+01 0. -1.
        -11    1    1    2    0    0 -0.14566319107E+02  0.60090448639E+01  0.15305185211E+02  0.21966678557E+02  0.00000000000E+00 0.  1.
         11    1    1    2    0    0 -0.31832784516E+02 -0.10179004800E+03  0.57957861586E+03  0.58930969108E+03  0.00000000000E+00 0. -1.
</event>
<event>
 7    1  0.2384639E-009  0.1064886E+03  0.7561462E-02  0.1267214E+00
          1   -1    0    0  501    0  0.00000000000E+00  0.00000000000E+00  0.22426264221E+03  0.22426264221E+03  0.00000000000E+00 0. -1.
         -1   -1    0    0    0  501 -0.00000000000E+00 -0.00000000000E+00 -0.64982823407E+02  0.64982823407E+02  0.00000000000E+00 0.  1.
         25    2    1    2    0    0  0.32952096632E+02 -0.50778849105E+02  0.91544371377E+02  0.16641285795E+03  0.12509410526E+03 0.  0.
          5    1    3    3  502    0  0.51008564389E+01  0.41163558590E+02  0.18263879194E+02  0.45513722935E+02  0.41800000000E+01 0.  1.
         -5    1    3    3    0  502  0.27851240193E+02 -0.91942407695E+02  0.73280492183E+02  0.12089913502E+03  0.41800000000E+01 0.  1.
        -11    1    1    2    0    0 -0.41846330361E+02  0.27150145825E+02 -0.70140043032E+00  0.49887250330E+02  0.00000000000E+00 0.  1.
         11    1    1    2    0    0  0.88942337286E+01  0.23628703280E+02  0.68436847860E+02  0.72945357339E+02  0.00000000000E+00 0. -1.
</event>
<event>
 7    1  0.2384639E-009  0.7867410E+02  0.7561462E-02  0.1332857E+00
          2   -1    0    0  501    0  0.00000000000E+00  0.00000000000E+00  0.60852986783E+03  0.60852986783E+03  0.00000000000E+00 0. -1.
         -2   -1    0    0    0  501 -0.00000000000E+00 -0.00000000000E+00 -0.21001497392E+02  0.21001497392E+02  0.00000000000E+00 0.  1.
         25    2    1    2    0    0 -0.29660793763E+02  0.46793452029E+01  0.35795186258E+03  0.38036655508E+03  0.12509005294E+03 0.  0.
          5    1    3    3  502    0  0.74699448999E+01 -0.22111731275E+02  0.47464054030E+01  0.24181180721E+02  0.41800000000E+01 0.  1.
         -5    1    3    3    0  502 -0.37130738663E+02  0.26791076478E+02  0.35320545717E+03  0.35618537436E+03  0.41800000000E+01 0.  1.
        -11    1    1    2    0    0  0.54317905522E+01 -0.42444525373E+02  0.16548707269E+03  0.17092984909E+03  0.00000000000E+00 0. -1.
         11    1    1    2    0    0  0.24229003211E+02  0.37765180170E+02  0.64089435178E+02  0.78234961055E+02  0.00000000000E+00 0.  1.
</event>
<event>
 7    1  0.2384639E-009  0.1123316E+03  0.7561462E-02  0.1256312E+00
          2   -1    0    0  501    0  0.00000000000E+00  0.00000000000E+00  0.22954509451E+03  0.22954509451E+03  0.00000000000E+00 0. -1.
         -2   -1    0    0    0  501 -0.00000000000E+00 -0.00000000000E+00 -0.72647877228E+02  0.72647877228E+02  0.00000000000E+00 0.  1.
         25    2    1    2    0    0  0.59515251539E+02 -0.85750584544E+01  0.12960530500E+03  0.18989642450E+03  0.12509004820E+03 0.  0.
          5    1    3    3  502    0  0.43902818256E+01 -0.53195255615E+02  0.15951789613E+02  0.55865389879E+02  0.41800000000E+01 0.  1.
         -5    1    3    3    0  502  0.55124969713E+02  0.44620197161E+02  0.11365351539E+03  0.13403103462E+03  0.41800000000E+01 0.  1.
        -11    1    1    2    0    0 -0.53205751685E+01 -0.31962123013E+02 -0.11387978121E+02  0.34344895884E+02  0.00000000000E+00 0.  1.
         11    1    1    2    0    0 -0.54194676371E+02  0.40537181467E+02  0.38679890407E+02  0.77951651362E+02  0.00000000000E+00 0. -1.
</event>
<event>
 7    1  0.2384639E-009  0.1375455E+03  0.7561462E-02  0.1216670E+00
         -2   -1    0    0    0  501 -0.00000000000E+00  0.00000000000E+00  0.34953223588E+02  0.34953223588E+02  0.00000000000E+00 0. -1.
          2   -1    0    0  501    0  0.00000000000E+00 -0.00000000000E+00 -0.79823374919E+03  0.79823374919E+03  0.00000000000E+00 0.  1.
         25    2    1    2    0    0  0.11016549069E+03 -0.56978344660E+02 -0.48853506504E+03  0.51932351093E+03  0.12508969635E+03 0.  0.
          5    1    3    3  502    0  0.84555064796E+02 -0.52384665799E+02 -0.15164270143E+03  0.18140202174E+03  0.41800000000E+01 0. -1.
         -5    1    3    3    0  502  0.25610425896E+02 -0.45936788616E+01 -0.33689236361E+03  0.33792148920E+03  0.41800000000E+01 0. -1.
        -11    1    1    2    0    0 -0.38493339307E+02  0.66544063113E+02 -0.17011555934E+03  0.18667927854E+03  0.00000000000E+00 0.  1.
         11    1    1    2    0    0 -0.71672151384E+02 -0.95657184529E+01 -0.10462990122E+03  0.12718418330E+03  0.00000000000E+00 0. -1.
</event>
<event>
 7    1  0.2384639E-009  0.9848736E+02  0.7561462E-02  0.1283509E+00
         -1   -1    0    0    0  501 -0.00000000000E+00  0.00000000000E+00  0.45018205279E+02  0.45018205279E+02  0.00000000000E+00 0.  1.
          1   -1    0    0  501    0  0.00000000000E+00 -0.00000000000E+00 -0.33651795462E+03  0.33651795462E+03  0.00000000000E+00 0. -1.
         25    2    1    2    0    0 -0.71906489668E+01 -0.55785171885E+02 -0.15299391443E+03  0.20547282907E+03  0.12509298461E+03 0.  0.
          5    1    3    3  502    0  0.87452721932E+01 -0.69964142117E+02 -0.23906924374E+02  0.74568588567E+02  0.41800000000E+01 0. -1.
         -5    1    3    3    0  502 -0.15935921160E+02  0.14178970232E+02 -0.12908699005E+03  0.13090424050E+03  0.41800000000E+01 0. -1.
        -11    1    1    2    0    0  0.12872811540E+02 -0.22603276677E+02 -0.16079420990E+02  0.30580470449E+02  0.00000000000E+00 0.  1.
         11    1    1    2    0    0 -0.56821625737E+01  0.78388448561E+02 -0.12242641393E+03  0.14548286039E+03  0.00000000000E+00 0. -1.
</event>
<event>
 7    1  0.2384639E-009  0.8808125E+02  0.7561462E-02  0.1307566E+00
          2   -1    0    0  501    0  0.00000000000E+00  0.00000000000E+00  0.47708761257E+02  0.47708761257E+02  0.00000000000E+00 0. -1.
         -2   -1    0    0    0  501 -0.00000000000E+00 -0.00000000000E+00 -0.38396438946E+03  0.38396438946E+03  0.00000000000E+00 0.  1.
         25    2    1    2    0    0  0.46695830985E+02 -0.55677709925E+02 -0.11108579020E+03  0.18239760968E+03  0.12509327407E+03 0.  0.
          5    1    3    3  502    0  0.25624636267E+01  0.67105850231E+01  0.24956855316E+02  0.26304280991E+02  0.41800000000E+01 0.  1.
         -5    1    3    3    0  502  0.44133367359E+02 -0.62388294948E+02 -0.13604264552E+03  0.15609332869E+03  0.41800000000E+01 0.  1.
        -11    1    1    2    0    0 -0.33276156108E+02 -0.78117245592E+00 -0.15344809893E+03  0.15701666110E+03  0.00000000000E+00 0.  1.
         11    1    1    2    0    0 -0.13419674878E+02  0.56458882381E+02 -0.71721739072E+02  0.92258879947E+02  0.00000000000E+00 0. -1.
</event>
<event>
 7    1  0.2384639E-009  0.1054446E+03  0.7561462E-02  0.1269246E+00
         -1   -1    0    0    0  501 -0.00000000000E+00  0.00000000000E+00  0.62851620456E+03  0.62851620456E+03  0.00000000000E+00 0.  1.
          1   -1    0    0  501    0  0.00000000000E+00 -0.00000000000E+00 -0.27377872544E+02  0.27377872544E+02  0.00000000000E+00 0. -1.
         25    2    1    2    0    0  0.27432330685E+02  0.41467822586E+02  0.20373399747E+03  0.24418760079E+03  0.12509168469E+03 0.  0.
          5    1    3    3  502    0 -0.28313777649E+02  0.40719646041E+02  0.17376816101E+03  0.18075565208E+03  0.41800000000E+01 0.  1.
         -5    1    3    3    0  502  0.55746108334E+02  0.74817654541E+00  0.29965836455E+02  0.63431948708E+02  0.41800000000E+01 0.  1.
        -11    1    1    2    0    0 -0.62060898858E+02 -0.26191822270E+02  0.29328692135E+03  0.30092322103E+03  0.00000000000E+00 0.  1.
         11    1    1    2    0    0  0.34628568173E+02 -0.15276000316E+02  0.10411741320E+03  0.11078325528E+03  0.00000000000E+00 0. -1.
</event>
<event>
 7    1  0.2384639E-009  0.1138461E+03  0.7561462E-02  0.1253609E+00
         -4   -1    0    0    0  501 -0.00000000000E+00  0.00000000000E+00  0.16154425838E+03  0.16154425838E+03  0.00000000000E+00 0.  1.
          4   -1    0    0  501    0  0.00000000000E+00 -0.00000000000E+00 -0.10678098645E+03  0.10678098645E+03  0.00000000000E+00 0. -1.
         25    2    1    2    0    0 -0.54381737623E+02  0.38356649295E+02  0.62836912635E+02  0.15499874516E+03  0.12509007747E+03 0.  0.
          5    1    3    3  502    0 -0.50878245859E+02  0.76541859458E+02  0.70203029395E+02  0.11572895008E+03  0.41800000000E+01 0. -1.
         -5    1    3    3    0  502 -0.35034917641E+01 -0.38185210162E+02 -0.73661167601E+01  0.39269795082E+02  0.41800000000E+01 0. -1.
        -11    1    1    2    0    0  0.69087598269E+02 -0.16936595792E+02  0.21161429213E+02  0.74214220995E+02  0.00000000000E+00 0.  1.
         11    1    1    2    0    0 -0.14705860646E+02 -0.21420053503E+02 -0.29235069920E+02  0.39112278669E+02  0.00000000000E+00 0. -1.
</event>
<event>
 7    1  0.2384639E-009  0.1268634E+03  0.7561462E-02  0.1232185E+00
         -2   -1    0    0    0  501 -0.00000000000E+00  0.00000000000E+00  0.32027231542E+02  0.32027231542E+02  0.00000000000E+00 0.  1.
          2   -1    0    0  501    0  0.00000000000E+00 -0.00000000000E+00 -0.71030127474E+03  0.71030127474E+03  0.00000000000E+00 0. -1.
         25    2    1    2    0    0  0.26661405471E+02  0.10230561496E+03 -0.41875251312E+03  0.44964127153E+03  0.12508531658E+03 0.  0.
          5    1    3    3  502    0 -0.19281052377E+02  0.78686408937E+02 -0.11060093860E+03  0.13716176563E+03  0.41800000000E+01 0. -1.
         -5    1    3    3    0  502  0.45942457848E+02  0.23619206021E+02 -0.30815157452E+03  0.31247950590E+03  0.41800000000E+01 0. -1.
        -11    1    1    2    0    0 -0.45416380151E+02 -0.70943723453E+02 -0.23235651101E+03  0.24715421843E+03  0.00000000000E+00 0. -1.
         11    1    1    2    0    0  0.18754974680E+02 -0.31361891506E+02 -0.27165019079E+02  0.45533016325E+02  0.00000000000E+00 0.  1.
</event>
<event>
 7    1  0.2384639E-009  0.1111499E+03  0.7561462E-02  0.1258455E+00
         -2   -1    0    0    0  501 -0.00000000000E+00  0.00000000000E+00  0.15715933486E+03  0.15715933486E+03  0.00000000000E+00 0.  1.
          2   -1    0    0  501    0  0.00000000000E+00 -0.00000000000E+00 -0.80575556008E+02  0.80575556008E+02  0.00000000000E+00 0. -1.
         25    2    1    2    0    0 -0.14092930808E+02  0.22572855803E+02  0.30782733185E+02  0.13153539856E+03  0.12508333180E+03 0.  0.
          5    1    3    3  502    0 -0.69751139630E+02  0.15691605479E+02  0.15859133456E+02  0.73351431316E+02  0.41800000000E+01 0.  1.
         -5    1    3    3    0  502  0.55658208821E+02  0.68812503237E+01  0.14923599729E+02  0.58183967243E+02  0.41800000000E+01 0.  1.
        -11    1    1    2    0    0 -0.38802591144E+02 -0.88431321488E+01  0.28239612161E+02  0.48798747532E+02  0.00000000000E+00 0.  1.
         11    1    1    2    0    0  0.52895521952E+02 -0.13729723654E+02  0.17561433508E+02  0.57400744778E+02  0.00000000000E+00 0. -1.
</event>
<event>
 7    1  0.2384639E-009  0.1105137E+03  0.7561462E-02  0.1259622E+00
          2   -1    0    0  501    0  0.00000000000E+00  0.00000000000E+00  0.15087311036E+03  0.15087311036E+03  0.00000000000E+00 0.  1.
         -2   -1    0    0    0  501 -0.00000000000E+00 -0.00000000000E+00 -0.93493017020E+02  0.93493017020E+02  0.00000000000E+00 0. -1.
         25    2    1    2    0    0 -0.14748882014E+02  0.14333834329E+02  0.70064581801E+02  0.14484358027E+03  0.12509048243E+03 0.  0.
          5    1    3    3  502    0  0.44040973456E+02  0.38519187978E+02  0.14777265753E+02  0.60491116444E+02  0.41800000000E+01 0.  1.
         -5    1    3    3    0  502 -0.58789855471E+02 -0.24185353649E+02  0.55287316048E+02  0.84352463824E+02  0.41800000000E+01 0.  1.
        -11    1    1    2    0    0 -0.26520488273E+02 -0.41502177987E+02 -0.47562819641E+01  0.49481201420E+02  0.00000000000E+00 0.  1.
         11    1    1    2    0    0  0.41269370287E+02  0.27168343657E+02 -0.79282064921E+01  0.50041345697E+02  0.00000000000E+00 0. -1.
</event>
<event>
 7    1  0.2384639E-009  0.9597950E+02  0.7561462E-02  0.1288985E+00
         -2   -1    0    0    0  501 -0.00000000000E+00  0.00000000000E+00  0.89447820569E+02  0.89447820569E+02  0.00000000000E+00 0. -1.
          2   -1    0    0  501    0  0.00000000000E+00 -0.00000000000E+00 -0.13072457071E+03  0.13072457071E+03  0.00000000000E+00 0.  1.
         25    2    1    2    0    0 -0.20422743726E+02  0.97872940759E+01 -0.37376508356E+02  0.13250411183E+03  0.12508979450E+03 0.  0.
          5    1    3    3  502    0 -0.68473159228E+02  0.58773492016E+01 -0.46738035510E+02  0.83216783953E+02  0.41800000000E+01 0. -1.
         -5    1    3    3    0  502  0.48050415502E+02  0.39099448743E+01  0.93615271535E+01  0.49287327879E+02  0.41800000000E+01 0. -1.
        -11    1    1    2    0    0 -0.69404308027E+01  0.27558789372E+02 -0.23998316740E+02  0.37196446842E+02  0.00000000000E+00 0.  1.
         11    1    1    2    0    0  0.27363174528E+02 -0.37346083448E+02  0.20098074957E+02  0.50471832601E+02  0.00000000000E+00 0. -1.
</event>
<event>
 7    1  0.2717726E-009  0.2516491E+03  0.7561462E-02  0.1112267E+00
          3   -1    0    0  501    0  0.00000000000E+00  0.00000000000E+00  0.30640139171E+03  0.30640139171E+03  0.00000000000E+00 0. -1.
         -3   -1    0    0    0  501 -0.00000000000E+00 -0.00000000000E+00 -0.23053584791E+03  0.23053584791E+03  0.00000000000E+00 0.  1.
         25    2    1    2    0    0  0.11462992532E+03  0.20524121265E+03  0.97265589471E+02  0.28350045895E+03  0.12509172707E+03 0.  0.
          5    1    3    3  502    0 -0.19742828544E+02  0.80143094279E+02  0.31309948155E+02  0.88376920591E+02  0.41800000000E+01 0. -1.
         -5    1    3    3    0  502  0.13437275387E+03  0.12509811837E+03  0.65955641315E+02  0.19512353836E+03  0.41800000000E+01 0. -1.
        -11    1    1    2    0    0 -0.58357248427E+02 -0.13455460255E+03 -0.55572163465E+02  0.15683996577E+03  0.00000000000E+00 0.  1.
         11    1    1    2    0    0 -0.56272676897E+02 -0.70686610100E+02  0.34172117797E+02  0.96596814893E+02  0.00000000000E+00 0. -1.
</event>
<event>
 7    1  0.2384639E-009  0.1020139E+03  0.7561462E-02  0.1276117E+00
         -2   -1    0    0    0  501 -0.00000000000E+00  0.00000000000E+00  0.12649735799E+03  0.12649735799E+03  0.00000000000E+00 0.  1.
          2   -1    0    0  501    0  0.00000000000E+00 -0.00000000000E+00 -0.11575869808E+03  0.11575869808E+03  0.00000000000E+00 0. -1.
         25    2    1    2    0    0  0.18799637773E+02 -0.45479592480E+02  0.27022702825E+02  0.13710985798E+03  0.12508823676E+03 0.  0.
          5    1    3    3  502    0  0.62915167120E+02 -0.44828107334E+02  0.44753257631E+02  0.89376752736E+02  0.41800000000E+01 0. -1.
         -5    1    3    3    0  502 -0.44115529348E+02 -0.65148514662E+00 -0.17730554806E+02  0.47733105244E+02  0.41800000000E+01 0. -1.
        -11    1    1    2    0    0 -0.23435790943E+01  0.60211988414E+02  0.19292757459E+02  0.63270738909E+02  0.00000000000E+00 0.  1.
         11    1    1    2    0    0 -0.16456058679E+02 -0.14732395934E+02 -0.35576800372E+02  0.41875459184E+02  0.00000000000E+00 0. -1.
</event>
<event>
 7    1  0.3127580E-009  0.2213799E+03  0.7561462E-02  0.1132858E+00
          1   -1    0    0  501    0  0.00000000000E+00  0.00000000000E+00  0.23434583296E+04  0.23434583296E+04  0.00000000000E+00 0. -1.
         -1   -1    0    0    0  501 -0.00000000000E+00 -0.00000000000E+00 -0.30299164692E+02  0.30299164692E+02  0.00000000000E+00 0.  1.
         25    2    1    2    0    0  0.98432813222E+02 -0.19480111290E+03  0.16598281856E+04  0.16787833269E+04  0.12508940977E+03 0.  0.
          5    1    3    3  502    0  0.19277920561E+02 -0.12157963403E+02  0.59806148146E+03  0.59851020233E+03  0.41800000000E+01 0.  1.
         -5    1    3    3    0  502  0.79154892661E+02 -0.18264314949E+03  0.10617667042E+04  0.10802731245E+04  0.41800000000E+01 0.  1.
        -11    1    1    2    0    0 -0.47787250859E+02  0.12819581205E+03  0.27079090283E+03  0.30339001405E+03  0.00000000000E+00 0.  1.
         11    1    1    2    0    0 -0.50645562362E+02  0.66605300852E+02  0.38254007648E+03  0.39158415341E+03  0.00000000000E+00 0. -1.
</event>
<event>
 7    1  0.2384639E-009  0.1432029E+03  0.7561462E-02  0.1209083E+00
         -1   -1    0    0    0  501 -0.00000000000E+00  0.00000000000E+00  0.72342453512E+02  0.72342453512E+02  0.00000000000E+00 0.  1.
          1   -1    0    0  501    0  0.00000000000E+00 -0.00000000000E+00 -0.63173201516E+03  0.63173201516E+03  0.00000000000E+00 0. -1.
         25    2    1    2    0    0 -0.10072382616E+03  0.78897367042E+02 -0.50456087592E+03  0.53534865355E+03  0.12508564935E+03 0.  0.
          5    1    3    3  502    0 -0.97796794538E+01 -0.12015973428E+02 -0.24622076625E+03  0.24674311314E+03  0.41800000000E+01 0. -1.
         -5    1    3    3    0  502 -0.90944146711E+02  0.90913340470E+02 -0.25834010966E+03  0.28860554041E+03  0.41800000000E+01 0. -1.
        -11    1    1    2    0    0  0.46292818216E+02 -0.73682770639E+02 -0.70335302605E+02  0.11188936723E+03  0.00000000000E+00 0. -1.
         11    1    1    2    0    0  0.54431007949E+02 -0.52145964033E+01  0.15506616870E+02  0.56836447890E+02  0.00000000000E+00 0.  1.
</event>
<event>
 7    1  0.2384639E-009  0.1093723E+03  0.7561462E-02  0.1261737E+00
         -2   -1    0    0    0  501 -0.00000000000E+00  0.00000000000E+00  0.75517685406E+02  0.75517685406E+02  0.00000000000E+00 0.  1.
          2   -1    0    0  501    0  0.00000000000E+00 -0.00000000000E+00 -0.23889927167E+03  0.23889927167E+03  0.00000000000E+00 0. -1.
         25    2    1    2    0    0 -0.60133146468E+02 -0.24932217158E+02 -0.13575812534E+03  0.19574107577E+03  0.12508672748E+03 0.  0.
          5    1    3    3  502    0 -0.82087976594E+02 -0.14051771337E+02 -0.14657341684E+03  0.16863311389E+03  0.41800000000E+01 0.  1.
         -5    1    3    3    0  502  0.21954830126E+02 -0.10880445821E+02  0.10815291495E+02  0.27107961880E+02  0.41800000000E+01 0.  1.
        -11    1    1    2    0    0  0.46232683817E+02  0.58268742672E+02 -0.20318869963E+01  0.74409918629E+02  0.00000000000E+00 0.  1.
         11    1    1    2    0    0  0.13900462650E+02 -0.33336525514E+02 -0.25591573925E+02  0.44265962671E+02  0.00000000000E+00 0. -1.
</event>
<event>
 7    1  0.2744437E-009  0.1304064E+03  0.7561462E-02  0.1226854E+00
          2   -1    0    0  501    0  0.00000000000E+00  0.00000000000E+00  0.82827778388E+03  0.82827778388E+03  0.00000000000E+00 0. -1.
         -2   -1    0    0    0  501 -0.00000000000E+00 -0.00000000000E+00 -0.28475476356E+02  0.28475476356E+02  0.00000000000E+00 0.  1.
         25    2    1    2    0    0  0.85472626849E+02  0.55001887894E+02  0.53575534884E+03  0.55947410458E+03  0.12508677897E+03 0.  0.
          5    1    3    3  502    0  0.88451907049E+02  0.87820346112E+02  0.46285652932E+03  0.47936394544E+03  0.41800000000E+01 0. -1.
         -5    1    3    3    0  502 -0.29792801999E+01 -0.32818458218E+02  0.72898819521E+02  0.80110159143E+02  0.41800000000E+01 0. -1.
        -11    1    1    2    0    0 -0.46935399902E+02 -0.39493289558E+02  0.49710633227E+02  0.78954409249E+02  0.00000000000E+00 0.  1.
         11    1    1    2    0    0 -0.38537226947E+02 -0.15508598335E+02  0.21433632545E+03  0.21832474640E+03  0.00000000000E+00 0. -1.
</event>
<event>
 7    1  0.2384639E-009  0.2434368E+03  0.7561462E-02  0.1117524E+00
         -2   -1    0    0    0  501 -0.00000000000E+00  0.00000000000E+00  0.60308988507E+02  0.60308988507E+02  0.00000000000E+00 0.  1.
          2   -1    0    0  501    0  0.00000000000E+00 -0.00000000000E+00 -0.11116978919E+04  0.11116978919E+04  0.00000000000E+00 0. -1.
         25    2    1    2    0    0 -0.20737884780E+03  0.95954198550E+02 -0.65740178433E+03  0.70713318218E+03  0.12508811523E+03 0.  0.
          5    1    3    3  502    0 -0.16325526702E+02  0.39240120625E+02 -0.40616980311E+02  0.58936587774E+02  0.41800000000E+01 0. -1.
         -5    1    3    3    0  502 -0.19105332110E+03  0.56714077925E+02 -0.61678480402E+03  0.64819659441E+03  0.41800000000E+01 0. -1.
        -11    1    1    2    0    0  0.92648551540E+02 -0.91195820208E+02 -0.23783572205E+03  0.27104660560E+03  0.00000000000E+00 0. -1.
         11    1    1    2    0    0  0.11473029626E+03 -0.47583783422E+01 -0.15615139702E+03  0.19382709263E+03  0.00000000000E+00 0.  1.
</event>
<event>
 7    1  0.2384639E-009  0.1037751E+03  0.7561462E-02  0.1272552E+00
          2   -1    0    0  501    0  0.00000000000E+00  0.00000000000E+00  0.56240578556E+02  0.56240578556E+02  0.00000000000E+00 0. -1.
         -2   -1    0    0    0  501 -0.00000000000E+00 -0.00000000000E+00 -0.29197320119E+03  0.29197320119E+03  0.00000000000E+00 0.  1.
         25    2    1    2    0    0  0.23766831883E+02 -0.12112572964E+02 -0.51317036072E+02  0.13781155221E+03  0.12508800506E+03 0.  0.
          5    1    3    3  502    0 -0.36940464935E+02 -0.37091413201E+02  0.28622179914E+01  0.52593113377E+02  0.41800000000E+01 0. -1.
         -5    1    3    3    0  502  0.60707296818E+02  0.24978840237E+02 -0.54179254064E+02  0.85218438835E+02  0.41800000000E+01 0. -1.
        -11    1    1    2    0    0 -0.63310821147E+01 -0.36794159456E+02 -0.31289132007E+02  0.48712447614E+02  0.00000000000E+00 0. -1.
         11    1    1    2    0    0 -0.17435749768E+02  0.48906732420E+02 -0.15312645455E+03  0.16168977992E+03  0.00000000000E+00 0.  1.
</event>
<event>
 7    1  0.2384639E-009  0.1112854E+03  0.7561462E-02  0.1258208E+00
          1   -1    0    0  501    0  0.00000000000E+00  0.00000000000E+00  0.73871800143E+02  0.73871800143E+02  0.00000000000E+00 0. -1.
         -1   -1    0    0    0  501 -0.00000000000E+00 -0.00000000000E+00 -0.20796947478E+03  0.20796947478E+03  0.00000000000E+00 0.  1.
         25    2    1    2    0    0 -0.76778458921E+01  0.57901820185E+02 -0.83310680922E+02  0.16124142066E+03  0.12508619461E+03 0.  0.
          5    1    3    3  502    0 -0.11801610451E+02 -0.33916562383E+02  0.13954726293E+01  0.36180532845E+02  0.41800000000E+01 0. -1.
         -5    1    3    3    0  502  0.41237645584E+01  0.91818382568E+02 -0.84706153551E+02  0.12506088781E+03  0.41800000000E+01 0. -1.
        -11    1    1    2    0    0 -0.32998133050E+02 -0.33266848423E+02  0.51979291385E+01  0.47144230359E+02  0.00000000000E+00 0. -1.
         11    1    1    2    0    0  0.40675978942E+02 -0.24634971762E+02 -0.55984922856E+02  0.73455623908E+02  0.00000000000E+00 0.  1.
</event>
<event>
 7    1  0.2384639E-009  0.9340184E+02  0.7561462E-02  0.1294817E+00
         -4   -1    0    0    0  501 -0.00000000000E+00  0.00000000000E+00  0.16455905802E+02  0.16455905802E+02  0.00000000000E+00 0.  1.
          4   -1    0    0  501    0  0.00000000000E+00 -0.00000000000E+00 -0.76866254670E+03  0.76866254670E+03  0.00000000000E+00 0. -1.
         25    2    1    2    0    0  0.42331739678E+01  0.44051592423E+02 -0.40556694433E+03  0.42672058552E+03  0.12508976465E+03 0.  0.
          5    1    3    3  502    0  0.55784922008E+01 -0.26343404413E+02 -0.29037283619E+03  0.29164867722E+03  0.41800000000E+01 0. -1.
         -5    1    3    3    0  502 -0.13453182330E+01  0.70394996837E+02 -0.11519410814E+03  0.13507190830E+03  0.41800000000E+01 0. -1.
        -11    1    1    2    0    0  0.36532213300E+02 -0.19058489787E+02 -0.12350689487E+03  0.13019900814E+03  0.00000000000E+00 0.  1.
         11    1    1    2    0    0 -0.40765387268E+02 -0.24993102637E+02 -0.22313280171E+03  0.22819885884E+03  0.00000000000E+00 0. -1.
</event>
<event>
 7    1  0.2384639E-009  0.1038020E+03  0.7561462E-02  0.1272498E+00
         -1   -1    0    0    0  501 -0.00000000000E+00  0.00000000000E+00  0.21820294418E+02  0.21820294418E+02  0.00000000000E+00 0.  1.
          1   -1    0    0  501    0  0.00000000000E+00 -0.00000000000E+00 -0.71280369383E+03  0.71280369383E+03  0.00000000000E+00 0. -1.
         25    2    1    2    0    0  0.67117566569E+02 -0.74479755533E+01 -0.29644661663E+03  0.32876908576E+03  0.12509306599E+03 0.  0.
          5    1    3    3  502    0  0.44694395785E+02 -0.48182695514E+02 -0.64528143421E+02  0.92198236723E+02  0.41800000000E+01 0.  1.
         -5    1    3    3    0  502  0.22423170784E+02  0.40734719960E+02 -0.23191847321E+03  0.23657084904E+03  0.41800000000E+01 0.  1.
        -11    1    1    2    0    0 -0.80798607678E+02  0.89900529109E+01 -0.34404667050E+03  0.35352135372E+03  0.00000000000E+00 0. -1.
         11    1    1    2    0    0  0.13681041109E+02 -0.15420773577E+01 -0.50490112284E+02  0.52333548770E+02  0.00000000000E+00 0.  1.
</event>
<event>
 7    1  0.2384639E-009  0.8439650E+02  0.7561462E-02  0.1317018E+00
         -2   -1    0    0    0  501 -0.00000000000E+00  0.00000000000E+00  0.25788656900E+03  0.25788656900E+03  0.00000000000E+00 0.  1.
          2   -1    0    0  501    0  0.00000000000E+00 -0.00000000000E+00 -0.47658040196E+02  0.47658040196E+02  0.00000000000E+00 0. -1.
         25    2    1    2    0    0  0.33386007591E+01 -0.13025483084E+02  0.18985398040E+03  0.22775475628E+03  0.12508751205E+03 0.  0.
          5    1    3    3  502    0  0.50616776759E+02 -0.19856065639E+02  0.33011832776E+02  0.63746175849E+02  0.41800000000E+01 0. -1.
         -5    1    3    3    0  502 -0.47278176000E+02  0.68305825544E+01  0.15684214762E+03  0.16400858043E+03  0.41800000000E+01 0. -1.
        -11    1    1    2    0    0  0.11697487957E+02  0.36557469419E+02 -0.66198287905E+01  0.38949992658E+02  0.00000000000E+00 0.  1.
         11    1    1    2    0    0 -0.15036088716E+02 -0.23531986334E+02  0.26994377197E+02  0.38839860259E+02  0.00000000000E+00 0. -1.
</event>
<event>
 7    1  0.2384639E-009  0.1241219E+03  0.7561462E-02  0.1236448E+00
          2   -1    0    0  501    0  0.00000000000E+00  0.00000000000E+00  0.29330814693E+03  0.29330814693E+03  0.00000000000E+00 0. -1.
         -2   -1    0    0    0  501 -0.00000000000E+00 -0.00000000000E+00 -0.57095241031E+02  0.57095241031E+02  0.00000000000E+00 0.  1.
         25    2    1    2    0    0  0.64921071933E+02 -0.30928222309E+02  0.14110257765E+03  0.20181387681E+03  0.12509037908E+03 0.  0.
          5    1    3    3  502    0 -0.33962940346E+02 -0.16457971958E+02  0.68140512333E+02  0.78006076551E+02  0.41800000000E+01 0.  1.
         -5    1    3    3    0  502  0.98884012279E+02 -0.14470250350E+02  0.72962065322E+02  0.12380780026E+03  0.41800000000E+01 0.  1.
        -11    1    1    2    0    0  0.15845715757E+02  0.24563337387E+02  0.43910127842E+02  0.52749820649E+02  0.00000000000E+00 0. -1.
         11    1    1    2    0    0 -0.80766787690E+02  0.63648849221E+01  0.51200200403E+02  0.95839690500E+02  0.00000000000E+00 0.  1.
</event>
<event>
 7    1  0.2384639E-009  0.8355232E+02  0.7561462E-02  0.1319262E+00
          2   -1    0    0  501    0  0.00000000000E+00  0.00000000000E+00  0.70832294385E+02  0.70832294385E+02  0.00000000000E+00 0. -1.
         -2   -1    0    0    0  501 -0.00000000000E+00 -0.00000000000E+00 -0.17511500123E+03  0.17511500123E+03  0.00000000000E+00 0.  1.
         25    2    1    2    0    0  0.15667180370E+02  0.18859686183E+02 -0.71154275191E+02  0.14598943316E+03  0.12509530531E+03 0.  0.
          5    1    3    3  502    0  0.26381084418E+01 -0.25860192668E+02  0.26722604881E+02  0.37513720058E+02  0.41800000000E+01 0. -1.
         -5    1    3    3    0  502  0.13029071929E+02  0.44719878851E+02 -0.97876880072E+02  0.10847571310E+03  0.41800000000E+01 0. -1.
        -11    1    1    2    0    0  0.91252204299E+01 -0.51903411952E+02 -0.14613670281E+02  0.54688144778E+02  0.00000000000E+00 0. -1.
         11    1    1    2    0    0 -0.24792400800E+02  0.33043725769E+02 -0.18514761374E+02  0.45269717681E+02  0.00000000000E+00 0.  1.
</event>
<event>
 7    1  0.2384639E-009  0.1095367E+03  0.7561462E-02  0.1261430E+00
         -1   -1    0    0    0  501 -0.00000000000E+00  0.00000000000E+00  0.46147337912E+02  0.46147337912E+02  0.00000000000E+00 0.  1.
          1   -1    0    0  501    0  0.00000000000E+00 -0.00000000000E+00 -0.34840602288E+03  0.34840602288E+03  0.00000000000E+00 0. -1.
         25    2    1    2    0    0  0.40418046544E+02 -0.50840504934E+02 -0.16424559658E+03  0.21642989640E+03  0.12508760382E+03 0.  0.
          5    1    3    3  502    0  0.55822735690E+01  0.30622936697E+02 -0.19369197910E+01  0.31466650416E+02  0.41800000000E+01 0. -1.
         -5    1    3    3    0  502  0.34835772975E+02 -0.81463441630E+02 -0.16230867679E+03  0.18496324598E+03  0.41800000000E+01 0. -1.
        -11    1    1    2    0    0 -0.43731691377E+02  0.68352932054E+02 -0.67979285427E+02  0.10585729733E+03  0.00000000000E+00 0.  1.
         11    1    1    2    0    0  0.33136448323E+01 -0.17512427120E+02 -0.70033802954E+02  0.72266167062E+02  0.00000000000E+00 0. -1.
</event>
<event>
 7    1  0.2384639E-009  0.1251709E+03  0.7561462E-02  0.1234802E+00
          2   -1    0    0  501    0  0.00000000000E+00  0.00000000000E+00  0.85551811425E+03  0.85551811425E+03  0.00000000000E+00 0. -1.
         -2   -1    0    0    0  501 -0.00000000000E+00 -0.00000000000E+00 -0.30218520702E+02  0.30218520702E+02  0.00000000000E+00 0.  1.
         25    2    1    2    0    0  0.77615533791E+01  0.88966367075E+02  0.65283288029E+03  0.67068055451E+03  0.12508549245E+03 0.  0.
          5    1    3    3  502    0 -0.41070653388E+02  0.62942947219E+02  0.53690621534E+03  0.54215714479E+03  0.41800000000E+01 0.  1.
         -5    1    3    3    0  502  0.48832206767E+02  0.26023419856E+02  0.11592666495E+03  0.12852340972E+03  0.41800000000E+01 0.  1.
        -11    1    1    2    0    0  0.26354373512E+02 -0.80105449234E+02  0.80571377713E+02  0.11663268370E+03  0.00000000000E+00 0.  1.
         11    1    1    2    0    0 -0.34115926891E+02 -0.88609178405E+01  0.91895335544E+02  0.98423396748E+02  0.00000000000E+00 0. -1.
</event>
<event>
 7    1  0.2384639E-009  0.9104233E+02  0.7561462E-02  0.1300347E+00
         -1   -1    0    0    0  501 -0.00000000000E+00  0.00000000000E+00  0.24834946574E+03  0.24834946574E+03  0.00000000000E+00 0.  1.
          1   -1    0    0  501    0  0.00000000000E+00 -0.00000000000E+00 -0.70403278373E+02  0.70403278373E+02  0.00000000000E+00 0. -1.
         25    2    1    2    0    0  0.24665890280E+02  0.99654026135E+01  0.17632015002E+03  0.21780956182E+03  0.12507795379E+03 0.  0.
          5    1    3    3  502    0  0.46424822220E+02  0.37521416864E+02  0.29354977691E+02  0.66650641084E+02  0.41800000000E+01 0. -1.
         -5    1    3    3    0  502 -0.21758931940E+02 -0.27556014251E+02  0.14696517233E+03  0.15115892073E+03  0.41800000000E+01 0. -1.
        -11    1    1    2    0    0  0.24601898841E+02 -0.25299130172E+02  0.26043640297E+02  0.43858529546E+02  0.00000000000E+00 0.  1.
         11    1    1    2    0    0 -0.49267789121E+02  0.15333727558E+02 -0.24417602947E+02  0.57084652748E+02  0.00000000000E+00 0. -1.
</event>
<event>
 7    1  0.2384639E-009  0.1125968E+03  0.7561462E-02  0.1255835E+00
         -2   -1    0    0    0  501 -0.00000000000E+00  0.00000000000E+00  0.18719802369E+02  0.18719802369E+02  0.00000000000E+00 0.  1.
          2   -1    0    0  501    0  0.00000000000E+00 -0.00000000000E+00 -0.71801126465E+03  0.71801126465E+03  0.00000000000E+00 0. -1.
         25    2    1    2    0    0  0.27096690947E+02  0.34075860818E+02 -0.38139328731E+03  0.40374297890E+03  0.12510858666E+03 0.  0.
          5    1    3    3  502    0 -0.16154713454E+02  0.68898803157E+02 -0.15247164516E+03  0.16814605205E+03  0.41800000000E+01 0. -1.
         -5    1    3    3    0  502  0.43251404401E+02 -0.34822942338E+02 -0.22892164215E+03  0.23559692685E+03  0.41800000000E+01 0. -1.
        -11    1    1    2    0    0 -0.18128259384E+01 -0.61379226729E+02 -0.18157678475E+03  0.19167896226E+03  0.00000000000E+00 0.  1.
         11    1    1    2    0    0 -0.25283865008E+02  0.27303365911E+02 -0.13632139022E+03  0.14130912586E+03  0.00000000000E+00 0. -1.
</event>
<event>
 7    1  0.2384639E-009  0.9009036E+02  0.7561462E-02  0.1302633E+00
         -1   -1    0    0    0  501 -0.00000000000E+00  0.00000000000E+00  0.66451006696E+02  0.66451006696E+02  0.00000000000E+00 0.  1.
          1   -1    0    0  501    0  0.00000000000E+00 -0.00000000000E+00 -0.20208035401E+03  0.20208035401E+03  0.00000000000E+00 0. -1.
         25    2    1    2    0    0  0.13060467991E+02  0.22170335244E+02 -0.11183132834E+03  0.16975210424E+03  0.12508969304E+03 0.  0.
          5    1    3    3  502    0 -0.30523644229E+01  0.73001536188E+02 -0.75132699266E+02  0.10488534747E+03  0.41800000000E+01 0. -1.
         -5    1    3    3    0  502  0.16112832414E+02 -0.50831200945E+02 -0.36698629072E+02  0.64866756768E+02  0.41800000000E+01 0. -1.
        -11    1    1    2    0    0 -0.30875321765E+02 -0.14559909870E+02 -0.53413859953E+02  0.63390195650E+02  0.00000000000E+00 0. -1.
         11    1    1    2    0    0  0.17814853774E+02 -0.76104253737E+01  0.29615840973E+02  0.35389060823E+02  0.00000000000E+00 0.  1.
</event>
<event>
 7    1  0.3245263E-009  0.9200963E+02  0.7561462E-02  0.1298057E+00
          1   -1    0    0  501    0  0.00000000000E+00  0.00000000000E+00  0.16379841091E+04  0.16379841091E+04  0.00000000000E+00 0. -1.
         -1   -1    0    0    0  501 -0.00000000000E+00 -0.00000000000E+00 -0.92093884594E+01  0.92093884594E+01  0.00000000000E+00 0.  1.
         25    2    1    2    0    0 -0.12150532283E+02 -0.47648768511E+02  0.11225936618E+04  0.11306102657E+04  0.12507998606E+03 0.  0.
          5    1    3    3  502    0 -0.32090927086E+02 -0.38212373361E+01  0.73453668279E+02  0.80357596029E+02  0.41800000000E+01 0.  1.
         -5    1    3    3    0  502  0.19940394804E+02 -0.43827531175E+02  0.10491399935E+04  0.10502526697E+04  0.41800000000E+01 0.  1.
        -11    1    1    2    0    0  0.50830628729E+02  0.37336867575E+02  0.30219572010E+03  0.30870705814E+03  0.00000000000E+00 0. -1.
         11    1    1    2    0    0 -0.38680096447E+02  0.10311900936E+02  0.20398533870E+03  0.20787617364E+03  0.00000000000E+00 0.  1.
</event>
<event>
 7    1  0.2580252E-009  0.1185122E+03  0.7561462E-02  0.1245572E+00
          1   -1    0    0  501    0  0.00000000000E+00  0.00000000000E+00  0.89090489966E+03  0.89090489966E+03  0.00000000000E+00 0.  1.
         -1   -1    0    0    0  501 -0.00000000000E+00 -0.00000000000E+00 -0.28577366504E+02  0.28577366504E+02  0.00000000000E+00 0. -1.
         25    2    1    2    0    0  0.11383145470E+03  0.25996608764E+02  0.47449958165E+03  0.50440953174E+03  0.12508276851E+03 0.  0.
          5    1    3    3  502    0  0.20140971430E+01  0.65884919842E+00 -0.75549387707E+01  0.88904538352E+01  0.41800000000E+01 0.  1.
         -5    1    3    3    0  502  0.11181735756E+03  0.25337759566E+02  0.48205452042E+03  0.49551907790E+03  0.41800000000E+01 0.  1.
        -11    1    1    2    0    0 -0.49027730961E+02 -0.40679338164E+01  0.49103218824E+02  0.69508219568E+02  0.00000000000E+00 0. -1.
         11    1    1    2    0    0 -0.64803723739E+02 -0.21928674948E+02  0.33872473269E+03  0.34556451486E+03  0.00000000000E+00 0.  1.
</event>
<event>
 7    1  0.2384639E-009  0.1850366E+03  0.7561462E-02  0.1163016E+00
         -2   -1    0    0    0  501 -0.00000000000E+00  0.00000000000E+00  0.39751862781E+02  0.39751862781E+02  0.00000000000E+00 0.  1.
          2   -1    0    0  501    0  0.00000000000E+00 -0.00000000000E+00 -0.16725878468E+04  0.16725878468E+04  0.00000000000E+00 0. -1.
         25    2    1    2    0    0  0.11129319057E+03 -0.10560126700E+03 -0.14268311087E+04  0.14404970874E+04  0.12508814513E+03 0.  0.
          5    1    3    3  502    0  0.10810914105E+03 -0.23836803321E+02 -0.97741671817E+03  0.98367509521E+03  0.41800000000E+01 0.  1.
         -5    1    3    3    0  502  0.31840495228E+01 -0.81764463674E+02 -0.44941439056E+03  0.45682199218E+03  0.41800000000E+01 0.  1.
        -11    1    1    2    0    0 -0.80428439457E+01  0.66444416424E+02 -0.79482886519E+02  0.10390898451E+03  0.00000000000E+00 0.  1.
         11    1    1    2    0    0 -0.10325034663E+03  0.39156850571E+02 -0.12652198877E+03  0.16793363769E+03  0.00000000000E+00 0. -1.
</event>
<event>
 7    1  0.2384639E-009  0.9703373E+02  0.7561462E-02  0.1286660E+00
          1   -1    0    0  501    0  0.00000000000E+00  0.00000000000E+00  0.30582079831E+03  0.30582079831E+03  0.00000000000E+00 0. -1.
         -1   -1    0    0    0  501 -0.00000000000E+00 -0.00000000000E+00 -0.12180935885E+03  0.12180935885E+03  0.00000000000E+00 0.  1.
         25    2    1    2    0    0 -0.36860979307E+02 -0.21275361212E+02  0.26402624505E+03  0.29524327904E+03  0.12508941982E+03 0.  0.
          5    1    3    3  502    0 -0.75450673287E+02 -0.16364035661E+02  0.98849893752E+02  0.12549645277E+03  0.41800000000E+01 0.  1.
         -5    1    3    3    0  502  0.38589693980E+02 -0.49113255506E+01  0.16517635130E+03  0.16974682627E+03  0.41800000000E+01 0.  1.
        -11    1    1    2    0    0  0.49740842994E+02  0.33417328701E+02 -0.92860090102E+02  0.11051635921E+03  0.00000000000E+00 0.  1.
         11    1    1    2    0    0 -0.12879863687E+02 -0.12141967490E+02  0.12845284522E+02  0.21870518914E+02  0.00000000000E+00 0. -1.
</event>
<event>
 7    1  0.2384639E-009  0.1235974E+03  0.7561462E-02  0.1237278E+00
         -2   -1    0    0    0  501 -0.00000000000E+00  0.00000000000E+00  0.30677271085E+02  0.30677271085E+02  0.00000000000E+00 0.  1.
          2   -1    0    0  501    0  0.00000000000E+00 -0.00000000000E+00 -0.61427942778E+03  0.61427942778E+03  0.00000000000E+00 0. -1.
         25    2    1    2    0    0 -0.65669631302E+02 -0.53034546383E+02 -0.25380288071E+03  0.29527618351E+03  0.12508780398E+03 0.  0.
          5    1    3    3  502    0 -0.71516700713E+02  0.72116491315E+01 -0.20542202048E+03  0.21767481541E+03  0.41800000000E+01 0. -1.
         -5    1    3    3    0  502  0.58470694105E+01 -0.60246195514E+02 -0.48380860228E+02  0.77601368100E+02  0.41800000000E+01 0. -1.
        -11    1    1    2    0    0 -0.13953064499E+02  0.27613126778E+02 -0.64688817648E+02  0.71706456530E+02  0.00000000000E+00 0.  1.
         11    1    1    2    0    0  0.79622695801E+02  0.25421419605E+02 -0.26511045834E+03  0.27797405883E+03  0.00000000000E+00 0. -1.
</event>
<event>
 7    1  0.2384639E-009  0.1721412E+03  0.7561462E-02  0.1175633E+00
          2   -1    0    0  501    0  0.00000000000E+00  0.00000000000E+00  0.12327860483E+04  0.12327860483E+04  0.00000000000E+00 0. -1.
         -2   -1    0    0    0  501 -0.00000000000E+00 -0.00000000000E+00 -0.30591829463E+02  0.30591829463E+02  0.00000000000E+00 0.  1.
         25    2    1    2    0    0  0.83305822018E+02  0.12949363112E+03  0.48168684756E+03  0.52093913339E+03  0.12508757375E+03 0.  0.
          5    1    3    3  502    0  0.85433387109E+02  0.33978460590E+02  0.32114502166E+03  0.33407334038E+03  0.41800000000E+01 0.  1.
         -5    1    3    3    0  502 -0.21275650908E+01  0.95515170529E+02  0.16054182590E+03  0.18686579301E+03  0.41800000000E+01 0.  1.
        -11    1    1    2    0    0  0.13156202585E+01 -0.10602189555E+02  0.43016656017E+01  0.11517013804E+02  0.00000000000E+00 0.  1.
         11    1    1    2    0    0 -0.84621442276E+02 -0.11889144157E+03  0.71620570566E+03  0.73092173055E+03  0.00000000000E+00 0. -1.
</event>
<event>
 7    1  0.2384639E-009  0.8432153E+02  0.7561462E-02  0.1317216E+00
          2   -1    0    0  501    0  0.00000000000E+00  0.00000000000E+00  0.33058786271E+03  0.33058786271E+03  0.00000000000E+00 0. -1.
         -2   -1    0    0    0  501 -0.00000000000E+00 -0.00000000000E+00 -0.77654201737E+02  0.77654201737E+02  0.00000000000E+00 0.  1.
         25    2    1    2    0    0  0.62137351646E+02 -0.28896684816E+02  0.14101561543E+02  0.14332490551E+03  0.12508839131E+03 0.  0.
          5    1    3    3  502    0  0.59054953489E+02 -0.21158578651E+02  0.65674697502E+02  0.90916507160E+02  0.41800000000E+01 0. -1.
         -5    1    3    3    0  502  0.30823981571E+01 -0.77381061654E+01 -0.51573135959E+02  0.52408398355E+02  0.41800000000E+01 0. -1.
        -11    1    1    2    0    0 -0.24833769403E+02 -0.22117739394E+02  0.16226175419E+03  0.16563449934E+03  0.00000000000E+00 0. -1.
         11    1    1    2    0    0 -0.37303582243E+02  0.51014424210E+02  0.76570345238E+02  0.99282659591E+02  0.00000000000E+00 0.  1.
</event>
<event>
 7    1  0.2384639E-009  0.8782381E+02  0.7561462E-02  0.1308209E+00
          2   -1    0    0  501    0  0.00000000000E+00  0.00000000000E+00  0.32275070267E+03  0.32275070267E+03  0.00000000000E+00 0. -1.
         -2   -1    0    0    0  501 -0.00000000000E+00 -0.00000000000E+00 -0.53257627917E+02  0.53257627917E+02  0.00000000000E+00 0.  1.
         25    2    1    2    0    0 -0.27832365686E+01 -0.73624802397E+02  0.16538981141E+03  0.22006702435E+03  0.12508935828E+03 0.  0.
          5    1    3    3  502    0  0.26698398502E+02 -0.57745705867E+01 -0.10221610028E+02  0.29463602285E+02  0.41800000000E+01 0.  1.
         -5    1    3    3    0  502 -0.29481635071E+02 -0.67850231810E+02  0.17561142144E+03  0.19060342207E+03  0.41800000000E+01 0.  1.
        -11    1    1    2    0    0  0.42396550614E+01  0.33645120804E+02 -0.97326112043E+01  0.35280200535E+02  0.00000000000E+00 0.  1.
         11    1    1    2    0    0 -0.14564184928E+01  0.39979681592E+02  0.11383587454E+03  0.12066110569E+03  0.00000000000E+00 0. -1.
</event>
<event>
 7    1  0.3023011E-009  0.1172877E+03  0.7561462E-02  0.1247640E+00
          1   -1    0    0  501    0  0.00000000000E+00  0.00000000000E+00  0.26749009185E+03  0.26749009185E+03  0.00000000000E+00 0. -1.
         -1   -1    0    0    0  501 -0.00000000000E+00 -0.00000000000E+00 -0.83343504465E+02  0.83343504465E+02  0.00000000000E+00 0.  1.
         25    2    1    2    0    0 -0.72812113070E+02 -0.48024362055E+01  0.15640467229E+02  0.14566156087E+03  0.12509196176E+03 0.  0.
          5    1    3    3  502    0  0.19581438166E+02 -0.39292229865E+02 -0.62875024865E+01  0.44545674717E+02  0.41800000000E+01 0.  1.
         -5    1    3    3    0  502 -0.92393551236E+02  0.34489793660E+02  0.21927969716E+02  0.10111588615E+03  0.41800000000E+01 0.  1.
        -11    1    1    2    0    0  0.43566712078E+02 -0.24818961829E+02  0.25541748474E+02  0.56270953277E+02  0.00000000000E+00 0.  1.
         11    1    1    2    0    0  0.29245400992E+02  0.29621398034E+02  0.14296437169E+03  0.14890108217E+03  0.00000000000E+00 0. -1.
</event>
<event>
 7    1  0.2384639E-009  0.1439281E+03  0.7561462E-02  0.1208139E+00
         -2   -1    0    0    0  501 -0.00000000000E+00  0.00000000000E+00  0.39224079252E+03  0.39224079252E+03  0.00000000000E+00 0.  1.
          2   -1    0    0  501    0  0.00000000000E+00 -0.00000000000E+00 -0.86534264254E+02  0.86534264254E+02  0.00000000000E+00 0. -1.
         25    2    1    2    0    0  0.20498925320E+02 -0.12630746252E+03  0.25613894187E+03  0.31245585090E+03  0.12509084777E+03 0.  0.
          5    1    3    3  502    0  0.29832650189E+02 -0.61421306776E+02  0.23296325152E+03  0.24280015013E+03  0.41800000000E+01 0. -1.
         -5    1    3    3    0  502 -0.93337248685E+01 -0.64886155746E+02  0.23175690346E+02  0.69655700775E+02  0.41800000000E+01 0. -1.
        -11    1    1    2    0    0  0.22508494814E+02  0.10179917946E+03  0.13621562570E+02  0.10514395962E+03  0.00000000000E+00 0.  1.
         11    1    1    2    0    0 -0.43007420135E+02  0.24508283066E+02  0.35946023833E+02  0.61175246259E+02  0.00000000000E+00 0. -1.
</event>
<event>
 7    1  0.2384639E-009  0.1418663E+03  0.7561462E-02  0.1210840E+00
          2   -1    0    0  501    0  0.00000000000E+00  0.00000000000E+00  0.61126029672E+03  0.61126029672E+03  0.00000000000E+00 0. -1.
         -2   -1    0    0    0  501 -0.00000000000E+00 -0.00000000000E+00 -0.50693018595E+02  0.50693018595E+02  0.00000000000E+00 0.  1.
         25    2    1    2    0    0 -0.16051344523E+02  0.94988281705E+02  0.48410123790E+03  0.50919660689E+03  0.12508699616E+03 0.  0.
          5    1    3    3  502    0 -0.44065525117E+02 -0.77566215716E+01  0.21726006867E+03  0.22185884142E+03  0.41800000000E+01 0. -1.
         -5    1    3    3    0  502  0.28014180594E+02  0.10274490328E+03  0.26684116923E+03  0.28733776546E+03  0.41800000000E+01 0. -1.
        -11    1    1    2    0    0 -0.32000811260E+02 -0.82325027994E+01  0.17875860544E+02  0.37568236767E+02  0.00000000000E+00 0.  1.
         11    1    1    2    0    0  0.48052155783E+02 -0.86755778905E+02  0.58590179690E+02  0.11518847167E+03  0.00000000000E+00 0. -1.
</event>
<event>
 7    1  0.2384639E-009  0.1694147E+03  0.7561462E-02  0.1178460E+00
         -2   -1    0    0    0  501 -0.00000000000E+00  0.00000000000E+00  0.59802116676E+02  0.59802116676E+02  0.00000000000E+00 0.  1.
          2   -1    0    0  501    0  0.00000000000E+00 -0.00000000000E+00 -0.54896754749E+03  0.54896754749E+03  0.00000000000E+00 0. -1.
         25    2    1    2    0    0  0.82215230143E+02 -0.11892233291E+03 -0.19263076737E+03  0.27139385112E+03  0.12508454964E+03 0.  0.
          5    1    3    3  502    0  0.41464370444E+02 -0.13888532383E+03 -0.13706055882E+03  0.19952818442E+03  0.41800000000E+01 0.  1.
         -5    1    3    3    0  502  0.40750859699E+02  0.19962990927E+02 -0.55570208544E+02  0.71865666702E+02  0.41800000000E+01 0.  1.
        -11    1    1    2    0    0 -0.39193352944E+02  0.84540398062E+02 -0.24431301491E+03  0.26148049081E+03  0.00000000000E+00 0. -1.
         11    1    1    2    0    0 -0.43021877200E+02  0.34381934845E+02 -0.52221648541E+02  0.75895322239E+02  0.00000000000E+00 0.  1.
</event>
<event>
 7    1  0.2384639E-009  0.1941946E+03  0.7561462E-02  0.1154732E+00
          2   -1    0    0  501    0  0.00000000000E+00  0.00000000000E+00  0.18479852553E+03  0.18479852553E+03  0.00000000000E+00 0. -1.
         -2   -1    0    0    0  501 -0.00000000000E+00 -0.00000000000E+00 -0.23387803085E+03  0.23387803085E+03  0.00000000000E+00 0.  1.
         25    2    1    2    0    0  0.15524927142E+03 -0.83714915477E+02 -0.44619628497E+02  0.22079230112E+03  0.12509118929E+03 0.  0.
          5    1    3    3  502    0  0.17174791076E+03 -0.68455135205E+02 -0.18157751373E+02  0.18582418229E+03  0.41800000000E+01 0.  1.
         -5    1    3    3    0  502 -0.16498639344E+02 -0.15259780272E+02 -0.26461877124E+02  0.34968118838E+02  0.41800000000E+01 0.  1.
        -11    1    1    2    0    0 -0.12002180648E+03  0.44816964716E+02  0.34317769871E+02  0.13263296606E+03  0.00000000000E+00 0. -1.
         11    1    1    2    0    0 -0.35227464935E+02  0.38897950760E+02 -0.38777646693E+02  0.65251289199E+02  0.00000000000E+00 0.  1.
</event>
<event>
 7    1  0.2384639E-009  0.1713882E+03  0.7561462E-02  0.1176408E+00
         -2   -1    0    0    0  501 -0.00000000000E+00  0.00000000000E+00  0.10125497241E+03  0.10125497241E+03  0.00000000000E+00 0.  1.
          2   -1    0    0  501    0  0.00000000000E+00 -0.00000000000E+00 -0.36676731648E+03  0.36676731648E+03  0.00000000000E+00 0. -1.
         25    2    1    2    0    0  0.15497224089E+03 -0.35829985730E+02 -0.12916649296E+03  0.24006727467E+03  0.12509248635E+03 0.  0.
          5    1    3    3  502    0  0.11658689282E+03 -0.13934730975E+02 -0.16086448648E+02  0.11858721067E+03  0.41800000000E+01 0.  1.
         -5    1    3    3    0  502  0.38385348068E+02 -0.21895254755E+02 -0.11308004431E+03  0.12148006400E+03  0.41800000000E+01 0.  1.
        -11    1    1    2    0    0 -0.15903427694E+02 -0.24578520603E+02 -0.34770101286E+02  0.45453081644E+02  0.00000000000E+00 0. -1.
         11    1    1    2    0    0 -0.13906881319E+03  0.60408506333E+02 -0.10157574983E+03  0.18250193258E+03  0.00000000000E+00 0.  1.
</event>
<event>
 7    1  0.2384639E-009  0.1181266E+03  0.7561462E-02  0.1246220E+00
          1   -1    0    0  501    0  0.00000000000E+00  0.00000000000E+00  0.40892845681E+02  0.40892845681E+02  0.00000000000E+00 0. -1.
         -1   -1    0    0    0  501 -0.00000000000E+00 -0.00000000000E+00 -0.44380662040E+03  0.44380662040E+03  0.00000000000E+00 0.  1.
         25    2    1    2    0    0  0.76278341594E+02  0.17130359894E+02 -0.23623740840E+03  0.27850798435E+03  0.12508696812E+03 0.  0.
          5    1    3    3  502    0  0.93890079683E+02  0.56563799504E+01 -0.23902114209E+03  0.25689671166E+03  0.41800000000E+01 0.  1.
         -5    1    3    3    0  502 -0.17611738089E+02  0.11473979943E+02  0.27837336839E+01  0.21611272694E+02  0.41800000000E+01 0.  1.
        -11    1    1    2    0    0 -0.97689230858E+02 -0.17553414221E+02 -0.14503609268E+03  0.17574634095E+03  0.00000000000E+00 0.  1.
         11    1    1    2    0    0  0.21410889264E+02  0.42305432695E+00 -0.21640273633E+02  0.30445140778E+02  0.00000000000E+00 0. -1.
</event>
<event>
 7    1  0.2384639E-009  0.1055241E+03  0.7561462E-02  0.1269090E+00
          3   -1    0    0  501    0  0.00000000000E+00  0.00000000000E+00  0.10271133876E+03  0.10271133876E+03  0.00000000000E+00 0. -1.
         -3   -1    0    0    0  501 -0.00000000000E+00 -0.00000000000E+00 -0.12983909338E+03  0.12983909338E+03  0.00000000000E+00 0.  1.
         25    2    1    2    0    0 -0.26632298857E+02 -0.13169474293E+01  0.12514588886E+02  0.12850921982E+03  0.12508793288E+03 0.  0.
          5    1    3    3  502    0 -0.39996034231E+02 -0.50106270399E+02  0.34807235422E+02  0.73070767926E+02  0.41800000000E+01 0.  1.
         -5    1    3    3    0  502  0.13363735374E+02  0.48789322970E+02 -0.22292646536E+02  0.55438451895E+02  0.41800000000E+01 0.  1.
        -11    1    1    2    0    0  0.16053758465E+02 -0.45393270235E+02 -0.22789949225E+02  0.53269634213E+02  0.00000000000E+00 0. -1.
         11    1    1    2    0    0  0.10578540393E+02  0.46710217664E+02 -0.16852394280E+02  0.50771578113E+02  0.00000000000E+00 0.  1.
</event>
<event>
 7    1  0.2384639E-009  0.1260886E+03  0.7561462E-02  0.1233378E+00
          2   -1    0    0  501    0  0.00000000000E+00  0.00000000000E+00  0.86730266922E+03  0.86730266922E+03  0.00000000000E+00 0. -1.
         -2   -1    0    0    0  501 -0.00000000000E+00 -0.00000000000E+00 -0.31616429690E+02  0.31616429690E+02  0.00000000000E+00 0.  1.
         25    2    1    2    0    0  0.64609224224E+02  0.10682191188E+03  0.48279026364E+03  0.51411913599E+03  0.12508706814E+03 0.  0.
          5    1    3    3  502    0  0.49423084569E+02  0.79568993515E+02  0.13195612714E+03  0.16187574836E+03  0.41800000000E+01 0. -1.
         -5    1    3    3    0  502  0.15186139655E+02  0.27252918367E+02  0.35083413650E+03  0.35224338763E+03  0.41800000000E+01 0. -1.
        -11    1    1    2    0    0 -0.55303216642E+02 -0.71393817656E+02  0.32874850281E+03  0.34092682657E+03  0.00000000000E+00 0. -1.
         11    1    1    2    0    0 -0.93060075821E+01 -0.35428094226E+02  0.24147473083E+02  0.43873136358E+02  0.00000000000E+00 0.  1.
</event>
<event>
 7    1  0.2384639E-009  0.1632553E+03  0.7561462E-02  0.1185070E+00
          1   -1    0    0  501    0  0.00000000000E+00  0.00000000000E+00  0.14993537705E+03  0.14993537705E+03  0.00000000000E+00 0. -1.
         -1   -1    0    0    0  501 -0.00000000000E+00 -0.00000000000E+00 -0.23071112908E+03  0.23071112908E+03  0.00000000000E+00 0.  1.
         25    2    1    2    0    0 -0.36353388345E+02  0.14091908484E+03 -0.76437813946E+02  0.20657004634E+03  0.12509471343E+03 0.  0.
          5    1    3    3  502    0 -0.26755164626E+02  0.27499422685E+02 -0.83974828469E+02  0.92419160884E+02  0.41800000000E+01 0. -1.
         -5    1    3    3    0  502 -0.95982237191E+01  0.11341966216E+03  0.75370145227E+01  0.11415088546E+03  0.41800000000E+01 0. -1.
        -11    1    1    2    0    0  0.65199655458E+02 -0.12520899878E+03 -0.28663752913E+01  0.14119668748E+03  0.00000000000E+00 0.  1.
         11    1    1    2    0    0 -0.28846267112E+02 -0.15710086061E+02 -0.14715627855E+01  0.32879772314E+02  0.00000000000E+00 0. -1.
</event>
<event>
 7    1  0.2384639E-009  0.1124793E+03  0.7561462E-02  0.1256046E+00
          2   -1    0    0  501    0  0.00000000000E+00  0.00000000000E+00  0.11962172588E+04  0.11962172588E+04  0.00000000000E+00 0. -1.
         -2   -1    0    0    0  501 -0.00000000000E+00 -0.00000000000E+00 -0.11955027262E+02  0.11955027262E+02  0.00000000000E+00 0.  1.
         25    2    1    2    0    0  0.64462838927E+01 -0.42944552117E+02  0.81085416073E+03  0.82159514506E+03  0.12509325836E+03 0.  0.
          5    1    3    3  502    0  0.43246794042E+02  0.23115130768E+02  0.19555837074E+03  0.20165600222E+03  0.41800000000E+01 0.  1.
         -5    1    3    3    0  502 -0.36800510150E+02 -0.66059682885E+02  0.61529578998E+03  0.61993914284E+03  0.41800000000E+01 0.  1.
        -11    1    1    2    0    0 -0.38180383065E+02 -0.89189496158E+01  0.15113509850E+03  0.15613810333E+03  0.00000000000E+00 0. -1.
         11    1    1    2    0    0  0.31734099173E+02  0.51863501733E+02  0.22227297231E+03  0.23043903767E+03  0.00000000000E+00 0.  1.
</event>
<event>
 7    1  0.3223083E-009  0.1034377E+03  0.7561462E-02  0.1273229E+00
          2   -1    0    0  501    0  0.00000000000E+00  0.00000000000E+00  0.31784179035E+03  0.31784179035E+03  0.00000000000E+00 0. -1.
         -2   -1    0    0    0  501 -0.00000000000E+00 -0.00000000000E+00 -0.68821492777E+02  0.68821492777E+02  0.00000000000E+00 0.  1.
         25    2    1    2    0    0 -0.21765767749E+02  0.95950744249E+02  0.11194155719E+03  0.19457298160E+03  0.12508972370E+03 0.  0.
          5    1    3    3  502    0 -0.69504797419E+01  0.57064972275E+02  0.13501857606E+03  0.14680670458E+03  0.41800000000E+01 0.  1.
         -5    1    3    3    0  502 -0.14815288007E+02  0.38885771974E+02 -0.23077018867E+02  0.47766277022E+02  0.41800000000E+01 0.  1.
        -11    1    1    2    0    0 -0.13191054637E+02 -0.30021073314E+02  0.10651818408E+03  0.11145130015E+03  0.00000000000E+00 0. -1.
         11    1    1    2    0    0  0.34956822387E+02 -0.65929670935E+02  0.30560556303E+02  0.80639001373E+02  0.00000000000E+00 0.  1.
</event>
<event>
 7    1  0.2384639E-009  0.1799348E+03  0.7561462E-02  0.1167866E+00
          1   -1    0    0  501    0  0.00000000000E+00  0.00000000000E+00  0.10408369637E+03  0.10408369637E+03  0.00000000000E+00 0. -1.
         -1   -1    0    0    0  501 -0.00000000000E+00 -0.00000000000E+00 -0.34112618221E+03  0.34112618221E+03  0.00000000000E+00 0.  1.
         25    2    1    2    0    0  0.82518751191E+02 -0.12912914761E+03 -0.10909975236E+03  0.22590808505E+03  0.12509206955E+03 0.  0.
          5    1    3    3  502    0  0.10846609860E+03 -0.12296577356E+03 -0.11221522462E+03  0.19873400577E+03  0.41800000000E+01 0.  1.
         -5    1    3    3    0  502 -0.25947347408E+02 -0.61633740500E+01  0.31154722590E+01  0.27174079278E+02  0.41800000000E+01 0.  1.
        -11    1    1    2    0    0 -0.76851726809E+02  0.54992735252E+02 -0.10550057771E+03  0.14163601499E+03  0.00000000000E+00 0.  1.
         11    1    1    2    0    0 -0.56670243819E+01  0.74136412355E+02 -0.22442155771E+02  0.77665778550E+02  0.00000000000E+00 0. -1.
</event>
<event>
 7    1  0.2384639E-009  0.8714574E+02  0.7561462E-02  0.1309915E+00
          2   -1    0    0  501    0  0.00000000000E+00  0.00000000000E+00  0.54963891311E+03  0.54963891311E+03  0.00000000000E+00 0. -1.
         -2   -1    0    0    0  501 -0.00000000000E+00 -0.00000000000E+00 -0.23888060920E+02  0.23888060920E+02  0.00000000000E+00 0.  1.
         25    2    1    2    0    0  0.11714105560E+02 -0.14877581947E+02  0.37588821120E+03  0.39660878149E+03  0.12509202822E+03 0.  0.
          5    1    3    3  502    0  0.58146039926E+02 -0.68224159008E+01  0.30992314943E+03  0.31543198676E+03  0.41800000000E+01 0.  1.
         -5    1    3    3    0  502 -0.46431934366E+02 -0.80551660465E+01  0.65965061765E+02  0.81176794730E+02  0.41800000000E+01 0.  1.
        -11    1    1    2    0    0  0.12968958092E+02 -0.21033957953E+02  0.44393164604E+01  0.25106349631E+02  0.00000000000E+00 0.  1.
         11    1    1    2    0    0 -0.24683063652E+02  0.35911539900E+02  0.14542332453E+03  0.15181184291E+03  0.00000000000E+00 0. -1.
</event>
<event>
 7    1  0.2384639E-009  0.1403808E+03  0.7561462E-02  0.1212818E+00
         -1   -1    0    0    0  501 -0.00000000000E+00  0.00000000000E+00  0.53078167043E+02  0.53078167043E+02  0.00000000000E+00 0.  1.
          1   -1    0    0  501    0  0.00000000000E+00 -0.00000000000E+00 -0.51198476380E+03  0.51198476380E+03  0.00000000000E+00 0. -1.
         25    2    1    2    0    0 -0.13265634949E+02 -0.10934355234E+03 -0.14933628669E+03  0.22378749415E+03  0.12509007357E+03 0.  0.
          5    1    3    3  502    0  0.89725505289E+01  0.20547522841E+02 -0.60892093548E+02  0.65023279021E+02  0.41800000000E+01 0. -1.
         -5    1    3    3    0  502 -0.22238185478E+02 -0.12989107518E+03 -0.88444193142E+02  0.15876421513E+03  0.41800000000E+01 0. -1.
        -11    1    1    2    0    0  0.23416282544E+02  0.87427022721E+01 -0.13483323300E+02  0.28399949620E+02  0.00000000000E+00 0.  1.
         11    1    1    2    0    0 -0.10150647594E+02  0.10060085006E+03 -0.29608698677E+03  0.31287548708E+03  0.00000000000E+00 0. -1.
</event>
<event>
 7    1  0.2384639E-009  0.1273080E+03  0.7561462E-02  0.1231506E+00
         -3   -1    0    0    0  501 -0.00000000000E+00  0.00000000000E+00  0.34968967310E+03  0.34968967310E+03  0.00000000000E+00 0.  1.
          3   -1    0    0  501    0  0.00000000000E+00 -0.00000000000E+00 -0.60801736387E+02  0.60801736387E+02  0.00000000000E+00 0. -1.
         25    2    1    2    0    0 -0.40938899052E+02 -0.81404629567E+02  0.20233172164E+03  0.25472903180E+03  0.12508415923E+03 0.  0.
          5    1    3    3  502    0 -0.62215675938E+02 -0.99166398706E+02  0.11974113078E+03  0.16751171829E+03  0.41800000000E+01 0. -1.
         -5    1    3    3    0  502  0.21276776886E+02  0.17761769138E+02  0.82590590859E+02  0.87217313510E+02  0.41800000000E+01 0. -1.
        -11    1    1    2    0    0  0.77138948765E+01  0.75262165688E+02  0.94498786540E+02  0.12105337011E+03  0.00000000000E+00 0.  1.
         11    1    1    2    0    0  0.33225004176E+02  0.61424638792E+01 -0.79425714673E+01  0.34709007570E+02  0.00000000000E+00 0. -1.
</event>
<event>
 7    1  0.2384639E-009  0.1074148E+03  0.7561462E-02  0.1265434E+00
          1   -1    0    0  501    0  0.00000000000E+00  0.00000000000E+00  0.43245157353E+02  0.43245157353E+02  0.00000000000E+00 0. -1.
         -1   -1    0    0    0  501 -0.00000000000E+00 -0.00000000000E+00 -0.38173588675E+03  0.38173588675E+03  0.00000000000E+00 0.  1.
         25    2    1    2    0    0 -0.66630103461E+02 -0.57768560707E+01 -0.16990746490E+03  0.22133602939E+03  0.12509255983E+03 0.  0.
          5    1    3    3  502    0 -0.50955520032E+02  0.32938039322E+02 -0.17546912042E+02  0.63298862378E+02  0.41800000000E+01 0.  1.
         -5    1    3    3    0  502 -0.15674583429E+02 -0.38714895392E+02 -0.15236055286E+03  0.15803716702E+03  0.41800000000E+01 0.  1.
        -11    1    1    2    0    0  0.70567022409E+02 -0.29539324997E+02 -0.13252186894E+03  0.15301739156E+03  0.00000000000E+00 0.  1.
         11    1    1    2    0    0 -0.39369189475E+01  0.35316181068E+02 -0.36061395555E+02  0.50627623146E+02  0.00000000000E+00 0. -1.
</event>
<event>
 7    1  0.2384639E-009  0.1482017E+03  0.7561462E-02  0.1202700E+00
          4   -1    0    0  501    0  0.00000000000E+00  0.00000000000E+00  0.92167918256E+03  0.92167918256E+03  0.00000000000E+00 0.  1.
         -4   -1    0    0    0  501 -0.00000000000E+00 -0.00000000000E+00 -0.65422639867E+02  0.65422639867E+02  0.00000000000E+00 0. -1.
         25    2    1    2    0    0  0.10382761582E+03  0.10718375998E+02  0.82983894569E+03  0.84568023054E+03  0.12508924473E+03 0.  0.
          5    1    3    3  502    0  0.69253532756E+02 -0.55002091643E+02  0.45394044270E+03  0.46249397812E+03  0.41800000000E+01 0.  1.
         -5    1    3    3    0  502  0.34574083063E+02  0.65720467641E+02  0.37589850300E+03  0.38318625242E+03  0.41800000000E+01 0.  1.
        -11    1    1    2    0    0 -0.79968153005E+01 -0.33952897706E+02  0.24803021034E+02  0.42801146830E+02  0.00000000000E+00 0.  1.
         11    1    1    2    0    0 -0.95830800519E+02  0.23234521708E+02  0.16145759647E+01  0.98620445054E+02  0.00000000000E+00 0. -1.
</event>
<event>
 7    1  0.2384639E-009  0.2498895E+03  0.7561462E-02  0.1113375E+00
         -1   -1    0    0    0  501 -0.00000000000E+00  0.00000000000E+00  0.73106727433E+02  0.73106727433E+02  0.00000000000E+00 0.  1.
          1   -1    0    0  501    0  0.00000000000E+00 -0.00000000000E+00 -0.10563817967E+04  0.10563817967E+04  0.00000000000E+00 0. -1.
         25    2    1    2    0    0 -0.70978668424E+02  0.21661577359E+03 -0.73740825832E+03  0.78190706090E+03  0.12508935889E+03 0.  0.
          5    1    3    3  502    0  0.35187317146E+02  0.36328602244E+02 -0.14469992667E+03  0.15334097889E+03  0.41800000000E+01 0.  1.
         -5    1    3    3    0  502 -0.10616598557E+03  0.18028717134E+03 -0.59270833166E+03  0.62856608202E+03  0.41800000000E+01 0.  1.
        -11    1    1    2    0    0  0.84069016477E+02 -0.15071189922E+03 -0.14012922601E+03  0.22230131822E+03  0.00000000000E+00 0.  1.
         11    1    1    2    0    0 -0.13090348053E+02 -0.65903874364E+02 -0.10573758497E+03  0.12528014505E+03  0.00000000000E+00 0. -1.
</event>
<event>
 7    1  0.2384639E-009  0.1389972E+03  0.7561462E-02  0.1214685E+00
          1   -1    0    0  501    0  0.00000000000E+00  0.00000000000E+00  0.89034479428E+02  0.89034479428E+02  0.00000000000E+00 0. -1.
         -1   -1    0    0    0  501 -0.00000000000E+00 -0.00000000000E+00 -0.29400778411E+03  0.29400778411E+03  0.00000000000E+00 0.  1.
         25    2    1    2    0    0  0.53230162812E+01  0.97898897494E+02 -0.19596604604E+03  0.25231406041E+03  0.12508862956E+03 0.  0.
          5    1    3    3  502    0 -0.13745857338E+02  0.12282298756E+03 -0.13160189074E+03  0.18058506282E+03  0.41800000000E+01 0. -1.
         -5    1    3    3    0  502  0.19068873619E+02 -0.24924090070E+02 -0.64364155300E+02  0.71728997584E+02  0.41800000000E+01 0. -1.
        -11    1    1    2    0    0 -0.23874405906E+02 -0.87194949820E+00  0.16092505609E+02  0.28804796303E+02  0.00000000000E+00 0.  1.
         11    1    1    2    0    0  0.18551389625E+02 -0.97026947996E+02 -0.25099764251E+02  0.10192340683E+03  0.00000000000E+00 0. -1.
</event>
<event>
 7    1  0.2384639E-009  0.1813527E+03  0.7561462E-02  0.1166500E+00
          2   -1    0    0  501    0  0.00000000000E+00  0.00000000000E+00  0.61153949212E+03  0.61153949212E+03  0.00000000000E+00 0. -1.
         -2   -1    0    0    0  501 -0.00000000000E+00 -0.00000000000E+00 -0.56429597967E+02  0.56429597967E+02  0.00000000000E+00 0.  1.
         25    2    1    2    0    0 -0.11157732339E+03 -0.99929392708E+02  0.26139715963E+03  0.32620753973E+03  0.12508997279E+03 0.  0.
          5    1    3    3  502    0 -0.11688004207E+03 -0.12300524116E+03  0.21473153686E+03  0.27371214607E+03  0.41800000000E+01 0.  1.
         -5    1    3    3    0  502  0.53027186765E+01  0.23075848448E+02  0.46665622769E+02  0.52495393658E+02  0.41800000000E+01 0.  1.
        -11    1    1    2    0    0  0.48794556156E+02 -0.24255662362E+01  0.49091093254E+02  0.69258411178E+02  0.00000000000E+00 0.  1.
         11    1    1    2    0    0  0.62782767238E+02  0.10235495894E+03  0.24462164128E+03  0.27250313918E+03  0.00000000000E+00 0. -1.
</event>
<event>
 7    1  0.2384639E-009  0.8915761E+02  0.7561462E-02  0.1304905E+00
         -1   -1    0    0    0  501 -0.00000000000E+00  0.00000000000E+00  0.12206921947E+03  0.12206921947E+03  0.00000000000E+00 0.  1.
          1   -1    0    0  501    0  0.00000000000E+00 -0.00000000000E+00 -0.12000293589E+03  0.12000293589E+03  0.00000000000E+00 0. -1.
         25    2    1    2    0    0 -0.13509009812E+02 -0.48714775005E+01  0.12150456389E+02  0.12649427046E+03  0.12508773813E+03 0.  0.
          5    1    3    3  502    0 -0.18541954909E+02  0.57348574471E+02 -0.75888119915E+01  0.60891095845E+02  0.41800000000E+01 0. -1.
         -5    1    3    3    0  502  0.50329450978E+01 -0.62220051972E+02  0.19739268380E+02  0.65603174618E+02  0.41800000000E+01 0. -1.
        -11    1    1    2    0    0 -0.20156506172E+02  0.76418064456E+01 -0.55175653941E+02  0.59237106062E+02  0.00000000000E+00 0. -1.
         11    1    1    2    0    0  0.33665515984E+02 -0.27703289451E+01  0.45091481134E+02  0.56340778835E+02  0.00000000000E+00 0.  1.
</event>
<event>
 7    1  0.2384639E-009  0.2032744E+03  0.7561462E-02  0.1147005E+00
          2   -1    0    0  501    0  0.00000000000E+00  0.00000000000E+00  0.24238256115E+04  0.24238256115E+04  0.00000000000E+00 0. -1.
         -2   -1    0    0    0  501 -0.00000000000E+00 -0.00000000000E+00 -0.21033534397E+02  0.21033534397E+02  0.00000000000E+00 0.  1.
         25    2    1    2    0    0  0.14116773822E+03 -0.10530958190E+03  0.17424299588E+04  0.17557699507E+04  0.12509004845E+03 0.  0.
          5    1    3    3  502    0  0.74526032430E+02  0.14757494122E+02  0.49796574433E+03  0.50374524123E+03  0.41800000000E+01 0.  1.
         -5    1    3    3    0  502  0.66641705794E+02 -0.12006707602E+03  0.12444642144E+04  0.12520247095E+04  0.41800000000E+01 0.  1.
        -11    1    1    2    0    0 -0.56903714153E+02  0.91407598028E+02  0.29974276680E+03  0.31849506732E+03  0.00000000000E+00 0.  1.
         11    1    1    2    0    0 -0.84264024071E+02  0.13901983873E+02  0.36061935150E+03  0.37059412783E+03  0.00000000000E+00 0. -1.
</event>
<event>
 7    1  0.2384639E-009  0.1327852E+03  0.7561462E-02  0.1223381E+00
         -2   -1    0    0    0  501 -0.00000000000E+00  0.00000000000E+00  0.63527512335E+02  0.63527512335E+02  0.00000000000E+00 0.  1.
          2   -1    0    0  501    0  0.00000000000E+00 -0.00000000000E+00 -0.37826564078E+03  0.37826564078E+03  0.00000000000E+00 0. -1.
         25    2    1    2    0    0 -0.49858706594E+02 -0.68366161493E+02 -0.27199113789E+03  0.31110497639E+03  0.12508918653E+03 0.  0.
          5    1    3    3  502    0 -0.75093070978E+02 -0.35758248759E+01 -0.97243029852E+02  0.12298550763E+03  0.41800000000E+01 0.  1.
         -5    1    3    3    0  502  0.25234364385E+02 -0.64790336617E+02 -0.17474810804E+03  0.18811946876E+03  0.41800000000E+01 0.  1.
        -11    1    1    2    0    0 -0.21876034479E+02  0.35534893140E+02 -0.17133717975E+01  0.41763921726E+02  0.00000000000E+00 0. -1.
         11    1    1    2    0    0  0.71734741073E+02  0.32831268353E+02 -0.41033618763E+02  0.88924255000E+02  0.00000000000E+00 0.  1.
</event>
<event>
 7    1  0.2384639E-009  0.1071652E+03  0.7561462E-02  0.1265911E+00
          1   -1    0    0  501    0  0.00000000000E+00  0.00000000000E+00  0.40912846590E+03  0.40912846590E+03  0.00000000000E+00 0. -1.
         -1   -1    0    0    0  501 -0.00000000000E+00 -0.00000000000E+00 -0.39909625691E+02  0.39909625691E+02  0.00000000000E+00 0.  1.
         25    2    1    2    0    0  0.53756612996E+02  0.29700883682E+02  0.25591843918E+03  0.29140768275E+03  0.12510904893E+03 0.  0.
          5    1    3    3  502    0  0.61983625072E+02  0.54358356423E+02  0.25151400292E+03  0.26471412270E+03  0.41800000000E+01 0.  1.
         -5    1    3    3    0  502 -0.82270120753E+01 -0.24657472741E+02  0.44044362562E+01  0.26693560055E+02  0.41800000000E+01 0.  1.
        -11    1    1    2    0    0 -0.21143818965E+02  0.30426435664E+02  0.20500317296E+02  0.42344917958E+02  0.00000000000E+00 0.  1.
         11    1    1    2    0    0 -0.32612794032E+02 -0.60127319345E+02  0.92800083737E+02  0.11528549088E+03  0.00000000000E+00 0. -1.
</event>
<event>
 7    1  0.2384639E-009  0.1212545E+03  0.7561462E-02  0.1241042E+00
         -3   -1    0    0    0  501 -0.00000000000E+00  0.00000000000E+00  0.14988644377E+03  0.14988644377E+03  0.00000000000E+00 0.  1.
          3   -1    0    0  501    0  0.00000000000E+00 -0.00000000000E+00 -0.10685535778E+03  0.10685535778E+03  0.00000000000E+00 0. -1.
         25    2    1    2    0    0 -0.37267065233E+02 -0.53686226619E+02  0.44774679857E+02  0.14806483693E+03  0.12508948356E+03 0.  0.
          5    1    3    3  502    0 -0.78874414112E+02 -0.21790233258E+02  0.49315501957E+01  0.82083981716E+02  0.41800000000E+01 0.  1.
         -5    1    3    3    0  502  0.41607348879E+02 -0.31895993361E+02  0.39843129661E+02  0.65980855211E+02  0.41800000000E+01 0.  1.
        -11    1    1    2    0    0  0.93893461579E+01 -0.23825033966E+02  0.47655659991E+01  0.26048084076E+02  0.00000000000E+00 0.  1.
         11    1    1    2    0    0  0.27877719075E+02  0.77511260585E+02 -0.65091598594E+01  0.82628880547E+02  0.00000000000E+00 0. -1.
</event>
<event>
 7    1  0.2384639E-009  0.6955253E+02  0.7561462E-02  0.1361621E+00
          2   -1    0    0  501    0  0.00000000000E+00  0.00000000000E+00  0.55633426805E+03  0.55633426805E+03  0.00000000000E+00 0. -1.
         -2   -1    0    0    0  501 -0.00000000000E+00 -0.00000000000E+00 -0.23334263798E+02  0.23334263798E+02  0.00000000000E+00 0.  1.
         25    2    1    2    0    0 -0.91806689045E+00  0.32798103372E+02  0.26655785460E+03  0.29627247018E+03  0.12509088019E+03 0.  0.
          5    1    3    3  502    0  0.62092226075E+01 -0.90149621089E+01  0.25042621114E+03  0.25070018671E+03  0.41800000000E+01 0. -1.
         -5    1    3    3    0  502 -0.71272894980E+01  0.41813065481E+02  0.16131643461E+02  0.45572283476E+02  0.41800000000E+01 0. -1.
        -11    1    1    2    0    0  0.19001944508E+02  0.20815736893E+02  0.33982976396E+02  0.44149875223E+02  0.00000000000E+00 0. -1.
         11    1    1    2    0    0 -0.18083877618E+02 -0.53613840265E+02  0.23245917325E+03  0.23924618644E+03  0.00000000000E+00 0.  1.
</event>
<event>
 7    1  0.2384639E-009  0.1328043E+03  0.7561462E-02  0.1223353E+00
         -1   -1    0    0    0  501 -0.00000000000E+00  0.00000000000E+00  0.48837695314E+02  0.48837695314E+02  0.00000000000E+00 0.  1.
          1   -1    0    0  501    0  0.00000000000E+00 -0.00000000000E+00 -0.43188370752E+03  0.43188370752E+03  0.00000000000E+00 0. -1.
         25    2    1    2    0    0 -0.15070860847E+01  0.93709964830E+02 -0.18118123875E+03  0.23928728526E+03  0.12509170554E+03 0.  0.
          5    1    3    3  502    0 -0.21820198664E+02  0.10968144723E+03 -0.87609754808E+02  0.14212347615E+03  0.41800000000E+01 0.  1.
         -5    1    3    3    0  502  0.20313112579E+02 -0.15971482402E+02 -0.93571483941E+02  0.97163809105E+02  0.41800000000E+01 0.  1.
        -11    1    1    2    0    0 -0.36961788526E+02 -0.77336347833E+02 -0.10239939724E+03  0.13353921171E+03  0.00000000000E+00 0.  1.
         11    1    1    2    0    0  0.38468874610E+02 -0.16373616997E+02 -0.99465376210E+02  0.10789490587E+03  0.00000000000E+00 0. -1.
</event>
<event>
 7    1  0.2384639E-009  0.2040759E+03  0.7561462E-02  0.1146345E+00
          2   -1    0    0  501    0  0.00000000000E+00  0.00000000000E+00  0.20489440736E+04  0.20489440736E+04  0.00000000000E+00 0. -1.
         -2   -1    0    0    0  501 -0.00000000000E+00 -0.00000000000E+00 -0.28941141968E+02  0.28941141968E+02  0.00000000000E+00 0.  1.
         25    2    1    2    0    0 -0.17555059898E+03  0.36223476809E+02  0.15422680324E+04  0.15576806427E+04  0.12509255710E+03 0.  0.
          5    1    3    3  502    0 -0.19485855791E+03  0.37533056004E+02  0.14241269904E+04  0.14378921188E+04  0.41800000000E+01 0.  1.
         -5    1    3    3    0  502  0.19307958932E+02 -0.13095791946E+01  0.11814104199E+03  0.11978852398E+03  0.41800000000E+01 0.  1.
        -11    1    1    2    0    0  0.12614806730E+03  0.39254999242E+01  0.21001845536E+03  0.24502346015E+03  0.00000000000E+00 0.  1.
         11    1    1    2    0    0  0.49402531682E+02 -0.40148976733E+02  0.26771644384E+03  0.27518111267E+03  0.00000000000E+00 0. -1.
</event>
<event>
 7    1  0.2384639E-009  0.1106940E+03  0.7561462E-02  0.1259290E+00
          1   -1    0    0  501    0  0.00000000000E+00  0.00000000000E+00  0.12473741207E+03  0.12473741207E+03  0.00000000000E+00 0. -1.
         -1   -1    0    0    0  501 -0.00000000000E+00 -0.00000000000E+00 -0.11280949146E+03  0.11280949146E+03  0.00000000000E+00 0.  1.
         25    2    1    2    0    0 -0.44723065373E+02 -0.75963998514E+01 -0.19764926906E+02  0.13452107393E+03  0.12508960440E+03 0.  0.
          5    1    3    3  502    0 -0.67513142408E+02  0.38544955692E+02 -0.26960682617E+02  0.82389858686E+02  0.41800000000E+01 0. -1.
         -5    1    3    3    0  502  0.22790077034E+02 -0.46141355544E+02  0.71957557114E+01  0.52131215245E+02  0.41800000000E+01 0. -1.
        -11    1    1    2    0    0  0.51400682109E+01  0.40257153611E+02 -0.35998346573E+01  0.40743312673E+02  0.00000000000E+00 0.  1.
         11    1    1    2    0    0  0.39582997162E+02 -0.32660753759E+02  0.35292682169E+02  0.62282516930E+02  0.00000000000E+00 0. -1.
</event>
<event>
 7    1  0.2384639E-009  0.8939080E+02  0.7561462E-02  0.1304334E+00
         -4   -1    0    0    0  501 -0.00000000000E+00  0.00000000000E+00  0.11980421894E+03  0.11980421894E+03  0.00000000000E+00 0.  1.
          4   -1    0    0  501    0  0.00000000000E+00 -0.00000000000E+00 -0.13739228759E+03  0.13739228759E+03  0.00000000000E+00 0. -1.
         25    2    1    2    0    0  0.64655434780E+02  0.36783685169E+02  0.28657225463E+02  0.14833208231E+03  0.12509118806E+03 0.  0.
          5    1    3    3  502    0  0.51509729458E+02  0.47051500497E+02  0.72824355931E+02  0.10093540085E+03  0.41800000000E+01 0.  1.
         -5    1    3    3    0  502  0.13145705322E+02 -0.10267815328E+02 -0.44167130468E+02  0.47396681464E+02  0.41800000000E+01 0.  1.
        -11    1    1    2    0    0 -0.36695103106E+02  0.92435053442E+01 -0.39312119844E+02  0.54565701220E+02  0.00000000000E+00 0. -1.
         11    1    1    2    0    0 -0.27960331674E+02 -0.46027190513E+02 -0.69331742614E+01  0.54298722998E+02  0.00000000000E+00 0.  1.
</event>
<event>
 7    1  0.2384639E-009  0.7550700E+02  0.7561462E-02  0.1342308E+00
         -1   -1    0    0    0  501 -0.00000000000E+00  0.00000000000E+00  0.35498513068E+03  0.35498513068E+03  0.00000000000E+00 0.  1.
          1   -1    0    0  501    0  0.00000000000E+00 -0.00000000000E+00 -0.40131210598E+02  0.40131210598E+02  0.00000000000E+00 0. -1.
         25    2    1    2    0    0 -0.23211458722E+02 -0.27369827060E+01  0.24794097886E+03  0.27869010998E+03  0.12508871056E+03 0.  0.
          5    1    3    3  502    0  0.81511752797E+01  0.17846177781E+02 -0.67898571103E+01  0.21177872400E+02  0.41800000000E+01 0. -1.
         -5    1    3    3    0  502 -0.31362634001E+02 -0.20583160487E+02  0.25473083597E+03  0.25751223758E+03  0.41800000000E+01 0. -1.
        -11    1    1    2    0    0  0.42242694665E+02 -0.32407398215E+02  0.49964584174E+02  0.73014686080E+02  0.00000000000E+00 0. -1.
         11    1    1    2    0    0 -0.19031235943E+02  0.35144380921E+02  0.16948357047E+02  0.43411545220E+02  0.00000000000E+00 0.  1.
</event>
<event>
 7    1  0.2384639E-009  0.1490905E+03  0.7561462E-02  0.1201595E+00
         -2   -1    0    0    0  501 -0.00000000000E+00  0.00000000000E+00  0.12897744706E+04  0.12897744706E+04  0.00000000000E+00 0.  1.
          2   -1    0    0  501    0  0.00000000000E+00 -0.00000000000E+00 -0.21609686547E+02  0.21609686547E+02  0.00000000000E+00 0. -1.
         25    2    1    2    0    0  0.11094389257E+03  0.60004994794E+02  0.71583872399E+03  0.73755100649E+03  0.12508901517E+03 0.  0.
          5    1    3    3  502    0  0.10051950909E+03  0.22081793627E+02  0.25498064913E+03  0.27499887481E+03  0.41800000000E+01 0.  1.
         -5    1    3    3    0  502  0.10424383478E+02  0.37923201167E+02  0.46085807486E+03  0.46255213168E+03  0.41800000000E+01 0.  1.
        -11    1    1    2    0    0 -0.90527788007E+02  0.17928370071E+01  0.32056595098E+03  0.33310812598E+03  0.00000000000E+00 0.  1.
         11    1    1    2    0    0 -0.20416104565E+02 -0.61797831801E+02  0.23176010904E+03  0.24072502463E+03  0.00000000000E+00 0. -1.
</event>
<event>
 7    1  0.2384639E-009  0.1122684E+03  0.7561462E-02  0.1256426E+00
          2   -1    0    0  501    0  0.00000000000E+00  0.00000000000E+00  0.87068829867E+03  0.87068829867E+03  0.00000000000E+00 0. -1.
         -2   -1    0    0    0  501 -0.00000000000E+00 -0.00000000000E+00 -0.25177497575E+02  0.25177497575E+02  0.00000000000E+00 0.  1.
         25    2    1    2    0    0  0.22627679497E+02 -0.78632632415E+02  0.63711748594E+03  0.65441684379E+03  0.12509041443E+03 0.  0.
          5    1    3    3  502    0  0.44301070260E+02 -0.30072176217E+02  0.90746466107E+02  0.10544815845E+03  0.41800000000E+01 0.  1.
         -5    1    3    3    0  502 -0.21673390763E+02 -0.48560456198E+02  0.54637101984E+03  0.54896868535E+03  0.41800000000E+01 0.  1.
        -11    1    1    2    0    0 -0.33145574966E+02  0.93543021891E+02  0.19504399727E+03  0.21884032296E+03  0.00000000000E+00 0. -1.
         11    1    1    2    0    0  0.10517895469E+02 -0.14910389475E+02  0.13349317878E+02  0.22608629485E+02  0.00000000000E+00 0.  1.
</event>
<event>
 7    1  0.2384639E-009  0.9739233E+02  0.7561462E-02  0.1285877E+00
         -2   -1    0    0    0  501 -0.00000000000E+00  0.00000000000E+00  0.56872695125E+02  0.56872695125E+02  0.00000000000E+00 0.  1.
          2   -1    0    0  501    0  0.00000000000E+00 -0.00000000000E+00 -0.28868592688E+03  0.28868592688E+03  0.00000000000E+00 0. -1.
         25    2    1    2    0    0  0.41067045030E+02  0.28177379481E+02 -0.68382890812E+02  0.15101021314E+03  0.12508955918E+03 0.  0.
          5    1    3    3  502    0  0.69361532182E+02  0.36858634996E+02 -0.25381426403E+01  0.78698765482E+02  0.41800000000E+01 0. -1.
         -5    1    3    3    0  502 -0.28294487152E+02 -0.86812555148E+01 -0.65844748171E+02  0.72311447657E+02  0.41800000000E+01 0. -1.
        -11    1    1    2    0    0 -0.40659573877E+02 -0.49980310653E+02 -0.57372373062E+02  0.86271789083E+02  0.00000000000E+00 0.  1.
         11    1    1    2    0    0 -0.40747115296E+00  0.21802931172E+02 -0.10605796788E+03  0.10827661978E+03  0.00000000000E+00 0. -1.
</event>
<event>
 7    1  0.2384639E-009  0.1164430E+03  0.7561462E-02  0.1249083E+00
          2   -1    0    0  501    0  0.00000000000E+00  0.00000000000E+00  0.32061008531E+03  0.32061008531E+03  0.00000000000E+00 0. -1.
         -2   -1    0    0    0  501 -0.00000000000E+00 -0.00000000000E+00 -0.69467567731E+02  0.69467567731E+02  0.00000000000E+00 0.  1.
         25    2    1    2    0    0 -0.24899893576E+02  0.67659001024E+02  0.12586236137E+03  0.19153819709E+03  0.12509117400E+03 0.  0.
          5    1    3    3  502    0  0.34648102413E+02 -0.36802465320E+01  0.80978897301E+02  0.88255818071E+02  0.41800000000E+01 0.  1.
         -5    1    3    3    0  502 -0.59547995989E+02  0.71339247556E+02  0.44883464068E+02  0.10328237901E+03  0.41800000000E+01 0.  1.
        -11    1    1    2    0    0 -0.19369925287E+02  0.47128477291E+01 -0.21302910036E+02  0.29175656211E+02  0.00000000000E+00 0.  1.
         11    1    1    2    0    0  0.44269818863E+02 -0.72371848753E+02  0.14658306624E+03  0.16936379974E+03  0.00000000000E+00 0. -1.
</event>
<event>
 7    1  0.2384639E-009  0.8702549E+02  0.7561462E-02  0.1310219E+00
         -1   -1    0    0    0  501 -0.00000000000E+00  0.00000000000E+00  0.97550073500E+02  0.97550073500E+02  0.00000000000E+00 0.  1.
          1   -1    0    0  501    0  0.00000000000E+00 -0.00000000000E+00 -0.12000904069E+03  0.12000904069E+03  0.00000000000E+00 0. -1.
         25    2    1    2    0    0 -0.34039479829E+01  0.10617383793E+02 -0.26380721708E+02  0.12832490338E+03  0.12508805958E+03 0.  0.
          5    1    3    3  502    0  0.54955736969E+02  0.13520647475E+02  0.12377445181E+02  0.58082824339E+02  0.41800000000E+01 0. -1.
         -5    1    3    3    0  502 -0.58359684952E+02 -0.29032636819E+01 -0.38758166889E+02  0.70242079043E+02  0.41800000000E+01 0. -1.
        -11    1    1    2    0    0  0.18201855441E+01  0.23999294920E+02  0.35140515962E+02  0.42592664793E+02  0.00000000000E+00 0.  1.
         11    1    1    2    0    0  0.15837624388E+01 -0.34616678713E+02 -0.31218761442E+02  0.46641546014E+02  0.00000000000E+00 0. -1.
</event>
<event>
 7    1  0.2384639E-009  0.1208206E+03  0.7561462E-02  0.1241749E+00
         -1   -1    0    0    0  501 -0.00000000000E+00  0.00000000000E+00  0.45350567825E+03  0.45350567825E+03  0.00000000000E+00 0.  1.
          1   -1    0    0  501    0  0.00000000000E+00 -0.00000000000E+00 -0.41059223022E+02  0.41059223022E+02  0.00000000000E+00 0. -1.
         25    2    1    2    0    0 -0.59270967327E+02  0.34403579987E+02  0.31257074906E+03  0.34357455126E+03  0.12508535176E+03 0.  0.
          5    1    3    3  502    0 -0.44550323629E+02 -0.43572201079E+02  0.15473773520E+03  0.16686673466E+03  0.41800000000E+01 0.  1.
         -5    1    3    3    0  502 -0.14720643698E+02  0.77975781065E+02  0.15783301386E+03  0.17670781660E+03  0.41800000000E+01 0.  1.
        -11    1    1    2    0    0 -0.15046340168E+02 -0.18279756347E+02 -0.21143902389E+01  0.23769991389E+02  0.00000000000E+00 0. -1.
         11    1    1    2    0    0  0.74317307496E+02 -0.16123823639E+02  0.10199009641E+03  0.12722035862E+03  0.00000000000E+00 0.  1.
</event>
<event>
 7    1  0.2384639E-009  0.1778106E+03  0.7561462E-02  0.1169939E+00
         -2   -1    0    0    0  501 -0.00000000000E+00  0.00000000000E+00  0.57008051718E+03  0.57008051718E+03  0.00000000000E+00 0.  1.
          2   -1    0    0  501    0  0.00000000000E+00 -0.00000000000E+00 -0.71172341035E+02  0.71172341035E+02  0.00000000000E+00 0. -1.
         25    2    1    2    0    0  0.45727598016E+02 -0.13445795585E+03  0.40808324325E+03  0.44983259698E+03  0.12508987479E+03 0.  0.
          5    1    3    3  502    0  0.17711877151E+01 -0.14226789665E+03  0.27954295043E+03  0.31369575238E+03  0.41800000000E+01 0. -1.
         -5    1    3    3    0  502  0.43956410300E+02  0.78099407964E+01  0.12854029281E+03  0.13613684460E+03  0.41800000000E+01 0. -1.
        -11    1    1    2    0    0  0.17902439338E+02  0.87621863631E+02  0.45671890467E+02  0.10041917097E+03  0.00000000000E+00 0. -1.
         11    1    1    2    0    0 -0.63630037353E+02  0.46836092218E+02  0.45153042428E+02  0.91001090259E+02  0.00000000000E+00 0.  1.
</event>
<event>
 7    1  0.2384639E-009  0.3226201E+03  0.7561462E-02  0.1074450E+00
          3   -1    0    0  501    0  0.00000000000E+00  0.00000000000E+00  0.59086401928E+03  0.59086401928E+03  0.00000000000E+00 0. -1.
         -3   -1    0    0    0  501 -0.00000000000E+00 -0.00000000000E+00 -0.19831651251E+03  0.19831651251E+03  0.00000000000E+00 0.  1.
         25    2    1    2    0    0  0.25376104440E+03 -0.18201793753E+03  0.30243755873E+03  0.45237264769E+03  0.12508932094E+03 0.  0.
          5    1    3    3  502    0  0.12614407488E+03 -0.46462289416E+02  0.19652003276E+03  0.23813581764E+03  0.41800000000E+01 0.  1.
         -5    1    3    3    0  502  0.12761696952E+03 -0.13555564811E+03  0.10591752596E+03  0.21423683005E+03  0.41800000000E+01 0.  1.
        -11    1    1    2    0    0 -0.17070410567E+03  0.68660448840E+02  0.50061129951E+02  0.19068367958E+03  0.00000000000E+00 0.  1.
         11    1    1    2    0    0 -0.83056938733E+02  0.11335748869E+03  0.40048818087E+02  0.14612420451E+03  0.00000000000E+00 0. -1.
</event>
<event>
 7    1  0.2384639E-009  0.1065365E+03  0.7561462E-02  0.1267121E+00
         -2   -1    0    0    0  501 -0.00000000000E+00  0.00000000000E+00  0.21188887662E+02  0.21188887662E+02  0.00000000000E+00 0. -1.
          2   -1    0    0  501    0  0.00000000000E+00 -0.00000000000E+00 -0.76228377549E+03  0.76228377549E+03  0.00000000000E+00 0.  1.
         25    2    1    2    0    0  0.59347000353E+02  0.67665640592E+01 -0.50834911199E+03  0.52691078777E+03  0.12509318831E+03 0.  0.
          5    1    3    3  502    0  0.88414087984E+02 -0.50185010235E+01 -0.46421865215E+03  0.47260836399E+03  0.41800000000E+01 0.  1.
         -5    1    3    3    0  502 -0.29067087632E+02  0.11785065083E+02 -0.44130459842E+02  0.54302423779E+02  0.41800000000E+01 0.  1.
        -11    1    1    2    0    0 -0.68871249600E+02  0.13682471732E+02 -0.21937545346E+03  0.23033898636E+03  0.00000000000E+00 0.  1.
         11    1    1    2    0    0  0.95242492472E+01 -0.20449035792E+02 -0.13370322368E+02  0.26222889024E+02  0.00000000000E+00 0. -1.
</event>
<event>
 7    1  0.2384639E-009  0.1743048E+03  0.7561462E-02  0.1173432E+00
          2   -1    0    0  501    0  0.00000000000E+00  0.00000000000E+00  0.92281382415E+02  0.92281382415E+02  0.00000000000E+00 0. -1.
         -2   -1    0    0    0  501 -0.00000000000E+00 -0.00000000000E+00 -0.35338901249E+03  0.35338901249E+03  0.00000000000E+00 0.  1.
         25    2    1    2    0    0  0.25834524805E+02  0.14142132987E+03 -0.92801450849E+02  0.21195579312E+03  0.12508290748E+03 0.  0.
          5    1    3    3  502    0 -0.47322032804E+02  0.28973974040E+02 -0.19071387261E+02  0.58822242157E+02  0.41800000000E+01 0. -1.
         -5    1    3    3    0  502  0.73156557609E+02  0.11244735583E+03 -0.73730063589E+02  0.15313355096E+03  0.41800000000E+01 0. -1.
        -11    1    1    2    0    0 -0.10196998347E+02 -0.14269627647E+03 -0.16361552388E+03  0.21733901110E+03  0.00000000000E+00 0.  1.
         11    1    1    2    0    0 -0.15637526458E+02  0.12749465974E+01 -0.46906553434E+01  0.16375590680E+02  0.00000000000E+00 0. -1.
</event>
<event>
 7    1  0.2384639E-009  0.2127197E+03  0.7561462E-02  0.1139430E+00
         -1   -1    0    0    0  501 -0.00000000000E+00  0.00000000000E+00  0.54679769166E+03  0.54679769166E+03  0.00000000000E+00 0.  1.
          1   -1    0    0  501    0  0.00000000000E+00 -0.00000000000E+00 -0.93581993672E+02  0.93581993672E+02  0.00000000000E+00 0. -1.
         25    2    1    2    0    0  0.89697634377E+01  0.19663428542E+03  0.26873078146E+03  0.35582058376E+03  0.12508619452E+03 0.  0.
          5    1    3    3  502    0 -0.29611609209E+02  0.15480733363E+03  0.12509398952E+03  0.20126633240E+03  0.41800000000E+01 0.  1.
         -5    1    3    3    0  502  0.38581372647E+02  0.41826951793E+02  0.14363679194E+03  0.15455425135E+03  0.41800000000E+01 0.  1.
        -11    1    1    2    0    0  0.33005198515E+02 -0.10146996644E+03  0.12644660002E+03  0.16545162397E+03  0.00000000000E+00 0. -1.
         11    1    1    2    0    0 -0.41974961952E+02 -0.95164318981E+02  0.58038316495E+02  0.11910747760E+03  0.00000000000E+00 0.  1.
</event>
<event>
 7    1  0.2384639E-009  0.3232238E+03  0.7561462E-02  0.1074175E+00
         -2   -1    0    0    0  501 -0.00000000000E+00  0.00000000000E+00  0.17790930212E+03  0.17790930212E+03  0.00000000000E+00 0.  1.
          2   -1    0    0  501    0  0.00000000000E+00 -0.00000000000E+00 -0.64210973173E+03  0.64210973173E+03  0.00000000000E+00 0. -1.
         25    2    1    2    0    0  0.25098332480E+03 -0.19851818528E+03 -0.23691201886E+03  0.41734467990E+03  0.12508868032E+03 0.  0.
          5    1    3    3  502    0  0.25226646175E+03 -0.18685904317E+03 -0.18597854791E+03  0.36491117059E+03  0.41800000000E+01 0.  1.
         -5    1    3    3    0  502 -0.12831369483E+01 -0.11659142105E+02 -0.50933470952E+02  0.52433509308E+02  0.41800000000E+01 0.  1.
        -11    1    1    2    0    0 -0.18399403889E+03  0.14303735576E+03 -0.21059110683E+03  0.31410524632E+03  0.00000000000E+00 0. -1.
         11    1    1    2    0    0 -0.66989285907E+02  0.55480829514E+02 -0.16697303914E+02  0.88569107638E+02  0.00000000000E+00 0.  1.
</event>
<event>
 7    1  0.2384639E-009  0.1583239E+03  0.7561462E-02  0.1190602E+00
         -2   -1    0    0    0  501 -0.00000000000E+00  0.00000000000E+00  0.51379413955E+02  0.51379413955E+02  0.00000000000E+00 0.  1.
          2   -1    0    0  501    0  0.00000000000E+00 -0.00000000000E+00 -0.66441019139E+03  0.66441019139E+03  0.00000000000E+00 0. -1.
         25    2    1    2    0    0 -0.11344249631E+03  0.91095344569E+02 -0.25709399529E+03  0.32079931754E+03  0.12508923994E+03 0.  0.
          5    1    3    3  502    0 -0.14856242371E+02  0.40470267592E+02 -0.18146641988E+03  0.18656388836E+03  0.41800000000E+01 0. -1.
         -5    1    3    3    0  502 -0.98586253937E+02  0.50625076976E+02 -0.75627575408E+02  0.13423542918E+03  0.41800000000E+01 0. -1.
        -11    1    1    2    0    0 -0.85311689977E+01 -0.18791949280E+02 -0.14330919359E+02  0.25125553763E+02  0.00000000000E+00 0. -1.
         11    1    1    2    0    0  0.12197366531E+03 -0.72303395289E+02 -0.34160586279E+03  0.36986473404E+03  0.00000000000E+00 0.  1.
</event>
<event>
 7    1  0.2384639E-009  0.1949151E+03  0.7561462E-02  0.1154101E+00
          4   -1    0    0  501    0  0.00000000000E+00  0.00000000000E+00  0.36316159040E+02  0.36316159040E+02  0.00000000000E+00 0. -1.
         -4   -1    0    0    0  501 -0.00000000000E+00 -0.00000000000E+00 -0.12412841428E+04  0.12412841428E+04  0.00000000000E+00 0.  1.
         25    2    1    2    0    0 -0.16237283372E+03  0.48783647726E+02 -0.83978520515E+03  0.86581265140E+03  0.12509026790E+03 0.  0.
          5    1    3    3  502    0 -0.12773599105E+03 -0.17821997128E+02 -0.62679555810E+03  0.63994081840E+03  0.41800000000E+01 0.  1.
         -5    1    3    3    0  502 -0.34636842673E+02  0.66605644854E+02 -0.21298964704E+03  0.22587183300E+03  0.41800000000E+01 0.  1.
        -11    1    1    2    0    0  0.85679572338E+02 -0.64585474427E+02 -0.25462967155E+03  0.27631239975E+03  0.00000000000E+00 0.  1.
         11    1    1    2    0    0  0.76693261385E+02  0.15801826700E+02 -0.11055310708E+03  0.13547525071E+03  0.00000000000E+00 0. -1.
</event>
<event>
 7    1  0.2384639E-009  0.1413605E+03  0.7561462E-02  0.1211510E+00
          3   -1    0    0  501    0  0.00000000000E+00  0.00000000000E+00  0.45251977598E+03  0.45251977598E+03  0.00000000000E+00 0. -1.
         -3   -1    0    0    0  501 -0.00000000000E+00 -0.00000000000E+00 -0.58990860070E+02  0.58990860070E+02  0.00000000000E+00 0.  1.
         25    2    1    2    0    0  0.92450324590E+02 -0.79026596047E+02  0.22348500121E+03  0.28352427367E+03  0.12509277596E+03 0.  0.
          5    1    3    3  502    0  0.57761806498E+02 -0.88569763976E+02  0.72549883401E+02  0.12830427648E+03  0.41800000000E+01 0. -1.
         -5    1    3    3    0  502  0.34688518092E+02  0.95431679296E+01  0.15093511781E+03  0.15521999720E+03  0.41800000000E+01 0. -1.
        -11    1    1    2    0    0 -0.42306484863E+02 -0.52313408578E+01  0.16301943886E+02  0.45639445254E+02  0.00000000000E+00 0. -1.
         11    1    1    2    0    0 -0.50143839727E+02  0.84257936905E+02  0.15374197081E+03  0.18234691712E+03  0.00000000000E+00 0.  1.
</event>
<event>
 7    1  0.2384639E-009  0.1150958E+03  0.7561462E-02  0.1251414E+00
          2   -1    0    0  501    0  0.00000000000E+00  0.00000000000E+00  0.30389393515E+03  0.30389393515E+03  0.00000000000E+00 0. -1.
         -2   -1    0    0    0  501 -0.00000000000E+00 -0.00000000000E+00 -0.86779981591E+02  0.86779981591E+02  0.00000000000E+00 0.  1.
         25    2    1    2    0    0 -0.23811976857E+02  0.66651628334E+02  0.23241213853E+03  0.27326278092E+03  0.12509074907E+03 0.  0.
          5    1    3    3  502    0  0.95738065194E+01 -0.19122038776E+02  0.14375988889E+03  0.14540181633E+03  0.41800000000E+01 0. -1.
         -5    1    3    3    0  502 -0.33385783376E+02  0.85773667110E+02  0.88652249635E+02  0.12786096459E+03  0.41800000000E+01 0. -1.
        -11    1    1    2    0    0  0.45431826044E+02 -0.79172397654E+02 -0.95927383163E+01  0.91784203414E+02  0.00000000000E+00 0.  1.
         11    1    1    2    0    0 -0.21619849187E+02  0.12520769321E+02 -0.57054466457E+01  0.25626932409E+02  0.00000000000E+00 0. -1.
</event>
<event>
 7    1  0.2384639E-009  0.9712262E+02  0.7561462E-02  0.1286466E+00
         -1   -1    0    0    0  501 -0.00000000000E+00  0.00000000000E+00  0.20203311675E+03  0.20203311675E+03  0.00000000000E+00 0.  1.
          1   -1    0    0  501    0  0.00000000000E+00 -0.00000000000E+00 -0.94973478218E+02  0.94973478218E+02  0.00000000000E+00 0. -1.
         25    2    1    2    0    0  0.18007398890E+02 -0.14649441704E+02  0.14496519094E+03  0.19287950893E+03  0.12509486729E+03 0.  0.
          5    1    3    3  502    0  0.66602960633E+02 -0.33466883889E+02  0.78730215535E+02  0.10849841437E+03  0.41800000000E+01 0.  1.
         -5    1    3    3    0  502 -0.48595561743E+02  0.18817442185E+02  0.66234975408E+02  0.84381094558E+02  0.41800000000E+01 0.  1.
        -11    1    1    2    0    0 -0.11512686350E-02 -0.24352632611E+02  0.20356564177E+02  0.31740201977E+02  0.00000000000E+00 0.  1.
         11    1    1    2    0    0 -0.18006247621E+02  0.39002074315E+02 -0.58262116592E+02  0.72386884061E+02  0.00000000000E+00 0. -1.
</event>
<event>
 7    1  0.4739328E-009  0.2023254E+03  0.7561462E-02  0.1147792E+00
          2   -1    0    0  501    0  0.00000000000E+00  0.00000000000E+00  0.18715435672E+04  0.18715435672E+04  0.00000000000E+00 0.  1.
         -2   -1    0    0    0  501 -0.00000000000E+00 -0.00000000000E+00 -0.22501502284E+02  0.22501502284E+02  0.00000000000E+00 0. -1.
         25    2    1    2    0    0  0.27443689817E+02 -0.16921810625E+03  0.83388008859E+03  0.86045919817E+03  0.12508439543E+03 0.  0.
          5    1    3    3  502    0  0.40208331633E+02  0.43661287092E+00  0.12220548561E+03  0.12871889401E+03  0.41800000000E+01 0. -1.
         -5    1    3    3    0  502 -0.12764641816E+02 -0.16965471912E+03  0.71167460298E+03  0.73174030416E+03  0.41800000000E+01 0. -1.
        -11    1    1    2    0    0  0.33737901802E+02  0.57732146740E+02  0.32555343640E+03  0.33234964531E+03  0.00000000000E+00 0.  1.
         11    1    1    2    0    0 -0.61181591619E+02  0.11148595951E+03  0.68960853993E+03  0.70123622600E+03  0.00000000000E+00 0. -1.
</event>
<event>
 7    1  0.2384639E-009  0.1774599E+03  0.7561462E-02  0.1170284E+00
         -2   -1    0    0    0  501 -0.00000000000E+00  0.00000000000E+00  0.54628814866E+03  0.54628814866E+03  0.00000000000E+00 0.  1.
          2   -1    0    0  501    0  0.00000000000E+00 -0.00000000000E+00 -0.79244070376E+02  0.79244070376E+02  0.00000000000E+00 0. -1.
         25    2    1    2    0    0 -0.13515202948E+03  0.10398160623E+03  0.28208851118E+03  0.35256154565E+03  0.12508984702E+03 0.  0.
          5    1    3    3  502    0 -0.79741452229E+02  0.71773618179E+02  0.26526138619E+03  0.28616643212E+03  0.41800000000E+01 0.  1.
         -5    1    3    3    0  502 -0.55410577248E+02  0.32207988051E+02  0.16827124988E+02  0.66395113530E+02  0.41800000000E+01 0.  1.
        -11    1    1    2    0    0  0.56784291092E+02 -0.85779734444E+02  0.46623960528E+02  0.11294428826E+03  0.00000000000E+00 0. -1.
         11    1    1    2    0    0  0.78367738386E+02 -0.18201871785E+02  0.13833160658E+03  0.16002638512E+03  0.00000000000E+00 0.  1.
</event>
<event>
 7    1  0.2384639E-009  0.7904484E+02  0.7561462E-02  0.1331784E+00
         -1   -1    0    0    0  501 -0.00000000000E+00  0.00000000000E+00  0.86616109641E+02  0.86616109641E+02  0.00000000000E+00 0.  1.
          1   -1    0    0  501    0  0.00000000000E+00 -0.00000000000E+00 -0.14325664500E+03  0.14325664500E+03  0.00000000000E+00 0. -1.
         25    2    1    2    0    0  0.81668501735E+01  0.19202197656E+02 -0.50040560525E+02  0.13633445208E+03  0.12509038049E+03 0.  0.
          5    1    3    3  502    0  0.21603399889E+02 -0.32349155141E+02 -0.69259750733E+02  0.79545962793E+02  0.41800000000E+01 0.  1.
         -5    1    3    3    0  502 -0.13436549715E+02  0.51551352797E+02  0.19219190208E+02  0.56788489289E+02  0.41800000000E+01 0.  1.
        -11    1    1    2    0    0  0.92259547965E+01  0.20337746962E+02  0.29669013129E+02  0.37134788723E+02  0.00000000000E+00 0.  1.
         11    1    1    2    0    0 -0.17392804970E+02 -0.39539944618E+02 -0.36268987961E+02  0.56403513834E+02  0.00000000000E+00 0. -1.
</event>
<event>
 7    1  0.2384639E-009  0.1558642E+03  0.7561462E-02  0.1193447E+00
         -1   -1    0    0    0  501 -0.00000000000E+00  0.00000000000E+00  0.93589850862E+02  0.93589850862E+02  0.00000000000E+00 0.  1.
          1   -1    0    0  501    0  0.00000000000E+00 -0.00000000000E+00 -0.29063557495E+03  0.29063557495E+03  0.00000000000E+00 0. -1.
         25    2    1    2    0    0 -0.17480368023E+02 -0.12010983854E+03 -0.12210832215E+03  0.21281441773E+03  0.12509035724E+03 0.  0.
          5    1    3    3  502    0 -0.42049006972E+02  0.47765788144E+01 -0.52904104775E+02  0.67876736770E+02  0.41800000000E+01 0. -1.
         -5    1    3    3    0  502  0.24568638949E+02 -0.12488641735E+03 -0.69204217373E+02  0.14493768096E+03  0.41800000000E+01 0. -1.
        -11    1    1    2    0    0 -0.28542031937E+02  0.56989363676E+02 -0.84159047932E+00  0.63742791230E+02  0.00000000000E+00 0.  1.
         11    1    1    2    0    0  0.46022399960E+02  0.63120474861E+02 -0.74095811458E+02  0.10766821685E+03  0.00000000000E+00 0. -1.
</event>
<event>
 7    1  0.2384639E-009  0.1814040E+03  0.7561462E-02  0.1166451E+00
         -1   -1    0    0    0  501 -0.00000000000E+00  0.00000000000E+00  0.98856917007E+03  0.98856917007E+03  0.00000000000E+00 0.  1.
          1   -1    0    0  501    0  0.00000000000E+00 -0.00000000000E+00 -0.49687567551E+02  0.49687567551E+02  0.00000000000E+00 0. -1.
         25    2    1    2    0    0  0.77993827270E+00 -0.14638719945E+03  0.78290937817E+03  0.80624101079E+03  0.12509057754E+03 0.  0.
          5    1    3    3  502    0 -0.56774285155E+02 -0.10751494109E+03  0.54199106867E+03  0.55547688784E+03  0.41800000000E+01 0.  1.
         -5    1    3    3    0  502  0.57554223427E+02 -0.38872258360E+02  0.24091830950E+03  0.25076412295E+03  0.41800000000E+01 0.  1.
        -11    1    1    2    0    0  0.42175315403E+02  0.99036461210E+02  0.92496001642E+02  0.14192423401E+03  0.00000000000E+00 0.  1.
         11    1    1    2    0    0 -0.42955253675E+02  0.47350738242E+02  0.63476222713E+02  0.90091492830E+02  0.00000000000E+00 0. -1.
</event>
<event>
 7    1  0.2384639E-009  0.6297610E+02  0.7561462E-02  0.1385750E+00
         -2   -1    0    0    0  501 -0.00000000000E+00  0.00000000000E+00  0.80984602864E+02  0.80984602864E+02  0.00000000000E+00 0.  1.
          2   -1    0    0  501    0  0.00000000000E+00 -0.00000000000E+00 -0.20420314540E+03  0.20420314540E+03  0.00000000000E+00 0. -1.
         25    2    1    2    0    0 -0.26145230300E+02  0.38250305763E+02 -0.10114349011E+02  0.13378001461E+03  0.12509249895E+03 0.  0.
          5    1    3    3  502    0  0.32974833426E+01  0.20934160199E+01 -0.62937558311E+02  0.63197028674E+02  0.41800000000E+01 0. -1.
         -5    1    3    3    0  502 -0.29442713642E+02  0.36156889743E+02  0.52823209300E+02  0.70582985933E+02  0.41800000000E+01 0. -1.
        -11    1    1    2    0    0  0.44360646487E+02 -0.28864975369E+02 -0.11887101070E+03  0.13012060154E+03  0.00000000000E+00 0. -1.
         11    1    1    2    0    0 -0.18215416187E+02 -0.93853303931E+01  0.57668171754E+01  0.21287132118E+02  0.00000000000E+00 0.  1.
</event>
<event>
 7    1  0.2384639E-009  0.1210424E+03  0.7561462E-02  0.1241387E+00
         -1   -1    0    0    0  501 -0.00000000000E+00  0.00000000000E+00  0.17856634592E+03  0.17856634592E+03  0.00000000000E+00 0.  1.
          1   -1    0    0  501    0  0.00000000000E+00 -0.00000000000E+00 -0.95704424303E+02  0.95704424303E+02  0.00000000000E+00 0. -1.
         25    2    1    2    0    0  0.31963084711E+01  0.61858799905E+02  0.60729486849E+01  0.13971795145E+03  0.12508995859E+03 0.  0.
          5    1    3    3  502    0 -0.15143172637E+02  0.97446628205E+02 -0.17093423486E+01  0.98719578996E+02  0.41800000000E+01 0.  1.
         -5    1    3    3    0  502  0.18339481108E+02 -0.35587828300E+02  0.77822910335E+01  0.40998372457E+02  0.41800000000E+01 0.  1.
        -11    1    1    2    0    0  0.39569703663E+02 -0.33124862514E+02  0.62568481817E+02  0.81103840115E+02  0.00000000000E+00 0. -1.
         11    1    1    2    0    0 -0.42766012134E+02 -0.28733937391E+02  0.14220491117E+02  0.53448978656E+02  0.00000000000E+00 0.  1.
</event>
<event>
 7    1  0.2384639E-009  0.1812345E+03  0.7561462E-02  0.1166614E+00
         -4   -1    0    0    0  501 -0.00000000000E+00  0.00000000000E+00  0.37221047875E+02  0.37221047875E+02  0.00000000000E+00 0.  1.
          4   -1    0    0  501    0  0.00000000000E+00 -0.00000000000E+00 -0.11892504061E+04  0.11892504061E+04  0.00000000000E+00 0. -1.
         25    2    1    2    0    0 -0.17534089389E+03 -0.14217301790E+02 -0.75596624287E+03  0.78618000287E+03  0.12508987091E+03 0.  0.
          5    1    3    3  502    0 -0.42862836348E+02 -0.24726403564E+02 -0.44791747098E+03  0.45066190318E+03  0.41800000000E+01 0.  1.
         -5    1    3    3    0  502 -0.13247805754E+03  0.10509101774E+02 -0.30804877190E+03  0.33551809969E+03  0.41800000000E+01 0.  1.
        -11    1    1    2    0    0  0.64031128140E+02  0.23372917095E+02 -0.80140866052E+02  0.10520854070E+03  0.00000000000E+00 0.  1.
         11    1    1    2    0    0  0.11130976575E+03 -0.91556153052E+01 -0.31592224926E+03  0.33508291037E+03  0.00000000000E+00 0. -1.
</event>
<event>
 7    1  0.2384639E-009  0.1083547E+03  0.7561462E-02  0.1263647E+00
          1   -1    0    0  501    0  0.00000000000E+00  0.00000000000E+00  0.62377696670E+03  0.62377696670E+03  0.00000000000E+00 0. -1.
         -1   -1    0    0    0  501 -0.00000000000E+00 -0.00000000000E+00 -0.46222419988E+02  0.46222419988E+02  0.00000000000E+00 0.  1.
         25    2    1    2    0    0 -0.14220708347E+02 -0.98028442865E+02  0.47392030053E+03  0.50006008362E+03  0.12509129396E+03 0.  0.
          5    1    3    3  502    0  0.62423544178E+01 -0.74429186374E+02  0.10036058555E+03  0.12517344090E+03  0.41800000000E+01 0.  1.
         -5    1    3    3    0  502 -0.20463062765E+02 -0.23599256491E+02  0.37355971498E+03  0.37488664273E+03  0.41800000000E+01 0.  1.
        -11    1    1    2    0    0 -0.11835379310E+02  0.35115965969E+01 -0.12760477104E+02  0.17754922979E+02  0.00000000000E+00 0.  1.
         11    1    1    2    0    0  0.26056087657E+02  0.94516846268E+02  0.11639472329E+03  0.15218438008E+03  0.00000000000E+00 0. -1.
</event>
<event>
 7    1  0.2384639E-009  0.2303358E+03  0.7561462E-02  0.1126404E+00
         -2   -1    0    0    0  501 -0.00000000000E+00  0.00000000000E+00  0.74179242541E+02  0.74179242541E+02  0.00000000000E+00 0.  1.
          2   -1    0    0  501    0  0.00000000000E+00 -0.00000000000E+00 -0.91503607101E+03  0.91503607101E+03  0.00000000000E+00 0. -1.
         25    2    1    2    0    0 -0.16671426132E+03 -0.12931102586E+03 -0.63572888355E+03  0.68140534504E+03  0.12508814703E+03 0.  0.
          5    1    3    3  502    0  0.19059218829E+02 -0.12369683553E+01 -0.54378004228E+02  0.57786016101E+02  0.41800000000E+01 0.  1.
         -5    1    3    3    0  502 -0.18577348014E+03 -0.12807405751E+03 -0.58135087932E+03  0.62361932894E+03  0.41800000000E+01 0.  1.
        -11    1    1    2    0    0  0.15112596915E+03  0.13067939917E+03 -0.14815985844E+03  0.24873179848E+03  0.00000000000E+00 0. -1.
         11    1    1    2    0    0  0.15588292163E+02 -0.13683733112E+01 -0.56968086478E+02  0.59078170038E+02  0.00000000000E+00 0.  1.
</event>
<event>
 7    1  0.2384639E-009  0.1166299E+03  0.7561462E-02  0.1248762E+00
         -1   -1    0    0    0  501 -0.00000000000E+00  0.00000000000E+00  0.15939950880E+03  0.15939950880E+03  0.00000000000E+00 0.  1.
          1   -1    0    0  501    0  0.00000000000E+00 -0.00000000000E+00 -0.10262674778E+03  0.10262674778E+03  0.00000000000E+00 0. -1.
         25    2    1    2    0    0  0.59833269845E+02 -0.19518338291E+02  0.91961418663E+01  0.14032810209E+03  0.12508565665E+03 0.  0.
          5    1    3    3  502    0  0.45251988281E+02 -0.67168070824E+02 -0.18477417999E+02  0.83175594723E+02  0.41800000000E+01 0.  1.
         -5    1    3    3    0  502  0.14581281564E+02  0.47649732533E+02  0.27673559865E+02  0.57152507366E+02  0.41800000000E+01 0.  1.
        -11    1    1    2    0    0 -0.24073644039E+02  0.49790079604E+02  0.50312823011E+02  0.74766118821E+02  0.00000000000E+00 0.  1.
         11    1    1    2    0    0 -0.35759625806E+02 -0.30271741313E+02 -0.27362038555E+01  0.46932035662E+02  0.00000000000E+00 0. -1.
</event>
<event>
 7    1  0.2384639E-009  0.1991028E+03  0.7561462E-02  0.1150498E+00
          1   -1    0    0  501    0  0.00000000000E+00  0.00000000000E+00  0.23545403567E+03  0.23545403567E+03  0.00000000000E+00 0. -1.
         -1   -1    0    0    0  501 -0.00000000000E+00 -0.00000000000E+00 -0.18813393330E+03  0.18813393330E+03  0.00000000000E+00 0.  1.
         25    2    1    2    0    0  0.17587327907E+03 -0.34989038321E+02  0.47690047022E+02  0.22377992160E+03  0.12508984625E+03 0.  0.
          5    1    3    3  502    0  0.51804431700E+02 -0.52437707084E+02  0.63559160422E+02  0.97419975064E+02  0.41800000000E+01 0. -1.
         -5    1    3    3    0  502  0.12406884737E+03  0.17448668763E+02 -0.15869113400E+02  0.12635994654E+03  0.41800000000E+01 0. -1.
        -11    1    1    2    0    0 -0.17441875910E+03  0.51951400980E+02  0.46759246830E+01  0.18205140994E+03  0.00000000000E+00 0.  1.
         11    1    1    2    0    0 -0.14545199656E+01 -0.16962362659E+02 -0.50458693286E+01  0.17756637424E+02  0.00000000000E+00 0. -1.
</event>
<event>
 7    1  0.2384639E-009  0.1151576E+03  0.7561462E-02  0.1251306E+00
          2   -1    0    0  501    0  0.00000000000E+00  0.00000000000E+00  0.12515036391E+03  0.12515036391E+03  0.00000000000E+00 0. -1.
         -2   -1    0    0    0  501 -0.00000000000E+00 -0.00000000000E+00 -0.17672110382E+03  0.17672110382E+03  0.00000000000E+00 0.  1.
         25    2    1    2    0    0  0.22966239015E+02 -0.86394390380E+02 -0.53425220161E+01  0.15384511622E+03  0.12509331884E+03 0.  0.
          5    1    3    3  502    0  0.21105790792E+02  0.13433182969E+02  0.37371844997E+02  0.45166713497E+02  0.41800000000E+01 0. -1.
         -5    1    3    3    0  502  0.18604482237E+01 -0.99827573349E+02 -0.42714367013E+02  0.10867840272E+03  0.41800000000E+01 0. -1.
        -11    1    1    2    0    0 -0.39546519103E+02  0.75345982692E+02 -0.74730815912E+02  0.11325033831E+03  0.00000000000E+00 0.  1.
         11    1    1    2    0    0  0.16580280087E+02  0.11048407688E+02  0.28502598021E+02  0.34776013201E+02  0.00000000000E+00 0. -1.
</event>
<event>
 7    1  0.2384639E-009  0.1465673E+03  0.7561462E-02  0.1204756E+00
         -2   -1    0    0    0  501 -0.00000000000E+00  0.00000000000E+00  0.44393928741E+02  0.44393928741E+02  0.00000000000E+00 0.  1.
          2   -1    0    0  501    0  0.00000000000E+00 -0.00000000000E+00 -0.62513284790E+03  0.62513284790E+03  0.00000000000E+00 0. -1.
         25    2    1    2    0    0 -0.10058614047E+03 -0.56965164557E+02 -0.20135882370E+03  0.26373695669E+03  0.12509678179E+03 0.  0.
          5    1    3    3  502    0 -0.11812019399E+03 -0.72243176051E+02 -0.19513064274E+03  0.23930085008E+03  0.41800000000E+01 0.  1.
         -5    1    3    3    0  502  0.17534053518E+02  0.15278011494E+02 -0.62281809590E+01  0.24436106606E+02  0.41800000000E+01 0.  1.
        -11    1    1    2    0    0  0.49461850982E+02 -0.60560534301E+01 -0.69878049809E+02  0.85825942062E+02  0.00000000000E+00 0.  1.
         11    1    1    2    0    0  0.51124289491E+02  0.63021217987E+02 -0.30950204565E+03  0.31996387789E+03  0.00000000000E+00 0. -1.
</event>
<event>
 7    1  0.2384639E-009  0.1343089E+03  0.7561462E-02  0.1221199E+00
         -2   -1    0    0    0  501 -0.00000000000E+00  0.00000000000E+00  0.54283285794E+02  0.54283285794E+02  0.00000000000E+00 0.  1.
          2   -1    0    0  501    0  0.00000000000E+00 -0.00000000000E+00 -0.37437481039E+03  0.37437481039E+03  0.00000000000E+00 0. -1.
         25    2    1    2    0    0  0.31355720395E+02 -0.84480970879E+02 -0.14452000604E+03  0.21131343179E+03  0.12508844337E+03 0.  0.
          5    1    3    3  502    0  0.14769656432E+02 -0.10954782645E+03 -0.14318529687E+03  0.18093747724E+03  0.41800000000E+01 0. -1.
         -5    1    3    3    0  502  0.16586063963E+02  0.25066855570E+02 -0.13347091681E+01  0.30375954544E+02  0.41800000000E+01 0. -1.
        -11    1    1    2    0    0 -0.56282468789E+02  0.22081362764E+02 -0.92388677487E+02  0.11041272844E+03  0.00000000000E+00 0. -1.
         11    1    1    2    0    0  0.24926748394E+02  0.62399608115E+02 -0.83182841067E+02  0.10693193595E+03  0.00000000000E+00 0.  1.
</event>
<event>
 7    1  0.2384639E-009  0.1177049E+03  0.7561462E-02  0.1246932E+00
          1   -1    0    0  501    0  0.00000000000E+00  0.00000000000E+00  0.26231816674E+03  0.26231816674E+03  0.00000000000E+00 0. -1.
         -1   -1    0    0    0  501 -0.00000000000E+00 -0.00000000000E+00 -0.62127278583E+02  0.62127278583E+02  0.00000000000E+00 0.  1.
         25    2    1    2    0    0 -0.62636561229E+02 -0.15251705071E+02  0.87393666116E+02  0.16565298026E+03  0.12508918292E+03 0.  0.
          5    1    3    3  502    0 -0.93212823793E+02 -0.10984112308E+02  0.27092053283E+02  0.97779000781E+02  0.41800000000E+01 0. -1.
         -5    1    3    3    0  502  0.30576262564E+02 -0.42675927632E+01  0.60301612834E+02  0.67873979482E+02  0.41800000000E+01 0. -1.
        -11    1    1    2    0    0  0.11233664270E+02 -0.36002863592E+02  0.26868599477E+02  0.46306835755E+02  0.00000000000E+00 0.  1.
         11    1    1    2    0    0  0.51402896959E+02  0.51254568663E+02  0.85928622566E+02  0.11248562931E+03  0.00000000000E+00 0. -1.
</event>
<event>
 7    1  0.2384639E-009  0.2276937E+03  0.7561462E-02  0.1128274E+00
         -2   -1    0    0    0  501 -0.00000000000E+00  0.00000000000E+00  0.45802322106E+02  0.45802322106E+02  0.00000000000E+00 0.  1.
          2   -1    0    0  501    0  0.00000000000E+00 -0.00000000000E+00 -0.14493507067E+04  0.14493507067E+04  0.00000000000E+00 0. -1.
         25    2    1    2    0    0 -0.20865798602E+03  0.75128733067E+02 -0.90555967573E+03  0.94067367665E+03  0.12508460326E+03 0.  0.
          5    1    3    3  502    0 -0.53585204942E+01 -0.39361377912E+01 -0.24280954751E+03  0.24293652604E+03  0.41800000000E+01 0.  1.
         -5    1    3    3    0  502 -0.20329946552E+03  0.79064870858E+02 -0.66275012822E+03  0.69773715061E+03  0.41800000000E+01 0.  1.
        -11    1    1    2    0    0  0.11616031613E+03 -0.72294161538E+02 -0.38405360430E+03  0.40769699019E+03  0.00000000000E+00 0.  1.
         11    1    1    2    0    0  0.92497669881E+02 -0.28345715286E+01 -0.11393510453E+03  0.14678236193E+03  0.00000000000E+00 0. -1.
</event>
<event>
 7    1  0.2384639E-009  0.1774181E+03  0.7561462E-02  0.1170325E+00
         -2   -1    0    0    0  501 -0.00000000000E+00  0.00000000000E+00  0.39439492083E+02  0.39439492083E+02  0.00000000000E+00 0.  1.
          2   -1    0    0  501    0  0.00000000000E+00 -0.00000000000E+00 -0.87388840716E+03  0.87388840716E+03  0.00000000000E+00 0. -1.
         25    2    1    2    0    0 -0.79481840016E+02  0.12138910831E+03 -0.33028528254E+03  0.38182319307E+03  0.12509158405E+03 0.  0.
          5    1    3    3  502    0 -0.84545239327E+02  0.14198587381E+03 -0.31365444633E+03  0.35454826182E+03  0.41800000000E+01 0. -1.
         -5    1    3    3    0  502  0.50633993112E+01 -0.20596765509E+02 -0.16630836209E+02  0.27274931256E+02  0.41800000000E+01 0. -1.
        -11    1    1    2    0    0  0.55300166586E+02 -0.13076591569E+03 -0.41296161268E+03  0.43668653137E+03  0.00000000000E+00 0.  1.
         11    1    1    2    0    0  0.24181673430E+02  0.93768073821E+01 -0.91202019856E+02  0.94818174800E+02  0.00000000000E+00 0. -1.
</event>
<event>
 7    1  0.2384639E-009  0.1770149E+03  0.7561462E-02  0.1170724E+00
         -1   -1    0    0    0  501 -0.00000000000E+00  0.00000000000E+00  0.21730216431E+02  0.21730216431E+02  0.00000000000E+00 0. -1.
          1   -1    0    0  501    0  0.00000000000E+00 -0.00000000000E+00 -0.18668326528E+04  0.18668326528E+04  0.00000000000E+00 0.  1.
         25    2    1    2    0    0 -0.66474266749E+02  0.15418167729E+03 -0.12358614862E+04  0.12534721279E+04  0.12509174467E+03 0.  0.
          5    1    3    3  502    0  0.46431358972E+01  0.66681174114E+02 -0.81501364621E+03  0.81776075573E+03  0.41800000000E+01 0.  1.
         -5    1    3    3    0  502 -0.71117402646E+02  0.87500503176E+02 -0.42084783995E+03  0.43571137214E+03  0.41800000000E+01 0.  1.
        -11    1    1    2    0    0  0.45750411499E+02 -0.49076584656E+02 -0.16509582301E+03  0.17820842317E+03  0.00000000000E+00 0.  1.
         11    1    1    2    0    0  0.20723855250E+02 -0.10510509263E+03 -0.44414512722E+03  0.45688231823E+03  0.00000000000E+00 0. -1.
</event>
<event>
 7    1  0.2384639E-009  0.1974619E+03  0.7561462E-02  0.1151898E+00
         -2   -1    0    0    0  501 -0.00000000000E+00  0.00000000000E+00  0.41540613268E+02  0.41540613268E+02  0.00000000000E+00 0.  1.
          2   -1    0    0  501    0  0.00000000000E+00 -0.00000000000E+00 -0.11284463087E+04  0.11284463087E+04  0.00000000000E+00 0. -1.
         25    2    1    2    0    0  0.15144869650E+03 -0.68106009866E+02 -0.80107409482E+03  0.82761044707E+03  0.12507681826E+03 0.  0.
          5    1    3    3  502    0  0.71829335653E+02  0.31835440526E+02 -0.26041691745E+03  0.27204299666E+03  0.41800000000E+01 0.  1.
         -5    1    3    3    0  502  0.79619360843E+02 -0.99941450392E+02 -0.54065717736E+03  0.55556745042E+03  0.41800000000E+01 0.  1.
        -11    1    1    2    0    0 -0.35841504632E+02  0.63236327878E+02 -0.11502713692E+03  0.13606869164E+03  0.00000000000E+00 0. -1.
         11    1    1    2    0    0 -0.11560719186E+03  0.48696819880E+01 -0.17080446372E+03  0.20630778328E+03  0.00000000000E+00 0.  1.
</event>
<event>
 7    1  0.2384639E-009  0.8754315E+02  0.7561462E-02  0.1308913E+00
         -1   -1    0    0    0  501 -0.00000000000E+00  0.00000000000E+00  0.95356594834E+02  0.95356594834E+02  0.00000000000E+00 0.  1.
          1   -1    0    0  501    0  0.00000000000E+00 -0.00000000000E+00 -0.16554194978E+03  0.16554194978E+03  0.00000000000E+00 0. -1.
         25    2    1    2    0    0 -0.13568138119E+02  0.61512411729E+02 -0.39778945705E+02  0.14559232679E+03  0.12508752908E+03 0.  0.
          5    1    3    3  502    0 -0.12918230221E+02  0.56055778970E+02 -0.83415049796E+02  0.10141338156E+03  0.41800000000E+01 0.  1.
         -5    1    3    3    0  502 -0.64990789781E+00  0.54566327586E+01  0.43636104091E+02  0.44178945229E+02  0.41800000000E+01 0.  1.
        -11    1    1    2    0    0  0.23302576147E+02  0.18592578037E+02 -0.14115299306E+02  0.32983870113E+02  0.00000000000E+00 0.  1.
         11    1    1    2    0    0 -0.97344380280E+01 -0.80104989765E+02 -0.16291109934E+02  0.82322347706E+02  0.00000000000E+00 0. -1.
</event>
<event>
 7    1  0.2384639E-009  0.9149801E+02  0.7561462E-02  0.1299264E+00
          1   -1    0    0  501    0  0.00000000000E+00  0.00000000000E+00  0.22823918865E+03  0.22823918865E+03  0.00000000000E+00 0. -1.
         -1   -1    0    0    0  501 -0.00000000000E+00 -0.00000000000E+00 -0.60014952574E+02  0.60014952574E+02  0.00000000000E+00 0.  1.
         25    2    1    2    0    0  0.34749752306E+02 -0.76289647575E+01  0.85780223646E+02  0.15579201103E+03  0.12508859877E+03 0.  0.
          5    1    3    3  502    0  0.63905614268E+02 -0.99735417686E+01  0.10292397688E+03  0.12163147820E+03  0.41800000000E+01 0.  1.
         -5    1    3    3    0  502 -0.29155861962E+02  0.23445770110E+01 -0.17143753238E+02  0.34160532830E+02  0.41800000000E+01 0.  1.
        -11    1    1    2    0    0 -0.18246849647E+02 -0.36889674878E+02  0.47765958184E+01  0.41432010599E+02  0.00000000000E+00 0.  1.
         11    1    1    2    0    0 -0.16502902660E+02  0.44518639636E+02  0.77667416611E+02  0.91030119599E+02  0.00000000000E+00 0. -1.
</event>
<event>
 7    1  0.2384639E-009  0.1793778E+03  0.7561462E-02  0.1168407E+00
          2   -1    0    0  501    0  0.00000000000E+00  0.00000000000E+00  0.43408396442E+03  0.43408396442E+03  0.00000000000E+00 0. -1.
         -2   -1    0    0    0  501 -0.00000000000E+00 -0.00000000000E+00 -0.85594890297E+02  0.85594890297E+02  0.00000000000E+00 0.  1.
         25    2    1    2    0    0  0.73862266171E+01 -0.15129576556E+03  0.11899660422E+03  0.22967955445E+03  0.12509013110E+03 0.  0.
          5    1    3    3  502    0 -0.23640535423E+02  0.14169912573E+02  0.20325311834E+02  0.34500029544E+02  0.41800000000E+01 0. -1.
         -5    1    3    3    0  502  0.31026762040E+02 -0.16546567814E+03  0.98671292381E+02  0.19517952491E+03  0.41800000000E+01 0. -1.
        -11    1    1    2    0    0  0.23656964170E+02  0.97857123373E+02  0.81188965681E+02  0.12933412812E+03  0.00000000000E+00 0.  1.
         11    1    1    2    0    0 -0.31043190787E+02  0.53438642189E+02  0.14830350422E+03  0.16066517214E+03  0.00000000000E+00 0. -1.
</event>
<event>
 7    1  0.2715291E-009  0.1598757E+03  0.7561462E-02  0.1188837E+00
          1   -1    0    0  501    0  0.00000000000E+00  0.00000000000E+00  0.39578220083E+03  0.39578220083E+03  0.00000000000E+00 0. -1.
         -1   -1    0    0    0  501 -0.00000000000E+00 -0.00000000000E+00 -0.66905014115E+02  0.66905014115E+02  0.00000000000E+00 0.  1.
         25    2    1    2    0    0 -0.10935382121E+03 -0.51158852201E+02  0.17432880891E+03  0.24620220961E+03  0.12509799370E+03 0.  0.
          5    1    3    3  502    0 -0.13664230335E+02 -0.72217867263E+02  0.55876190534E+02  0.92421602514E+02  0.41800000000E+01 0.  1.
         -5    1    3    3    0  502 -0.95689590878E+02  0.21059015061E+02  0.11845261838E+03  0.15378060710E+03  0.41800000000E+01 0.  1.
        -11    1    1    2    0    0  0.61570938047E+02 -0.17869549829E+02  0.90414305584E+02  0.11083793519E+03  0.00000000000E+00 0. -1.
         11    1    1    2    0    0  0.47782883166E+02  0.69028402030E+02  0.64134072212E+02  0.10564707014E+03  0.00000000000E+00 0.  1.
</event>
<event>
 7    1  0.2384639E-009  0.1078684E+03  0.7561462E-02  0.1264569E+00
         -1   -1    0    0    0  501 -0.00000000000E+00  0.00000000000E+00  0.13941018865E+02  0.13941018865E+02  0.00000000000E+00 0.  1.
          1   -1    0    0  501    0  0.00000000000E+00 -0.00000000000E+00 -0.11186837873E+04  0.11186837873E+04  0.00000000000E+00 0. -1.
         25    2    1    2    0    0  0.17880307084E+02  0.57084657170E+02 -0.75137100347E+03  0.76405856481E+03  0.12509493249E+03 0.  0.
          5    1    3    3  502    0  0.53256981885E+02  0.14084817933E+02 -0.60304223521E+03  0.60556758340E+03  0.41800000000E+01 0. -1.
         -5    1    3    3    0  502 -0.35376674801E+02  0.42999839236E+02 -0.14832876826E+03  0.15849098141E+03  0.41800000000E+01 0. -1.
        -11    1    1    2    0    0  0.32956110665E+02 -0.38125342054E+02 -0.17753095981E+03  0.18454508562E+03  0.00000000000E+00 0.  1.
         11    1    1    2    0    0 -0.50836417749E+02 -0.18959315116E+02 -0.17584080512E+03  0.18402115570E+03  0.00000000000E+00 0. -1.
</event>
<event>
 7    1  0.2384639E-009  0.1077851E+03  0.7561462E-02  0.1264727E+00
          2   -1    0    0  501    0  0.00000000000E+00  0.00000000000E+00  0.14235733150E+04  0.14235733150E+04  0.00000000000E+00 0. -1.
         -2   -1    0    0    0  501 -0.00000000000E+00 -0.00000000000E+00 -0.13986481595E+02  0.13986481595E+02  0.00000000000E+00 0.  1.
         25    2    1    2    0    0 -0.31674909378E+02  0.55168782897E+02  0.11171024744E+04  0.11258822142E+04  0.12508368107E+03 0.  0.
          5    1    3    3  502    0  0.13877951627E+02 -0.18445950386E+02  0.67260337930E+03  0.67301235418E+03  0.41800000000E+01 0. -1.
         -5    1    3    3    0  502 -0.45552861005E+02  0.73614733283E+02  0.44449909514E+03  0.45286985998E+03  0.41800000000E+01 0. -1.
        -11    1    1    2    0    0  0.14372610581E+02 -0.76577668357E+02  0.18528680948E+03  0.20100227111E+03  0.00000000000E+00 0.  1.
         11    1    1    2    0    0  0.17302298796E+02  0.21408885460E+02  0.10719754948E+03  0.11067531131E+03  0.00000000000E+00 0. -1.
</event>
<event>
 7    1  0.2384639E-009  0.9756725E+02  0.7561462E-02  0.1285496E+00
         -2   -1    0    0    0  501 -0.00000000000E+00  0.00000000000E+00  0.31494375954E+02  0.31494375954E+02  0.00000000000E+00 0.  1.
          2   -1    0    0  501    0  0.00000000000E+00 -0.00000000000E+00 -0.43165326326E+03  0.43165326326E+03  0.00000000000E+00 0. -1.
         25    2    1    2    0    0 -0.22302794404E+02  0.32273821048E+02 -0.19118075529E+03  0.23181028875E+03  0.12508762774E+03 0.  0.
          5    1    3    3  502    0  0.47133684660E+02  0.11037936418E+02 -0.36133943769E+02  0.60552081403E+02  0.41800000000E+01 0. -1.
         -5    1    3    3    0  502 -0.69436479064E+02  0.21235884631E+02 -0.15504681152E+03  0.17125820734E+03  0.41800000000E+01 0. -1.
        -11    1    1    2    0    0  0.42842236099E+02 -0.31649926491E+02 -0.20309378002E+03  0.20996251695E+03  0.00000000000E+00 0. -1.
         11    1    1    2    0    0 -0.20539441695E+02 -0.62389455782E+00 -0.58843520040E+01  0.21374833521E+02  0.00000000000E+00 0.  1.
</event>
<event>
 7    1  0.2384639E-009  0.1482120E+03  0.7561462E-02  0.1202687E+00
         -2   -1    0    0    0  501 -0.00000000000E+00  0.00000000000E+00  0.69455952303E+02  0.69455952303E+02  0.00000000000E+00 0.  1.
          2   -1    0    0  501    0  0.00000000000E+00 -0.00000000000E+00 -0.45879932413E+03  0.45879932413E+03  0.00000000000E+00 0. -1.
         25    2    1    2    0    0 -0.10668439637E+03 -0.59940457096E+02 -0.31160624300E+03  0.35737868057E+03  0.12508657733E+03 0.  0.
          5    1    3    3  502    0 -0.44339058864E+02 -0.93053440844E+02 -0.16476135313E+03  0.19439308341E+03  0.41800000000E+01 0.  1.
         -5    1    3    3    0  502 -0.62345337504E+02  0.33112983747E+02 -0.14684488987E+03  0.16298559716E+03  0.41800000000E+01 0.  1.
        -11    1    1    2    0    0  0.57320459586E+02  0.35942816570E+02  0.89776241632E+01  0.68250413081E+02  0.00000000000E+00 0.  1.
         11    1    1    2    0    0  0.49363936782E+02  0.23997640527E+02 -0.86714752997E+02  0.10262618278E+03  0.00000000000E+00 0. -1.
</event>
<event>
 7    1  0.2384639E-009  0.1126665E+03  0.7561462E-02  0.1255710E+00
         -1   -1    0    0    0  501 -0.00000000000E+00  0.00000000000E+00  0.30397932076E+02  0.30397932076E+02  0.00000000000E+00 0.  1.
          1   -1    0    0  501    0  0.00000000000E+00 -0.00000000000E+00 -0.79183766452E+03  0.79183766452E+03  0.00000000000E+00 0. -1.
         25    2    1    2    0    0 -0.21308851333E+02  0.69575510045E+02 -0.19230324317E+03  0.24066951602E+03  0.12508581000E+03 0.  0.
          5    1    3    3  502    0  0.17372895005E+02  0.65606800433E+02 -0.31066279181E+02  0.74757312994E+02  0.41800000000E+01 0.  1.
         -5    1    3    3    0  502 -0.38681746338E+02  0.39687096119E+01 -0.16123696399E+03  0.16591220303E+03  0.41800000000E+01 0.  1.
        -11    1    1    2    0    0 -0.69355617466E-01  0.23109161320E+02 -0.80186527718E+02  0.83450089123E+02  0.00000000000E+00 0.  1.
         11    1    1    2    0    0  0.21378206951E+02 -0.92684671365E+02 -0.48894996155E+03  0.49811599145E+03  0.00000000000E+00 0. -1.
</event>
<event>
 7    1  0.2384639E-009  0.7916118E+02  0.7561462E-02  0.1331449E+00
         -2   -1    0    0    0  501 -0.00000000000E+00  0.00000000000E+00  0.24215573999E+02  0.24215573999E+02  0.00000000000E+00 0. -1.
          2   -1    0    0  501    0  0.00000000000E+00 -0.00000000000E+00 -0.76270567748E+03  0.76270567748E+03  0.00000000000E+00 0.  1.
         25    2    1    2    0    0  0.27884220441E+02  0.29430629571E+02 -0.61557881607E+03  0.62946600256E+03  0.12508588198E+03 0.  0.
          5    1    3    3  502    0  0.37504042194E+02  0.38472449116E+02 -0.61301924267E+03  0.61538341447E+03  0.41800000000E+01 0.  1.
         -5    1    3    3    0  502 -0.96198217532E+01 -0.90418195448E+01 -0.25595734057E+01  0.14082588088E+02  0.41800000000E+01 0.  1.
        -11    1    1    2    0    0  0.23809676395E+02  0.97409986265E+01 -0.10728669477E+02  0.27872784092E+02  0.00000000000E+00 0. -1.
         11    1    1    2    0    0 -0.51693896836E+02 -0.39171628198E+02 -0.11218261793E+03  0.12958246483E+03  0.00000000000E+00 0.  1.
</event>
<event>
 7    1  0.2384639E-009  0.1568678E+03  0.7561462E-02  0.1192279E+00
          1   -1    0    0  501    0  0.00000000000E+00  0.00000000000E+00  0.38571759200E+02  0.38571759200E+02  0.00000000000E+00 0. -1.
         -1   -1    0    0    0  501 -0.00000000000E+00 -0.00000000000E+00 -0.70178097995E+03  0.70178097995E+03  0.00000000000E+00 0.  1.
         25    2    1    2    0    0  0.10920449466E+03 -0.58596217187E+02 -0.35996603403E+03  0.40072715925E+03  0.12509025615E+03 0.  0.
          5    1    3    3  502    0 -0.20446101241E+02 -0.38704866306E+02 -0.10861873899E+03  0.11718196360E+03  0.41800000000E+01 0.  1.
         -5    1    3    3    0  502  0.12965059590E+03 -0.19891350882E+02 -0.25134729504E+03  0.28354519566E+03  0.41800000000E+01 0.  1.
        -11    1    1    2    0    0 -0.22272945225E+02  0.45442986918E+02 -0.18788905494E+03  0.19458531834E+03  0.00000000000E+00 0.  1.
         11    1    1    2    0    0 -0.86931549433E+02  0.13153230269E+02 -0.11535413179E+03  0.14504026156E+03  0.00000000000E+00 0. -1.
</event>
<event>
 7    1  0.2384639E-009  0.1314721E+03  0.7561462E-02  0.1225288E+00
          1   -1    0    0  501    0  0.00000000000E+00  0.00000000000E+00  0.15073694208E+03  0.15073694208E+03  0.00000000000E+00 0. -1.
         -1   -1    0    0    0  501 -0.00000000000E+00 -0.00000000000E+00 -0.15009043710E+03  0.15009043710E+03  0.00000000000E+00 0.  1.
         25    2    1    2    0    0 -0.74699055608E+02  0.65513450760E+02  0.29658025202E+02  0.16247500399E+03  0.12508623955E+03 0.  0.
          5    1    3    3  502    0 -0.19998667235E+02  0.76996419920E+02 -0.25693074840E+02  0.83701862981E+02  0.41800000000E+01 0. -1.
         -5    1    3    3    0  502 -0.54700388373E+02 -0.11482969160E+02  0.55351100042E+02  0.78773141011E+02  0.41800000000E+01 0. -1.
        -11    1    1    2    0    0 -0.12296909608E+02 -0.31518402029E+02 -0.29592847382E+02  0.44948417865E+02  0.00000000000E+00 0.  1.
         11    1    1    2    0    0  0.86995965216E+02 -0.33995048731E+02  0.58132716552E+00  0.93403957322E+02  0.00000000000E+00 0. -1.
</event>
<event>
 7    1  0.2384639E-009  0.1713113E+03  0.7561462E-02  0.1176487E+00
         -2   -1    0    0    0  501 -0.00000000000E+00  0.00000000000E+00  0.38182035507E+02  0.38182035507E+02  0.00000000000E+00 0.  1.
          2   -1    0    0  501    0  0.00000000000E+00 -0.00000000000E+00 -0.84305721796E+03  0.84305721796E+03  0.00000000000E+00 0. -1.
         25    2    1    2    0    0 -0.12688364436E+03  0.63059948382E+02 -0.44542104471E+03  0.48385868661E+03  0.12507319952E+03 0.  0.
          5    1    3    3  502    0 -0.15152883695E+03  0.60503900440E+02 -0.39858783289E+03  0.43071039380E+03  0.41800000000E+01 0. -1.
         -5    1    3    3    0  502  0.24645192596E+02  0.25560479422E+01 -0.46833211819E+02  0.53148292808E+02  0.41800000000E+01 0. -1.
        -11    1    1    2    0    0  0.96569053997E+02 -0.74408535604E+02 -0.19652162451E+03  0.23126383474E+03  0.00000000000E+00 0.  1.
         11    1    1    2    0    0  0.30314590359E+02  0.11348587222E+02 -0.16293251323E+03  0.16611673211E+03  0.00000000000E+00 0. -1.
</event>
<event>
 7    1  0.2384639E-009  0.1304601E+03  0.7561462E-02  0.1226775E+00
          2   -1    0    0  501    0  0.00000000000E+00  0.00000000000E+00  0.14124381278E+03  0.14124381278E+03  0.00000000000E+00 0. -1.
         -2   -1    0    0    0  501 -0.00000000000E+00 -0.00000000000E+00 -0.18401935716E+03  0.18401935716E+03  0.00000000000E+00 0.  1.
         25    2    1    2    0    0 -0.16568954506E+02  0.10614443281E+03  0.27752783317E+02  0.16720995053E+03  0.12509108564E+03 0.  0.
          5    1    3    3  502    0 -0.61453062900E+02  0.44530423592E+02  0.45831582182E+02  0.88754965441E+02  0.41800000000E+01 0. -1.
         -5    1    3    3    0  502  0.44884108393E+02  0.61614009214E+02 -0.18078798865E+02  0.78454985094E+02  0.41800000000E+01 0. -1.
        -11    1    1    2    0    0  0.15371336985E+02 -0.47731627754E+02 -0.84244777309E+02  0.98039628684E+02  0.00000000000E+00 0.  1.
         11    1    1    2    0    0  0.11976175219E+01 -0.58412805052E+02  0.13716449614E+02  0.60013590726E+02  0.00000000000E+00 0. -1.
</event>
<event>
 7    1  0.2384639E-009  0.1116929E+03  0.7561462E-02  0.1257467E+00
         -1   -1    0    0    0  501 -0.00000000000E+00  0.00000000000E+00  0.98771328204E+02  0.98771328204E+02  0.00000000000E+00 0.  1.
          1   -1    0    0  501    0  0.00000000000E+00 -0.00000000000E+00 -0.20150970429E+03  0.20150970429E+03  0.00000000000E+00 0. -1.
         25    2    1    2    0    0  0.61358350345E+02 -0.11946996935E+02  0.12442376010E+02  0.14038926599E+03  0.12508699129E+03 0.  0.
          5    1    3    3  502    0 -0.27142559079E+02 -0.57453841983E+01  0.38674648016E+02  0.47780003685E+02  0.41800000000E+01 0. -1.
         -5    1    3    3    0  502  0.88500909424E+02 -0.62016127370E+01 -0.26232272006E+02  0.92609262301E+02  0.41800000000E+01 0. -1.
        -11    1    1    2    0    0  0.18550972837E+02 -0.13167826158E+02 -0.85673306118E+01  0.24309039322E+02  0.00000000000E+00 0.  1.
         11    1    1    2    0    0 -0.79909323183E+02  0.25114823094E+02 -0.10661342148E+03  0.13558272718E+03  0.00000000000E+00 0. -1.
</event>
<event>
 7    1  0.2384639E-009  0.1097290E+03  0.7561462E-02  0.1261073E+00
          2   -1    0    0  501    0  0.00000000000E+00  0.00000000000E+00  0.10245666980E+04  0.10245666980E+04  0.00000000000E+00 0. -1.
         -2   -1    0    0    0  501 -0.00000000000E+00 -0.00000000000E+00 -0.19732169864E+02  0.19732169864E+02  0.00000000000E+00 0.  1.
         25    2    1    2    0    0 -0.36723659308E+02  0.27505134537E+02  0.84011772556E+03  0.85061769483E+03  0.12509000910E+03 0.  0.
          5    1    3    3  502    0  0.33440794063E+02  0.47004665242E+02  0.45410595813E+03  0.45777441920E+03  0.41800000000E+01 0.  1.
         -5    1    3    3    0  502 -0.70164453371E+02 -0.19499530706E+02  0.38601176743E+03  0.39284327563E+03  0.41800000000E+01 0.  1.
        -11    1    1    2    0    0  0.16148848669E+02 -0.53293475224E+02  0.14481497562E+03  0.15515268924E+03  0.00000000000E+00 0. -1.
         11    1    1    2    0    0  0.20574810639E+02  0.25788340687E+02  0.19901826980E+02  0.38528483818E+02  0.00000000000E+00 0.  1.
</event>
<event>
 7    1  0.2384639E-009  0.2399730E+03  0.7561462E-02  0.1119811E+00
          2   -1    0    0  501    0  0.00000000000E+00  0.00000000000E+00  0.25323355645E+04  0.25323355645E+04  0.00000000000E+00 0. -1.
         -2   -1    0    0    0  501 -0.00000000000E+00 -0.00000000000E+00 -0.35189740558E+02  0.35189740558E+02  0.00000000000E+00 0.  1.
         25    2    1    2    0    0  0.22410327000E+03 -0.56288117639E+02  0.19368308501E+04  0.19545721559E+04  0.12509173805E+03 0.  0.
          5    1    3    3  502    0  0.18680234406E+03 -0.54219402841E+02  0.11124666198E+04  0.11293512793E+04  0.41800000000E+01 0.  1.
         -5    1    3    3    0  502  0.37300925942E+02 -0.20687147975E+01  0.82436423034E+03  0.82522087668E+03  0.41800000000E+01 0.  1.
        -11    1    1    2    0    0 -0.16052495477E+03  0.80731497398E+02  0.38480823643E+03  0.42469190550E+03  0.00000000000E+00 0.  1.
         11    1    1    2    0    0 -0.63578315237E+02 -0.24443379760E+02  0.17550673737E+03  0.18826124360E+03  0.00000000000E+00 0. -1.
</event>
<event>
 7    1  0.2384639E-009  0.1233924E+03  0.7561462E-02  0.1237603E+00
         -1   -1    0    0    0  501 -0.00000000000E+00  0.00000000000E+00  0.42156512752E+03  0.42156512752E+03  0.00000000000E+00 0.  1.
          1   -1    0    0  501    0  0.00000000000E+00 -0.00000000000E+00 -0.36614659778E+02  0.36614659778E+02  0.00000000000E+00 0. -1.
         25    2    1    2    0    0  0.95195179045E+01  0.59317823047E+02  0.22397513584E+03  0.26348106937E+03  0.12509271396E+03 0.  0.
          5    1    3    3  502    0  0.14028374954E+02 -0.37930174653E+02  0.54566493468E+02  0.68047542663E+02  0.41800000000E+01 0. -1.
         -5    1    3    3    0  502 -0.45088570493E+01  0.97247997700E+02  0.16940864237E+03  0.19543352670E+03  0.41800000000E+01 0. -1.
        -11    1    1    2    0    0  0.33982492178E+02 -0.55420676621E+02  0.84287880944E+02  0.10644579863E+03  0.00000000000E+00 0.  1.
         11    1    1    2    0    0 -0.43502010082E+02 -0.38971464262E+01  0.76687450958E+02  0.88252919305E+02  0.00000000000E+00 0. -1.
</event>
<event>
 7    1  0.2384639E-009  0.1348323E+03  0.7561462E-02  0.1220457E+00
          2   -1    0    0  501    0  0.00000000000E+00  0.00000000000E+00  0.17051140768E+03  0.17051140768E+03  0.00000000000E+00 0.  1.
         -2   -1    0    0    0  501 -0.00000000000E+00 -0.00000000000E+00 -0.11687896222E+03  0.11687896222E+03  0.00000000000E+00 0. -1.
         25    2    1    2    0    0 -0.63572295294E+02 -0.32354783348E+02 -0.11096388088E+02  0.14442525868E+03  0.12508899545E+03 0.  0.
          5    1    3    3  502    0 -0.20396430757E+02 -0.77297835965E+02 -0.16480627766E+02  0.81731593182E+02  0.41800000000E+01 0. -1.
         -5    1    3    3    0  502 -0.43175864537E+02  0.44943052617E+02  0.53842396777E+01  0.62693665501E+02  0.41800000000E+01 0. -1.
        -11    1    1    2    0    0  0.73453070216E+02 -0.18170813771E+02  0.43477961961E+02  0.87268924443E+02  0.00000000000E+00 0.  1.
         11    1    1    2    0    0 -0.98807749216E+01  0.50525597118E+02  0.21250871590E+02  0.55696186768E+02  0.00000000000E+00 0. -1.
</event>
<event>
 7    1  0.2384639E-009  0.1649268E+03  0.7561462E-02  0.1183244E+00
         -1   -1    0    0    0  501 -0.00000000000E+00  0.00000000000E+00  0.14587020392E+03  0.14587020392E+03  0.00000000000E+00 0.  1.
          1   -1    0    0  501    0  0.00000000000E+00 -0.00000000000E+00 -0.28164994627E+03  0.28164994627E+03  0.00000000000E+00 0. -1.
         25    2    1    2    0    0  0.13545658504E+03  0.80150345862E+02 -0.96118185266E+00  0.20105033143E+03  0.12509095701E+03 0.  0.
          5    1    3    3  502    0  0.10518259502E+03  0.26414734926E+02 -0.52504949945E+02  0.12056267534E+03  0.41800000000E+01 0.  1.
         -5    1    3    3    0  502  0.30273990019E+02  0.53735610936E+02  0.51543768093E+02  0.80487656094E+02  0.41800000000E+01 0.  1.
        -11    1    1    2    0    0 -0.98552639027E+02 -0.71058599113E+02 -0.46096177879E+02  0.12994923925E+03  0.00000000000E+00 0.  1.
         11    1    1    2    0    0 -0.36903946011E+02 -0.90917467495E+01 -0.88722382619E+02  0.96520579504E+02  0.00000000000E+00 0. -1.
</event>
<event>
 7    1  0.2384639E-009  0.1227247E+03  0.7561462E-02  0.1238669E+00
          2   -1    0    0  501    0  0.00000000000E+00  0.00000000000E+00  0.53127382109E+03  0.53127382109E+03  0.00000000000E+00 0. -1.
         -2   -1    0    0    0  501 -0.00000000000E+00 -0.00000000000E+00 -0.31457123776E+02  0.31457123776E+02  0.00000000000E+00 0.  1.
         25    2    1    2    0    0  0.61294959502E+02 -0.30732969044E+02  0.26174136643E+03  0.29808989894E+03  0.12508979774E+03 0.  0.
          5    1    3    3  502    0  0.61649955637E+01 -0.67838993490E+02  0.18097149281E+03  0.19341222768E+03  0.41800000000E+01 0. -1.
         -5    1    3    3    0  502  0.55129963939E+02  0.37106024446E+02  0.80769873629E+02  0.10467767126E+03  0.41800000000E+01 0. -1.
        -11    1    1    2    0    0 -0.83296594577E+02  0.18078386079E+02  0.21081449557E+03  0.22739371639E+03  0.00000000000E+00 0. -1.
         11    1    1    2    0    0  0.22001635074E+02  0.12654582965E+02  0.27260835314E+02  0.37247329542E+02  0.00000000000E+00 0.  1.
</event>
<event>
 7    1  0.2384639E-009  0.1041586E+03  0.7561462E-02  0.1271786E+00
         -1   -1    0    0    0  501 -0.00000000000E+00  0.00000000000E+00  0.12605437088E+03  0.12605437088E+03  0.00000000000E+00 0.  1.
          1   -1    0    0  501    0  0.00000000000E+00 -0.00000000000E+00 -0.10751881164E+03  0.10751881164E+03  0.00000000000E+00 0. -1.
         25    2    1    2    0    0 -0.15836549791E+02  0.43771673625E+01 -0.39257564035E+02  0.13213132785E+03  0.12509026966E+03 0.  0.
          5    1    3    3  502    0 -0.69912022529E+02  0.12210434520E+02 -0.26456712052E+02  0.75856546309E+02  0.41800000000E+01 0. -1.
         -5    1    3    3    0  502  0.54075472739E+02 -0.78332671574E+01 -0.12800851983E+02  0.56274781543E+02  0.41800000000E+01 0. -1.
        -11    1    1    2    0    0 -0.25636031366E+02 -0.25260778065E+02  0.17763367535E+02  0.40135398825E+02  0.00000000000E+00 0. -1.
         11    1    1    2    0    0  0.41472581157E+02  0.20883610702E+02  0.40029755738E+02  0.61306455845E+02  0.00000000000E+00 0.  1.
</event>
<event>
 7    1  0.2384639E-009  0.1310272E+03  0.7561462E-02  0.1225939E+00
          1   -1    0    0  501    0  0.00000000000E+00  0.00000000000E+00  0.90805974587E+02  0.90805974587E+02  0.00000000000E+00 0. -1.
         -1   -1    0    0    0  501 -0.00000000000E+00 -0.00000000000E+00 -0.26318844892E+03  0.26318844892E+03  0.00000000000E+00 0.  1.
         25    2    1    2    0    0 -0.54715879688E+02 -0.61850377339E+02 -0.17549163140E+03  0.23079263974E+03  0.12509449707E+03 0.  0.
          5    1    3    3  502    0  0.32541269008E+02 -0.12867562355E+01 -0.10403507460E+02  0.34442637787E+02  0.41800000000E+01 0. -1.
         -5    1    3    3    0  502 -0.87257148695E+02 -0.60563621104E+02 -0.16508812394E+03  0.19635000195E+03  0.41800000000E+01 0. -1.
        -11    1    1    2    0    0 -0.18621035164E+02 -0.92376609460E+01  0.34147316098E+01  0.21065083012E+02  0.00000000000E+00 0. -1.
         11    1    1    2    0    0  0.73336914852E+02  0.71088038285E+02 -0.30557454804E+00  0.10213670076E+03  0.00000000000E+00 0.  1.
</event>
<event>
 7    1  0.2384639E-009  0.6330834E+02  0.7561462E-02  0.1384450E+00
          1   -1    0    0  501    0  0.00000000000E+00  0.00000000000E+00  0.15204155261E+03  0.15204155261E+03  0.00000000000E+00 0. -1.
         -1   -1    0    0    0  501 -0.00000000000E+00 -0.00000000000E+00 -0.90909355194E+02  0.90909355194E+02  0.00000000000E+00 0.  1.
         25    2    1    2    0    0 -0.34922825664E+02 -0.77123841465E+01  0.72493032759E+01  0.13030244588E+03  0.12508833032E+03 0.  0.
          5    1    3    3  502    0 -0.51587416531E+02 -0.18543338753E+02  0.55396325116E+02  0.78047051147E+02  0.41800000000E+01 0.  1.
         -5    1    3    3    0  502  0.16664590866E+02  0.10830954607E+02 -0.48147021840E+02  0.52255394731E+02  0.41800000000E+01 0.  1.
        -11    1    1    2    0    0  0.27852503384E+02  0.21930231488E+02  0.76904560809E+02  0.84681807203E+02  0.00000000000E+00 0. -1.
         11    1    1    2    0    0  0.70703222808E+01 -0.14217847342E+02 -0.23021666669E+02  0.27966654723E+02  0.00000000000E+00 0.  1.
</event>
<event>
 7    1  0.2384639E-009  0.1236538E+03  0.7561462E-02  0.1237188E+00
          1   -1    0    0  501    0  0.00000000000E+00  0.00000000000E+00  0.18301206890E+03  0.18301206890E+03  0.00000000000E+00 0. -1.
         -1   -1    0    0    0  501 -0.00000000000E+00 -0.00000000000E+00 -0.96719676325E+02  0.96719676325E+02  0.00000000000E+00 0.  1.
         25    2    1    2    0    0 -0.16495568870E+02 -0.63999950482E+02  0.86440498172E+02  0.16579326734E+03  0.12508936931E+03 0.  0.
          5    1    3    3  502    0  0.43305314597E+02  0.11044926557E+02  0.20900294941E+02  0.49513991998E+02  0.41800000000E+01 0. -1.
         -5    1    3    3    0  502 -0.59800883467E+02 -0.75044877039E+02  0.65540203231E+02  0.11627927534E+03  0.41800000000E+01 0. -1.
        -11    1    1    2    0    0 -0.33976563802E+02  0.20081198411E+02 -0.19870416540E+02  0.44187044152E+02  0.00000000000E+00 0.  1.
         11    1    1    2    0    0  0.50472132673E+02  0.43918752071E+02  0.19722310947E+02  0.69751433742E+02  0.00000000000E+00 0. -1.
</event>
<event>
 7    1  0.2384639E-009  0.1561539E+03  0.7561462E-02  0.1193109E+00
         -1   -1    0    0    0  501 -0.00000000000E+00  0.00000000000E+00  0.48443268758E+02  0.48443268758E+02  0.00000000000E+00 0.  1.
          1   -1    0    0  501    0  0.00000000000E+00 -0.00000000000E+00 -0.51295302963E+03  0.51295302963E+03  0.00000000000E+00 0. -1.
         25    2    1    2    0    0  0.10588492420E+03 -0.40175523524E+02 -0.23404987027E+03  0.28854077962E+03  0.12510295708E+03 0.  0.
          5    1    3    3  502    0  0.43418590961E+02 -0.81728398911E+02 -0.11373775667E+03  0.14669170025E+03  0.41800000000E+01 0. -1.
         -5    1    3    3    0  502  0.62466333236E+02  0.41552875387E+02 -0.12031211360E+03  0.14184907937E+03  0.41800000000E+01 0. -1.
        -11    1    1    2    0    0 -0.12147543208E+03  0.42642138936E+02 -0.19082282497E+03  0.23019118824E+03  0.00000000000E+00 0.  1.
         11    1    1    2    0    0  0.15590507880E+02 -0.24666154113E+01 -0.39637065630E+02  0.42664330527E+02  0.00000000000E+00 0. -1.
</event>
<event>
 7    1  0.2384639E-009  0.1206857E+03  0.7561462E-02  0.1241970E+00
          1   -1    0    0  501    0  0.00000000000E+00  0.00000000000E+00  0.10176939362E+03  0.10176939362E+03  0.00000000000E+00 0.  1.
         -1   -1    0    0    0  501 -0.00000000000E+00 -0.00000000000E+00 -0.20300293077E+03  0.20300293077E+03  0.00000000000E+00 0. -1.
         25    2    1    2    0    0 -0.56016796771E+02 -0.45848569026E+02 -0.11642512331E+03  0.18558495057E+03  0.12508793603E+03 0.  0.
          5    1    3    3  502    0 -0.53218575579E+02  0.21760548579E+02 -0.86975322462E+01  0.58299723226E+02  0.41800000000E+01 0.  1.
         -5    1    3    3    0  502 -0.27982211922E+01 -0.67609117605E+02 -0.10772759106E+03  0.12728522735E+03  0.41800000000E+01 0.  1.
        -11    1    1    2    0    0  0.83587699665E+00  0.59158697449E+02  0.19410527272E+02  0.62267316814E+02  0.00000000000E+00 0.  1.
         11    1    1    2    0    0  0.55180919774E+02 -0.13310128423E+02 -0.42189411141E+01  0.56920057009E+02  0.00000000000E+00 0. -1.
</event>
<event>
 7    1  0.2384639E-009  0.1244136E+03  0.7561462E-02  0.1235989E+00
         -2   -1    0    0    0  501 -0.00000000000E+00  0.00000000000E+00  0.36794871062E+02  0.36794871062E+02  0.00000000000E+00 0.  1.
          2   -1    0    0  501    0  0.00000000000E+00 -0.00000000000E+00 -0.67153290048E+03  0.67153290048E+03  0.00000000000E+00 0. -1.
         25    2    1    2    0    0  0.31186488459E+02  0.72501180909E+02 -0.15675804380E+03  0.21552457742E+03  0.12509492747E+03 0.  0.
          5    1    3    3  502    0  0.55826814319E+02  0.92025381368E+02 -0.14719747964E+03  0.18240031366E+03  0.41800000000E+01 0.  1.
         -5    1    3    3    0  502 -0.24640325860E+02 -0.19524200459E+02 -0.95605641585E+01  0.33124263752E+02  0.41800000000E+01 0.  1.
        -11    1    1    2    0    0 -0.21458710601E+02 -0.88285190259E+02 -0.45103844428E+03  0.46009828222E+03  0.00000000000E+00 0. -1.
         11    1    1    2    0    0 -0.97277778580E+01  0.15784009350E+02 -0.26941541339E+02  0.32704911909E+02  0.00000000000E+00 0.  1.
</event>
<event>
 7    1  0.2384639E-009  0.1097719E+03  0.7561462E-02  0.1260993E+00
          2   -1    0    0  501    0  0.00000000000E+00  0.00000000000E+00  0.96641358140E+03  0.96641358140E+03  0.00000000000E+00 0. -1.
         -2   -1    0    0    0  501 -0.00000000000E+00 -0.00000000000E+00 -0.20686735166E+02  0.20686735166E+02  0.00000000000E+00 0.  1.
         25    2    1    2    0    0 -0.64924859455E+02 -0.18316610675E+02  0.71264845957E+03  0.72668158059E+03  0.12509019563E+03 0.  0.
          5    1    3    3  502    0 -0.36602903594E+02  0.51182324436E+02  0.24265329246E+03  0.25071397174E+03  0.41800000000E+01 0.  1.
         -5    1    3    3    0  502 -0.28321955861E+02 -0.69498935111E+02  0.46999516711E+03  0.47596760885E+03  0.41800000000E+01 0.  1.
        -11    1    1    2    0    0  0.19933012114E+02  0.28889905696E+02  0.16176568282E+02  0.38647548234E+02  0.00000000000E+00 0.  1.
         11    1    1    2    0    0  0.44991847341E+02 -0.10573295022E+02  0.21690181838E+03  0.22177118774E+03  0.00000000000E+00 0. -1.
</event>
<event>
 7    1  0.2384639E-009  0.9022545E+02  0.7561462E-02  0.1302307E+00
         -2   -1    0    0    0  501 -0.00000000000E+00  0.00000000000E+00  0.70797437653E+02  0.70797437653E+02  0.00000000000E+00 0. -1.
          2   -1    0    0  501    0  0.00000000000E+00 -0.00000000000E+00 -0.18513888719E+03  0.18513888719E+03  0.00000000000E+00 0.  1.
         25    2    1    2    0    0  0.17086704322E+02  0.16177869647E+01 -0.10079006892E+03  0.16155277368E+03  0.12508432352E+03 0.  0.
          5    1    3    3  502    0  0.59769600951E+02  0.22895156792E+02 -0.19198650004E+02  0.66952624775E+02  0.41800000000E+01 0.  1.
         -5    1    3    3    0  502 -0.42682896628E+02 -0.21277369827E+02 -0.81591418920E+02  0.94600148904E+02  0.41800000000E+01 0.  1.
        -11    1    1    2    0    0 -0.21351527737E+02  0.29838377741E+02 -0.39111897177E+02  0.53627950024E+02  0.00000000000E+00 0.  1.
         11    1    1    2    0    0  0.42648234149E+01 -0.31456164706E+02  0.25560516568E+02  0.40755601137E+02  0.00000000000E+00 0. -1.
</event>
<event>
 7    1  0.2384639E-009  0.9977481E+02  0.7561462E-02  0.1280770E+00
          2   -1    0    0  501    0  0.00000000000E+00  0.00000000000E+00  0.64569829170E+03  0.64569829170E+03  0.00000000000E+00 0. -1.
         -2   -1    0    0    0  501 -0.00000000000E+00 -0.00000000000E+00 -0.19648197871E+02  0.19648197871E+02  0.00000000000E+00 0.  1.
         25    2    1    2    0    0 -0.21583822579E+02  0.23557648087E+02  0.38558735704E+03  0.40662759347E+03  0.12509023014E+03 0.  0.
          5    1    3    3  502    0  0.44333889505E+02  0.14067359448E+02  0.70584972017E+02  0.84635069771E+02  0.41800000000E+01 0.  1.
         -5    1    3    3    0  502 -0.65917712084E+02  0.94902886392E+01  0.31500238503E+03  0.32199252370E+03  0.41800000000E+01 0.  1.
        -11    1    1    2    0    0  0.50494518150E+02 -0.26562875482E+02  0.98676008439E+02  0.11398349599E+03  0.00000000000E+00 0.  1.
         11    1    1    2    0    0 -0.28910695571E+02  0.30052273952E+01  0.14178672834E+03  0.14473540011E+03  0.00000000000E+00 0. -1.
</event>
<event>
 7    1  0.2384639E-009  0.1237638E+03  0.7561462E-02  0.1237014E+00
         -1   -1    0    0    0  501 -0.00000000000E+00  0.00000000000E+00  0.22604328741E+02  0.22604328741E+02  0.00000000000E+00 0.  1.
          1   -1    0    0  501    0  0.00000000000E+00 -0.00000000000E+00 -0.12014393205E+04  0.12014393205E+04  0.00000000000E+00 0. -1.
         25    2    1    2    0    0  0.22195531104E+02 -0.98262103718E+02 -0.89672713797E+03  0.91099733152E+03  0.12509394646E+03 0.  0.
          5    1    3    3  502    0 -0.19618117661E+02 -0.68986124650E+02 -0.20219051607E+03  0.21457500582E+03  0.41800000000E+01 0.  1.
         -5    1    3    3    0  502  0.41813648765E+02 -0.29275979068E+02 -0.69453662191E+03  0.69642232571E+03  0.41800000000E+01 0.  1.
        -11    1    1    2    0    0 -0.49088008481E+02  0.57075883060E+02 -0.10476134074E+03  0.12900475773E+03  0.00000000000E+00 0.  1.
         11    1    1    2    0    0  0.26892477377E+02  0.41186220658E+02 -0.17734651303E+03  0.18404155997E+03  0.00000000000E+00 0. -1.
</event>
<event>
 7    1  0.2384639E-009  0.1165863E+03  0.7561462E-02  0.1248837E+00
          3   -1    0    0  501    0  0.00000000000E+00  0.00000000000E+00  0.19716266313E+03  0.19716266313E+03  0.00000000000E+00 0. -1.
         -3   -1    0    0    0  501 -0.00000000000E+00 -0.00000000000E+00 -0.18904227658E+03  0.18904227658E+03  0.00000000000E+00 0.  1.
         25    2    1    2    0    0 -0.49461443569E+01  0.89320211289E+02 -0.12720209129E+03  0.19957857576E+03  0.12509464971E+03 0.  0.
          5    1    3    3  502    0 -0.20163717477E+02  0.63232188250E+01 -0.11160750584E+03  0.11366734957E+03  0.41800000000E+01 0. -1.
         -5    1    3    3    0  502  0.15217573120E+02  0.82996992464E+02 -0.15594585452E+02  0.85911226188E+02  0.41800000000E+01 0. -1.
        -11    1    1    2    0    0  0.42751765997E+02 -0.17919698258E+02  0.62827401353E+02  0.78077598850E+02  0.00000000000E+00 0. -1.
         11    1    1    2    0    0 -0.37805621640E+02 -0.71400513031E+02  0.72495076493E+02  0.10854876510E+03  0.00000000000E+00 0.  1.
</event>
<event>
 7    1  0.2384639E-009  0.2683678E+03  0.7561462E-02  0.1102217E+00
         -2   -1    0    0    0  501 -0.00000000000E+00  0.00000000000E+00  0.16164639467E+03  0.16164639467E+03  0.00000000000E+00 0.  1.
          2   -1    0    0  501    0  0.00000000000E+00 -0.00000000000E+00 -0.72785598383E+03  0.72785598383E+03  0.00000000000E+00 0. -1.
         25    2    1    2    0    0  0.21595580265E+03  0.12808663731E+03 -0.19871761104E+02  0.28122103433E+03  0.12508911986E+03 0.  0.
          5    1    3    3  502    0  0.47913614769E+02  0.90008408530E+02 -0.35761766510E+02  0.10813697069E+03  0.41800000000E+01 0. -1.
         -5    1    3    3    0  502  0.16804218788E+03  0.38078228775E+02  0.15890005406E+02  0.17308406364E+03  0.41800000000E+01 0. -1.
        -11    1    1    2    0    0 -0.51578061783E+02 -0.72161262695E+02 -0.13199504580E+03  0.15902904266E+03  0.00000000000E+00 0. -1.
         11    1    1    2    0    0 -0.16437774087E+03 -0.55925374610E+02 -0.41434278225E+03  0.44925230152E+03  0.00000000000E+00 0.  1.
</event>
<event>
 7    1  0.2384639E-009  0.1653355E+03  0.7561462E-02  0.1182801E+00
         -1   -1    0    0    0  501 -0.00000000000E+00  0.00000000000E+00  0.18226923004E+03  0.18226923004E+03  0.00000000000E+00 0.  1.
          1   -1    0    0  501    0  0.00000000000E+00 -0.00000000000E+00 -0.16362101527E+03  0.16362101527E+03  0.00000000000E+00 0. -1.
         25    2    1    2    0    0 -0.12004404037E+03 -0.56380368652E+02 -0.14565420610E+02  0.18288994512E+03  0.12508902011E+03 0.  0.
          5    1    3    3  502    0 -0.13177444281E+03 -0.78218824790E+01 -0.77606858460E+01  0.13230036382E+03  0.41800000000E+01 0.  1.
         -5    1    3    3    0  502  0.11730402440E+02 -0.48558486173E+02 -0.68047347639E+01  0.50589581299E+02  0.41800000000E+01 0.  1.
        -11    1    1    2    0    0  0.88132717676E+01  0.33850542616E+02 -0.17008415710E+02  0.38894976534E+02  0.00000000000E+00 0. -1.
         11    1    1    2    0    0  0.11123076860E+03  0.22529826036E+02  0.50222051084E+02  0.12410532365E+03  0.00000000000E+00 0.  1.
</event>
<event>
 7    1  0.2384639E-009  0.3467965E+03  0.7561462E-02  0.1063938E+00
         -1   -1    0    0    0  501 -0.00000000000E+00  0.00000000000E+00  0.10411325101E+03  0.10411325101E+03  0.00000000000E+00 0.  1.
          1   -1    0    0  501    0  0.00000000000E+00 -0.00000000000E+00 -0.17308706838E+04  0.17308706838E+04  0.00000000000E+00 0. -1.
         25    2    1    2    0    0 -0.74420853425E+02  0.32759458999E+03 -0.31285762187E+03  0.47579785347E+03  0.12508807691E+03 0.  0.
          5    1    3    3  502    0 -0.90699770028E+02  0.23254822461E+03 -0.27683579579E+03  0.37277426854E+03  0.41800000000E+01 0.  1.
         -5    1    3    3    0  502  0.16278916603E+02  0.95046365372E+02 -0.36021826079E+02  0.10302358492E+03  0.41800000000E+01 0.  1.
        -11    1    1    2    0    0  0.22548256007E+01 -0.20612464892E+03 -0.74338916498E+03  0.77144015046E+03  0.00000000000E+00 0.  1.
         11    1    1    2    0    0  0.72166027824E+02 -0.12146994107E+03 -0.57051064590E+03  0.58774593086E+03  0.00000000000E+00 0. -1.
</event>
<event>
 7    1  0.2384639E-009  0.1430558E+03  0.7561462E-02  0.1209275E+00
         -4   -1    0    0    0  501 -0.00000000000E+00  0.00000000000E+00  0.61398449672E+02  0.61398449672E+02  0.00000000000E+00 0.  1.
          4   -1    0    0  501    0  0.00000000000E+00 -0.00000000000E+00 -0.37500914954E+03  0.37500914954E+03  0.00000000000E+00 0. -1.
         25    2    1    2    0    0  0.77812579953E+02  0.51697764778E+02 -0.97886684413E+02  0.18427231520E+03  0.12508807570E+03 0.  0.
          5    1    3    3  502    0  0.60923645005E+02  0.92843323524E+02 -0.64362811665E+02  0.12841969152E+03  0.41800000000E+01 0. -1.
         -5    1    3    3    0  502  0.16888934948E+02 -0.41145558747E+02 -0.33523872747E+02  0.55852623683E+02  0.41800000000E+01 0. -1.
        -11    1    1    2    0    0 -0.80999955949E+02 -0.25279382867E+01 -0.12718634388E+03  0.15081030935E+03  0.00000000000E+00 0.  1.
         11    1    1    2    0    0  0.31873759960E+01 -0.49169826491E+02 -0.88537671573E+02  0.10132497466E+03  0.00000000000E+00 0. -1.
</event>
<event>
 7    1  0.2384639E-009  0.9972912E+02  0.7561462E-02  0.1280867E+00
          1   -1    0    0  501    0  0.00000000000E+00  0.00000000000E+00  0.77793208353E+03  0.77793208353E+03  0.00000000000E+00 0. -1.
         -1   -1    0    0    0  501 -0.00000000000E+00 -0.00000000000E+00 -0.17292342101E+02  0.17292342101E+02  0.00000000000E+00 0.  1.
         25    2    1    2    0    0 -0.17271514615E+02  0.30496095768E+02  0.50665624949E+03  0.52304508375E+03  0.12508911785E+03 0.  0.
          5    1    3    3  502    0  0.75511155921E+01  0.61286023593E+02  0.44752208690E+03  0.45178145900E+03  0.41800000000E+01 0. -1.
         -5    1    3    3    0  502 -0.24822630208E+02 -0.30789927825E+02  0.59134162594E+02  0.71263624743E+02  0.41800000000E+01 0. -1.
        -11    1    1    2    0    0 -0.36263684739E+01  0.31842984197E+02  0.79221694939E+02  0.85458780355E+02  0.00000000000E+00 0. -1.
         11    1    1    2    0    0  0.20897883089E+02 -0.62339079965E+02  0.17476179700E+03  0.18672056153E+03  0.00000000000E+00 0.  1.
</event>
<event>
 7    1  0.2384639E-009  0.1717445E+03  0.7561462E-02  0.1176041E+00
          1   -1    0    0  501    0  0.00000000000E+00  0.00000000000E+00  0.12548924493E+03  0.12548924493E+03  0.00000000000E+00 0. -1.
         -1   -1    0    0    0  501 -0.00000000000E+00 -0.00000000000E+00 -0.35238928406E+03  0.35238928406E+03  0.00000000000E+00 0.  1.
         25    2    1    2    0    0 -0.10740301071E+03 -0.10975761876E+03 -0.22120180118E+03  0.29691700066E+03  0.12508927550E+03 0.  0.
          5    1    3    3  502    0  0.89791233801E+01 -0.19402213280E+01  0.11467073063E+02  0.15275970676E+02  0.41800000000E+01 0. -1.
         -5    1    3    3    0  502 -0.11638213409E+03 -0.10781739743E+03 -0.23266887425E+03  0.28164102998E+03  0.41800000000E+01 0. -1.
        -11    1    1    2    0    0  0.96611698884E+02  0.12376634703E+03 -0.19921297902E+02  0.15826808626E+03  0.00000000000E+00 0.  1.
         11    1    1    2    0    0  0.10791311827E+02 -0.14008728268E+02  0.14223059957E+02  0.22693442074E+02  0.00000000000E+00 0. -1.
</event>
<event>
 7    1  0.2384639E-009  0.1817157E+03  0.7561462E-02  0.1166153E+00
         -2   -1    0    0    0  501 -0.00000000000E+00  0.00000000000E+00  0.41448015553E+02  0.41448015553E+02  0.00000000000E+00 0.  1.
          2   -1    0    0  501    0  0.00000000000E+00 -0.00000000000E+00 -0.83181884044E+03  0.83181884044E+03  0.00000000000E+00 0. -1.
         25    2    1    2    0    0 -0.12370539052E+03 -0.85111216314E+02 -0.44140595055E+03  0.48273443592E+03  0.12508548938E+03 0.  0.
          5    1    3    3  502    0 -0.41477995912E+02 -0.96449214872E+02 -0.17987649316E+03  0.20831682694E+03  0.41800000000E+01 0. -1.
         -5    1    3    3    0  502 -0.82227394608E+02  0.11337998558E+02 -0.26152945739E+03  0.27441760898E+03  0.41800000000E+01 0. -1.
        -11    1    1    2    0    0  0.50634216458E+02 -0.13604509638E+02 -0.99132751010E+02  0.11214369747E+03  0.00000000000E+00 0.  1.
         11    1    1    2    0    0  0.73071174061E+02  0.98715725952E+02 -0.24983212332E+03  0.27838872260E+03  0.00000000000E+00 0. -1.
</event>
<event>
 7    1  0.2384639E-009  0.1134722E+03  0.7561462E-02  0.1254272E+00
         -2   -1    0    0    0  501 -0.00000000000E+00  0.00000000000E+00  0.93965024163E+02  0.93965024163E+02  0.00000000000E+00 0.  1.
          2   -1    0    0  501    0  0.00000000000E+00 -0.00000000000E+00 -0.23687726475E+03  0.23687726475E+03  0.00000000000E+00 0. -1.
         25    2    1    2    0    0  0.81504741476E+02  0.43731793071E+02 -0.12502312202E+03  0.19958458516E+03  0.12509089889E+03 0.  0.
          5    1    3    3  502    0  0.34135289019E+02  0.34839721475E+02 -0.14050580115E+03  0.14878970632E+03  0.41800000000E+01 0. -1.
         -5    1    3    3    0  502  0.47369452456E+02  0.88920715960E+01  0.15482679133E+02  0.50794878840E+02  0.41800000000E+01 0. -1.
        -11    1    1    2    0    0 -0.16040916859E+02  0.28143157534E+02  0.70992476586E-01  0.32393724231E+02  0.00000000000E+00 0. -1.
         11    1    1    2    0    0 -0.65463824617E+02 -0.71874950605E+02 -0.17960111041E+02  0.98863979520E+02  0.00000000000E+00 0.  1.
</event>
<event>
 7    1  0.2384639E-009  0.9267158E+02  0.7561462E-02  0.1296508E+00
         -1   -1    0    0    0  501 -0.00000000000E+00  0.00000000000E+00  0.95779362541E+02  0.95779362541E+02  0.00000000000E+00 0.  1.
          1   -1    0    0  501    0  0.00000000000E+00 -0.00000000000E+00 -0.13831336969E+03  0.13831336969E+03  0.00000000000E+00 0. -1.
         25    2    1    2    0    0 -0.40056902718E+01 -0.30476165127E+02 -0.49976846304E+02  0.13816372933E+03  0.12508672487E+03 0.  0.
          5    1    3    3  502    0 -0.30710930809E+02  0.18702684260E+02  0.25377498564E+02  0.44209065847E+02  0.41800000000E+01 0.  1.
         -5    1    3    3    0  502  0.26705240538E+02 -0.49178849388E+02 -0.75354344868E+02  0.93954663481E+02  0.41800000000E+01 0.  1.
        -11    1    1    2    0    0  0.45610232560E+02  0.10171074694E+02  0.14875524317E+02  0.49041057272E+02  0.00000000000E+00 0.  1.
         11    1    1    2    0    0 -0.41604542288E+02  0.20305090433E+02 -0.74326851577E+01  0.46887945628E+02  0.00000000000E+00 0. -1.
</event>
<event>
 7    1  0.2384639E-009  0.8374852E+02  0.7561462E-02  0.1318738E+00
          1   -1    0    0  501    0  0.00000000000E+00  0.00000000000E+00  0.24391868820E+03  0.24391868820E+03  0.00000000000E+00 0. -1.
         -1   -1    0    0    0  501 -0.00000000000E+00 -0.00000000000E+00 -0.52317948205E+02  0.52317948205E+02  0.00000000000E+00 0.  1.
         25    2    1    2    0    0 -0.23466520871E+02 -0.27480665463E+02  0.11473214386E+03  0.17354322893E+03  0.12509165798E+03 0.  0.
          5    1    3    3  502    0 -0.16623310967E+02  0.22323892223E+02 -0.16724641537E+02  0.32739527578E+02  0.41800000000E+01 0. -1.
         -5    1    3    3    0  502 -0.68432099041E+01 -0.49804557686E+02  0.13145678540E+03  0.14080370135E+03  0.41800000000E+01 0. -1.
        -11    1    1    2    0    0  0.93429382193E+01 -0.29113437783E+02  0.49687285222E+02  0.58341315265E+02  0.00000000000E+00 0. -1.
         11    1    1    2    0    0  0.14123582652E+02  0.56594103246E+02  0.27181310919E+02  0.64352092215E+02  0.00000000000E+00 0.  1.
</event>
<event>
 7    1  0.2384639E-009  0.8859587E+02  0.7561462E-02  0.1306288E+00
          2   -1    0    0  501    0  0.00000000000E+00  0.00000000000E+00  0.21736490576E+03  0.21736490576E+03  0.00000000000E+00 0.  1.
         -2   -1    0    0    0  501 -0.00000000000E+00 -0.00000000000E+00 -0.12048689184E+03  0.12048689184E+03  0.00000000000E+00 0. -1.
         25    2    1    2    0    0 -0.15378816736E+02  0.73657346135E+02  0.14955934811E+03  0.20899208886E+03  0.12509109464E+03 0.  0.
          5    1    3    3  502    0 -0.26115557463E+02  0.88961906159E+01  0.13972358988E+03  0.14248269550E+03  0.41800000000E+01 0. -1.
         -5    1    3    3    0  502  0.10736740727E+02  0.64761155519E+02  0.98357582299E+01  0.66509393363E+02  0.41800000000E+01 0. -1.
        -11    1    1    2    0    0 -0.10754394188E+02 -0.99530021621E+01 -0.57976982981E+02  0.59800081957E+02  0.00000000000E+00 0. -1.
         11    1    1    2    0    0  0.26133210924E+02 -0.63704343973E+02  0.52956488011E+01  0.69059626776E+02  0.00000000000E+00 0.  1.
</event>
<event>
 7    1  0.2384639E-009  0.9720005E+02  0.7561462E-02  0.1286297E+00
          1   -1    0    0  501    0  0.00000000000E+00  0.00000000000E+00  0.85829084157E+02  0.85829084157E+02  0.00000000000E+00 0. -1.
         -1   -1    0    0    0  501 -0.00000000000E+00 -0.00000000000E+00 -0.16156274636E+03  0.16156274636E+03  0.00000000000E+00 0.  1.
         25    2    1    2    0    0 -0.13069399074E+01  0.28607696380E+02 -0.80160551298E+02  0.15130574220E+03  0.12509038834E+03 0.  0.
          5    1    3    3  502    0  0.52304713253E+02  0.20227576197E+02 -0.22643639682E+01  0.56280881403E+02  0.41800000000E+01 0.  1.
         -5    1    3    3    0  502 -0.53611653161E+02  0.83801201835E+01 -0.77896187330E+02  0.95024860797E+02  0.41800000000E+01 0.  1.
        -11    1    1    2    0    0  0.16588523570E+02 -0.52678938140E+02 -0.19799905482E+02  0.58670997050E+02  0.00000000000E+00 0.  1.
         11    1    1    2    0    0 -0.15281583662E+02  0.24071241759E+02  0.24226794577E+02  0.37415091267E+02  0.00000000000E+00 0. -1.
</event>
<event>
 7    1  0.2384639E-009  0.1137536E+03  0.7561462E-02  0.1253772E+00
          1   -1    0    0  501    0  0.00000000000E+00  0.00000000000E+00  0.18369323756E+02  0.18369323756E+02  0.00000000000E+00 0. -1.
         -1   -1    0    0    0  501 -0.00000000000E+00 -0.00000000000E+00 -0.89889952211E+03  0.89889952211E+03  0.00000000000E+00 0.  1.
         25    2    1    2    0    0 -0.57207709845E+02  0.28664606056E+02 -0.52588314866E+03  0.54433052850E+03  0.12509299141E+03 0.  0.
          5    1    3    3  502    0 -0.77392217494E+02  0.46419480230E+02 -0.49498677621E+03  0.50316369553E+03  0.41800000000E+01 0. -1.
         -5    1    3    3    0  502  0.20184507649E+02 -0.17754874175E+02 -0.30896372451E+02  0.41166832968E+02  0.41800000000E+01 0. -1.
        -11    1    1    2    0    0 -0.24046692710E+02 -0.12541941635E+02 -0.46307827826E+02  0.53665246186E+02  0.00000000000E+00 0. -1.
         11    1    1    2    0    0  0.81254402555E+02 -0.16122664421E+02 -0.30833922186E+03  0.31927307118E+03  0.00000000000E+00 0.  1.
</event>
<event>
 7    1  0.2384639E-009  0.2144360E+03  0.7561462E-02  0.1138101E+00
         -2   -1    0    0    0  501 -0.00000000000E+00  0.00000000000E+00  0.49371697394E+03  0.49371697394E+03  0.00000000000E+00 0.  1.
          2   -1    0    0  501    0  0.00000000000E+00 -0.00000000000E+00 -0.11015928910E+03  0.11015928910E+03  0.00000000000E+00 0. -1.
         25    2    1    2    0    0  0.12681059780E+03  0.16335308978E+03  0.22131101441E+03  0.32770766660E+03  0.12509432440E+03 0.  0.
          5    1    3    3  502    0  0.50099576816E+02  0.24030687354E+02  0.13645393474E+03  0.14739263970E+03  0.41800000000E+01 0.  1.
         -5    1    3    3    0  502  0.76711020984E+02  0.13932240242E+03  0.84857079672E+02  0.18031502691E+03  0.41800000000E+01 0.  1.
        -11    1    1    2    0    0 -0.95479778866E+02 -0.78529935144E+02  0.13192188779E+03  0.18079469949E+03  0.00000000000E+00 0.  1.
         11    1    1    2    0    0 -0.31330818934E+02 -0.84823154635E+02  0.30324782643E+02  0.95373896952E+02  0.00000000000E+00 0. -1.
</event>
<event>
 7    1  0.2384639E-009  0.1193206E+03  0.7561462E-02  0.1244222E+00
         -1   -1    0    0    0  501 -0.00000000000E+00  0.00000000000E+00  0.69199201046E+02  0.69199201046E+02  0.00000000000E+00 0.  1.
          1   -1    0    0  501    0  0.00000000000E+00 -0.00000000000E+00 -0.24496386540E+03  0.24496386540E+03  0.00000000000E+00 0. -1.
         25    2    1    2    0    0 -0.42826854423E+02  0.43687030657E+02 -0.13951744953E+03  0.19711292158E+03  0.12508272871E+03 0.  0.
          5    1    3    3  502    0  0.25222016346E+02  0.54274123550E+02 -0.28539326808E+02  0.66436406965E+02  0.41800000000E+01 0.  1.
         -5    1    3    3    0  502 -0.68048870769E+02 -0.10587092893E+02 -0.11097812273E+03  0.13067651462E+03  0.41800000000E+01 0.  1.
        -11    1    1    2    0    0 -0.26561106460E+02 -0.27840202704E+02 -0.32990617331E+01  0.38619335459E+02  0.00000000000E+00 0.  1.
         11    1    1    2    0    0  0.69387960883E+02 -0.15846827953E+02 -0.32948153082E+02  0.78430809401E+02  0.00000000000E+00 0. -1.
</event>
<event>
 7    1  0.2384639E-009  0.6355568E+02  0.7561462E-02  0.1383488E+00
         -1   -1    0    0    0  501 -0.00000000000E+00  0.00000000000E+00  0.31942176653E+03  0.31942176653E+03  0.00000000000E+00 0.  1.
          1   -1    0    0  501    0  0.00000000000E+00 -0.00000000000E+00 -0.45269294834E+02  0.45269294834E+02  0.00000000000E+00 0. -1.
         25    2    1    2    0    0  0.83666206695E+00  0.23111346506E+02  0.22366492605E+03  0.25730801691E+03  0.12508629852E+03 0.  0.
          5    1    3    3  502    0  0.17751594668E+02  0.50676942979E+02  0.21756445993E+03  0.22413174315E+03  0.41800000000E+01 0. -1.
         -5    1    3    3    0  502 -0.16914932601E+02 -0.27565596474E+02  0.61004661297E+01  0.33176273764E+02  0.41800000000E+01 0. -1.
        -11    1    1    2    0    0 -0.13171933350E+02 -0.24908413657E+02 -0.20794571533E+02  0.35019181948E+02  0.00000000000E+00 0. -1.
         11    1    1    2    0    0  0.12335271283E+02  0.17970671511E+01  0.71282117176E+02  0.72363862508E+02  0.00000000000E+00 0.  1.
</event>
<event>
 7    1  0.2384639E-009  0.8927209E+02  0.7561462E-02  0.1304624E+00
          2   -1    0    0  501    0  0.00000000000E+00  0.00000000000E+00  0.18111097560E+03  0.18111097560E+03  0.00000000000E+00 0. -1.
         -2   -1    0    0    0  501 -0.00000000000E+00 -0.00000000000E+00 -0.76966763069E+02  0.76966763069E+02  0.00000000000E+00 0.  1.
         25    2    1    2    0    0 -0.40471034368E+02  0.15934550185E+02  0.40117378594E+02  0.13838330794E+03  0.12509484937E+03 0.  0.
          5    1    3    3  502    0  0.26890656110E+02  0.30891990702E+02  0.53970476744E+02  0.67880094546E+02  0.41800000000E+01 0. -1.
         -5    1    3    3    0  502 -0.67361690479E+02 -0.14957440518E+02 -0.13853098150E+02  0.70503213397E+02  0.41800000000E+01 0. -1.
        -11    1    1    2    0    0  0.35853713869E+02  0.13604852612E+02 -0.10192358926E+02  0.39679528642E+02  0.00000000000E+00 0.  1.
         11    1    1    2    0    0  0.46173204989E+01 -0.29539402796E+02  0.74219192863E+02  0.80014902083E+02  0.00000000000E+00 0. -1.
</event>
<event>
 7    1  0.2384639E-009  0.1367508E+03  0.7561462E-02  0.1217769E+00
          1   -1    0    0  501    0  0.00000000000E+00  0.00000000000E+00  0.55323966690E+02  0.55323966690E+02  0.00000000000E+00 0. -1.
         -1   -1    0    0    0  501 -0.00000000000E+00 -0.00000000000E+00 -0.37603879944E+03  0.37603879944E+03  0.00000000000E+00 0.  1.
         25    2    1    2    0    0 -0.35638117700E+02 -0.80972421082E+02 -0.12264894044E+03  0.19625750602E+03  0.12509051790E+03 0.  0.
          5    1    3    3  502    0 -0.35765162737E+02 -0.11258222210E+03 -0.11146450502E+03  0.16246757177E+03  0.41800000000E+01 0.  1.
         -5    1    3    3    0  502  0.12704503729E+00  0.31609801016E+02 -0.11184435419E+02  0.33789934246E+02  0.41800000000E+01 0.  1.
        -11    1    1    2    0    0  0.63971886393E+02  0.63449884578E+02 -0.16594421371E+03  0.18882736074E+03  0.00000000000E+00 0.  1.
         11    1    1    2    0    0 -0.28333768694E+02  0.17522536504E+02 -0.32121678599E+02  0.46277899368E+02  0.00000000000E+00 0. -1.
</event>
<event>
 7    1  0.2384639E-009  0.1211418E+03  0.7561462E-02  0.1241225E+00
          2   -1    0    0  501    0  0.00000000000E+00  0.00000000000E+00  0.15556146612E+03  0.15556146612E+03  0.00000000000E+00 0. -1.
         -2   -1    0    0    0  501 -0.00000000000E+00 -0.00000000000E+00 -0.10685556053E+03  0.10685556053E+03  0.00000000000E+00 0.  1.
         25    2    1    2    0    0  0.63771466282E+02  0.19008580452E+02  0.52895822501E+02  0.15123945406E+03  0.12508908179E+03 0.  0.
          5    1    3    3  502    0  0.43186856273E+02 -0.46572688317E+02 -0.12098701802E+01  0.63663616278E+02  0.41800000000E+01 0. -1.
         -5    1    3    3    0  502  0.20584610010E+02  0.65581268769E+02  0.54105692682E+02  0.87575837782E+02  0.41800000000E+01 0. -1.
        -11    1    1    2    0    0  0.19982272811E+02 -0.16603802513E+02 -0.83413187964E+01  0.27286536678E+02  0.00000000000E+00 0.  1.
         11    1    1    2    0    0 -0.83753739093E+02 -0.24047779390E+01  0.41514018856E+01  0.83891035914E+02  0.00000000000E+00 0. -1.
</event>
<event>
 7    1  0.2384639E-009  0.1150252E+03  0.7561462E-02  0.1251537E+00
         -2   -1    0    0    0  501 -0.00000000000E+00  0.00000000000E+00  0.52064544273E+03  0.52064544273E+03  0.00000000000E+00 0. -1.
          2   -1    0    0  501    0  0.00000000000E+00 -0.00000000000E+00 -0.35265554458E+02  0.35265554458E+02  0.00000000000E+00 0.  1.
         25    2    1    2    0    0 -0.53838776208E+02 -0.32758512446E+02  0.36205007332E+03  0.38820165858E+03  0.12509411726E+03 0.  0.
          5    1    3    3  502    0  0.25583991103E+02 -0.26852400949E+02  0.23675060841E+03  0.23967460237E+03  0.41800000000E+01 0. -1.
         -5    1    3    3    0  502 -0.79422767312E+02 -0.59061114967E+01  0.12529946491E+03  0.14852705621E+03  0.41800000000E+01 0. -1.
        -11    1    1    2    0    0  0.51272972148E+02 -0.23680711848E+02  0.70776194629E+02  0.90548128157E+02  0.00000000000E+00 0.  1.
         11    1    1    2    0    0  0.25658040602E+01  0.56439224294E+02  0.52553620325E+02  0.77161210454E+02  0.00000000000E+00 0. -1.
</event>
<event>
 7    1  0.2384639E-009  0.1274765E+03  0.7561462E-02  0.1231249E+00
         -1   -1    0    0    0  501 -0.00000000000E+00  0.00000000000E+00  0.17013614271E+03  0.17013614271E+03  0.00000000000E+00 0.  1.
          1   -1    0    0  501    0  0.00000000000E+00 -0.00000000000E+00 -0.11062262708E+03  0.11062262708E+03  0.00000000000E+00 0. -1.
         25    2    1    2    0    0 -0.64818277910E+02  0.21553395380E+02  0.80534250747E+02  0.16370241829E+03  0.12508700255E+03 0.  0.
          5    1    3    3  502    0 -0.77790448925E+02 -0.34184989782E+02  0.50586992488E+02  0.98977187672E+02  0.41800000000E+01 0. -1.
         -5    1    3    3    0  502  0.12972171016E+02  0.55738385162E+02  0.29947258259E+02  0.64725230618E+02  0.41800000000E+01 0. -1.
        -11    1    1    2    0    0  0.85378548167E+02 -0.29681460378E+02 -0.26659133462E+02  0.94240092181E+02  0.00000000000E+00 0. -1.
         11    1    1    2    0    0 -0.20560270258E+02  0.81280649981E+01  0.56383983458E+01  0.22816259325E+02  0.00000000000E+00 0.  1.
</event>
<event>
 7    1  0.2384639E-009  0.1180400E+03  0.7561462E-02  0.1246366E+00
         -1   -1    0    0    0  501 -0.00000000000E+00  0.00000000000E+00  0.76466016646E+03  0.76466016646E+03  0.00000000000E+00 0.  1.
          1   -1    0    0  501    0  0.00000000000E+00 -0.00000000000E+00 -0.23549435706E+02  0.23549435706E+02  0.00000000000E+00 0. -1.
         25    2    1    2    0    0 -0.24077226035E+02  0.60434261268E+02  0.28477867670E+03  0.31777243418E+03  0.12509361483E+03 0.  0.
          5    1    3    3  502    0 -0.35962731305E+02 -0.31244561003E+02  0.83151800032E+02  0.95923067527E+02  0.41800000000E+01 0.  1.
         -5    1    3    3    0  502  0.11885505270E+02  0.91678822271E+02  0.20162687667E+03  0.22184936665E+03  0.41800000000E+01 0.  1.
        -11    1    1    2    0    0 -0.19452306542E+02  0.20553056968E+01  0.21829844104E+02  0.29311407420E+02  0.00000000000E+00 0. -1.
         11    1    1    2    0    0  0.43529532576E+02 -0.62489566964E+02  0.43450220994E+03  0.44112576056E+03  0.00000000000E+00 0.  1.
</event>
<event>
 7    1  0.2384639E-009  0.1077275E+03  0.7561462E-02  0.1264837E+00
         -1   -1    0    0    0  501 -0.00000000000E+00  0.00000000000E+00  0.68988139420E+02  0.68988139420E+02  0.00000000000E+00 0.  1.
          1   -1    0    0  501    0  0.00000000000E+00 -0.00000000000E+00 -0.22090243869E+03  0.22090243869E+03  0.00000000000E+00 0. -1.
         25    2    1    2    0    0 -0.16839884667E+02  0.45690309826E+02 -0.12684393406E+03  0.18467844276E+03  0.12508220292E+03 0.  0.
          5    1    3    3  502    0 -0.45744792535E+02 -0.25403815027E+02 -0.28076050460E+02  0.59528790274E+02  0.41800000000E+01 0. -1.
         -5    1    3    3    0  502  0.28904907869E+02  0.71094124853E+02 -0.98767883599E+02  0.12514965249E+03  0.41800000000E+01 0. -1.
        -11    1    1    2    0    0  0.13854944050E+02  0.17792540847E+02 -0.34242168856E+02  0.41000733072E+02  0.00000000000E+00 0. -1.
         11    1    1    2    0    0  0.29849406168E+01 -0.63482850673E+02  0.91718036461E+01  0.64211402276E+02  0.00000000000E+00 0.  1.
</event>
<event>
 7    1  0.2602367E-009  0.2231159E+03  0.7561462E-02  0.1131581E+00
          1   -1    0    0  501    0  0.00000000000E+00  0.00000000000E+00  0.20847828933E+03  0.20847828933E+03  0.00000000000E+00 0. -1.
         -1   -1    0    0    0  501 -0.00000000000E+00 -0.00000000000E+00 -0.28311997166E+03  0.28311997166E+03  0.00000000000E+00 0.  1.
         25    2    1    2    0    0  0.27494210722E+02  0.20849818741E+03 -0.92490706084E+02  0.26159056216E+03  0.12509063003E+03 0.  0.
          5    1    3    3  502    0  0.45363346900E+02  0.16491750334E+03 -0.16233769853E+02  0.17186222340E+03  0.41800000000E+01 0.  1.
         -5    1    3    3    0  502 -0.17869136178E+02  0.43580684072E+02 -0.76256936232E+02  0.89728338753E+02  0.41800000000E+01 0.  1.
        -11    1    1    2    0    0  0.27288651410E+02 -0.12529385916E+03 -0.28381041039E+01  0.12826252950E+03  0.00000000000E+00 0.  1.
         11    1    1    2    0    0 -0.54782862132E+02 -0.83204328247E+02  0.20687127865E+02  0.10174516933E+03  0.00000000000E+00 0. -1.
</event>
<event>
 7    1  0.2384639E-009  0.1296588E+03  0.7561462E-02  0.1227963E+00
          1   -1    0    0  501    0  0.00000000000E+00  0.00000000000E+00  0.14582556128E+03  0.14582556128E+03  0.00000000000E+00 0. -1.
         -1   -1    0    0    0  501 -0.00000000000E+00 -0.00000000000E+00 -0.14504311969E+03  0.14504311969E+03  0.00000000000E+00 0.  1.
         25    2    1    2    0    0  0.65413570710E+02 -0.65993960291E+02  0.25004584834E+02  0.15781390893E+03  0.12508342241E+03 0.  0.
          5    1    3    3  502    0  0.20779953791E+02 -0.79865128213E+02  0.57559124901E+02  0.10070139246E+03  0.41800000000E+01 0.  1.
         -5    1    3    3    0  502  0.44633616919E+02  0.13871167922E+02 -0.32554540067E+02  0.57112516472E+02  0.41800000000E+01 0.  1.
        -11    1    1    2    0    0  0.20156171561E+02  0.31721820787E+02 -0.14814016103E+02  0.40398022713E+02  0.00000000000E+00 0.  1.
         11    1    1    2    0    0 -0.85569742271E+02  0.34272139504E+02 -0.94081271387E+01  0.92656749321E+02  0.00000000000E+00 0. -1.
</event>
<event>
 7    1  0.2384639E-009  0.9466778E+02  0.7561462E-02  0.1291926E+00
          2   -1    0    0  501    0  0.00000000000E+00  0.00000000000E+00  0.10345412232E+03  0.10345412232E+03  0.00000000000E+00 0. -1.
         -2   -1    0    0    0  501 -0.00000000000E+00 -0.00000000000E+00 -0.11756788655E+03  0.11756788655E+03  0.00000000000E+00 0.  1.
         25    2    1    2    0    0  0.15872486438E+02  0.16566790305E+02 -0.16790799889E+02  0.12827955931E+03  0.12508924818E+03 0.  0.
          5    1    3    3  502    0 -0.94291736730E+01  0.62828855715E+02 -0.34604529594E+02  0.72465994060E+02  0.41800000000E+01 0.  1.
         -5    1    3    3    0  502  0.25301660111E+02 -0.46262065410E+02  0.17813729706E+02  0.55813565254E+02  0.41800000000E+01 0.  1.
        -11    1    1    2    0    0 -0.82752970373E+01  0.27158292807E+02 -0.27139746729E+02  0.39276192048E+02  0.00000000000E+00 0.  1.
         11    1    1    2    0    0 -0.75971894004E+01 -0.43725083112E+02  0.29816782382E+02  0.53466257505E+02  0.00000000000E+00 0. -1.
</event>
<event>
 7    1  0.2384639E-009  0.1211626E+03  0.7561462E-02  0.1241191E+00
         -1   -1    0    0    0  501 -0.00000000000E+00  0.00000000000E+00  0.12653859043E+03  0.12653859043E+03  0.00000000000E+00 0.  1.
          1   -1    0    0  501    0  0.00000000000E+00 -0.00000000000E+00 -0.26769374451E+03  0.26769374451E+03  0.00000000000E+00 0. -1.
         25    2    1    2    0    0 -0.62567471161E+02 -0.81615489511E+02 -0.18794430737E+03  0.24808528848E+03  0.12508985216E+03 0.  0.
          5    1    3    3  502    0 -0.86537279687E+01  0.10217807574E+01 -0.13629447918E+03  0.13663670260E+03  0.41800000000E+01 0.  1.
         -5    1    3    3    0  502 -0.53913743192E+02 -0.82637270269E+02 -0.51649828193E+02  0.11144858588E+03  0.41800000000E+01 0.  1.
        -11    1    1    2    0    0  0.35281584372E+02  0.96552016897E+02  0.51007751308E+02  0.11475570947E+03  0.00000000000E+00 0. -1.
         11    1    1    2    0    0  0.27285886789E+02 -0.14936527385E+02 -0.42185980172E+01  0.31391336981E+02  0.00000000000E+00 0.  1.
</event>
<event>
 7    1  0.2384639E-009  0.1218106E+03  0.7561462E-02  0.1240140E+00
          1   -1    0    0  501    0  0.00000000000E+00  0.00000000000E+00  0.81595049380E+03  0.81595049380E+03  0.00000000000E+00 0. -1.
         -1   -1    0    0    0  501 -0.00000000000E+00 -0.00000000000E+00 -0.22875827195E+02  0.22875827195E+02  0.00000000000E+00 0.  1.
         25    2    1    2    0    0  0.65489118965E+01  0.80928508304E+02  0.45601077461E+03  0.47977682537E+03  0.12509062277E+03 0.  0.
          5    1    3    3  502    0 -0.37895879972E+02  0.16454139472E+02  0.44518199983E+02  0.60878394808E+02  0.41800000000E+01 0. -1.
         -5    1    3    3    0  502  0.44444791869E+02  0.64474368832E+02  0.41149257462E+03  0.41889843057E+03  0.41800000000E+01 0. -1.
        -11    1    1    2    0    0  0.43039660678E+02 -0.29150677973E+02  0.13745834385E+03  0.14695907836E+03  0.00000000000E+00 0. -1.
         11    1    1    2    0    0 -0.49588572574E+02 -0.51777830330E+02  0.19960554815E+03  0.21209041726E+03  0.00000000000E+00 0.  1.
</event>
<event>
 7    1  0.2384639E-009  0.1136805E+03  0.7561462E-02  0.1253902E+00
          1   -1    0    0  501    0  0.00000000000E+00  0.00000000000E+00  0.51961799392E+02  0.51961799392E+02  0.00000000000E+00 0. -1.
         -1   -1    0    0    0  501 -0.00000000000E+00 -0.00000000000E+00 -0.26825499233E+03  0.26825499233E+03  0.00000000000E+00 0.  1.
         25    2    1    2    0    0 -0.36382325087E+02  0.12174517468E+02 -0.88494814398E+02  0.15795839341E+03  0.12509048492E+03 0.  0.
          5    1    3    3  502    0 -0.65977898369E+02 -0.32577444197E+02 -0.68287754421E+02  0.10047418946E+03  0.41800000000E+01 0. -1.
         -5    1    3    3    0  502  0.29595573282E+02  0.44751961666E+02 -0.20207059978E+02  0.57484203950E+02  0.41800000000E+01 0. -1.
        -11    1    1    2    0    0 -0.46350954363E+01  0.36157541817E+02 -0.42685507498E+02  0.56132918064E+02  0.00000000000E+00 0.  1.
         11    1    1    2    0    0  0.41017420523E+02 -0.48332059286E+02 -0.85112871042E+02  0.10612548025E+03  0.00000000000E+00 0. -1.
</event>
<event>
 7    1  0.2384639E-009  0.1312702E+03  0.7561462E-02  0.1225583E+00
          1   -1    0    0  501    0  0.00000000000E+00  0.00000000000E+00  0.52194673953E+02  0.52194673953E+02  0.00000000000E+00 0. -1.
         -1   -1    0    0    0  501 -0.00000000000E+00 -0.00000000000E+00 -0.36409410688E+03  0.36409410688E+03  0.00000000000E+00 0.  1.
         25    2    1    2    0    0  0.65468843877E+02  0.12630285063E+02 -0.11677110709E+03  0.18365438487E+03  0.12509095895E+03 0.  0.
          5    1    3    3  502    0  0.10187229527E+03 -0.23107420292E+01 -0.79728835624E+02  0.12945062264E+03  0.41800000000E+01 0.  1.
         -5    1    3    3    0  502 -0.36403451393E+02  0.14941027092E+02 -0.37042271470E+02  0.54203762227E+02  0.41800000000E+01 0.  1.
        -11    1    1    2    0    0 -0.71294019047E+02 -0.47476036325E+02 -0.10298589520E+03  0.13395113209E+03  0.00000000000E+00 0. -1.
         11    1    1    2    0    0  0.58251751701E+01  0.34845751262E+02 -0.92142430630E+02  0.98683263876E+02  0.00000000000E+00 0.  1.
</event>
<event>
 7    1  0.2384639E-009  0.1139439E+03  0.7561462E-02  0.1253436E+00
          2   -1    0    0  501    0  0.00000000000E+00  0.00000000000E+00  0.43504665543E+03  0.43504665543E+03  0.00000000000E+00 0. -1.
         -2   -1    0    0    0  501 -0.00000000000E+00 -0.00000000000E+00 -0.36251099768E+02  0.36251099768E+02  0.00000000000E+00 0.  1.
         25    2    1    2    0    0  0.45927331298E+02  0.14694565168E+02  0.14866032672E+03  0.20018107869E+03  0.12508925421E+03 0.  0.
          5    1    3    3  502    0  0.62873636943E+02  0.55297612338E+02  0.12367476077E+03  0.14941164280E+03  0.41800000000E+01 0. -1.
         -5    1    3    3    0  502 -0.16946305645E+02 -0.40603047170E+02  0.24985565957E+02  0.50769435891E+02  0.41800000000E+01 0. -1.
        -11    1    1    2    0    0 -0.29649023130E+02  0.35985552816E+02  0.77334482069E+02  0.90303082455E+02  0.00000000000E+00 0. -1.
         11    1    1    2    0    0 -0.16278308168E+02 -0.50680117984E+02  0.17280074687E+03  0.18081359405E+03  0.00000000000E+00 0.  1.
</event>
<event>
 7    1  0.2384639E-009  0.9422099E+02  0.7561462E-02  0.1292940E+00
         -2   -1    0    0    0  501 -0.00000000000E+00  0.00000000000E+00  0.69052274822E+03  0.69052274822E+03  0.00000000000E+00 0.  1.
          2   -1    0    0  501    0  0.00000000000E+00 -0.00000000000E+00 -0.17042325654E+02  0.17042325654E+02  0.00000000000E+00 0. -1.
         25    2    1    2    0    0 -0.50598359306E+01  0.13589913770E+01  0.45357327564E+03  0.47053778992E+03  0.12509854744E+03 0.  0.
          5    1    3    3  502    0 -0.63377106205E+02  0.12738780662E+02  0.20859351755E+03  0.21842083711E+03  0.41800000000E+01 0. -1.
         -5    1    3    3    0  502  0.58317270275E+02 -0.11379789285E+02  0.24497975809E+03  0.25211695281E+03  0.41800000000E+01 0. -1.
        -11    1    1    2    0    0 -0.75770262081E+01 -0.30980621082E+02  0.28012066833E+02  0.42448628918E+02  0.00000000000E+00 0. -1.
         11    1    1    2    0    0  0.12636862139E+02  0.29621629705E+02  0.19189508010E+03  0.19457865504E+03  0.00000000000E+00 0.  1.
</event>
<event>
 7    1  0.2384639E-009  0.6393435E+02  0.7561462E-02  0.1382025E+00
          1   -1    0    0  501    0  0.00000000000E+00  0.00000000000E+00  0.28630448659E+03  0.28630448659E+03  0.00000000000E+00 0. -1.
         -1   -1    0    0    0  501 -0.00000000000E+00 -0.00000000000E+00 -0.50819314035E+02  0.50819314035E+02  0.00000000000E+00 0.  1.
         25    2    1    2    0    0  0.61273765582E+01  0.19101443384E+02  0.20102627945E+03  0.23761590872E+03  0.12508934872E+03 0.  0.
          5    1    3    3  502    0 -0.10101748295E+02  0.36394586277E+02  0.29874803996E+01  0.38118350804E+02  0.41800000000E+01 0.  1.
         -5    1    3    3    0  502  0.16229124853E+02 -0.17293142893E+02  0.19803879905E+03  0.19949755792E+03  0.41800000000E+01 0.  1.
        -11    1    1    2    0    0  0.23707506944E+02 -0.25977541404E+02 -0.17436164087E+02  0.39254278250E+02  0.00000000000E+00 0.  1.
         11    1    1    2    0    0 -0.29834883502E+02  0.68760980199E+01  0.51895057190E+02  0.60253613654E+02  0.00000000000E+00 0. -1.
</event>
<event>
 7    1  0.2384639E-009  0.1524701E+03  0.7561462E-02  0.1197470E+00
         -2   -1    0    0    0  501 -0.00000000000E+00  0.00000000000E+00  0.33687665488E+02  0.33687665488E+02  0.00000000000E+00 0. -1.
          2   -1    0    0  501    0  0.00000000000E+00 -0.00000000000E+00 -0.15602928332E+04  0.15602928332E+04  0.00000000000E+00 0.  1.
         25    2    1    2    0    0  0.10909136898E+03 -0.97246669352E+02 -0.12695685979E+04  0.12840597458E+04  0.12508862641E+03 0.  0.
          5    1    3    3  502    0  0.26365273995E+02  0.30043464405E+01 -0.43585236723E+02  0.51198623327E+02  0.41800000000E+01 0. -1.
         -5    1    3    3    0  502  0.82726094983E+02 -0.10025101579E+03 -0.12259833612E+04  0.12328611225E+04  0.41800000000E+01 0. -1.
        -11    1    1    2    0    0 -0.70635841388E+02  0.77300145870E+02 -0.24263984998E+03  0.26427037564E+03  0.00000000000E+00 0.  1.
         11    1    1    2    0    0 -0.38455527590E+02  0.19946523482E+02 -0.14396719791E+02  0.45650377238E+02  0.00000000000E+00 0. -1.
</event>
<event>
 7    1  0.2384639E-009  0.1697034E+03  0.7561462E-02  0.1178158E+00
          2   -1    0    0  501    0  0.00000000000E+00  0.00000000000E+00  0.18944644221E+04  0.18944644221E+04  0.00000000000E+00 0. -1.
         -2   -1    0    0    0  501 -0.00000000000E+00 -0.00000000000E+00 -0.18126824143E+02  0.18126824143E+02  0.00000000000E+00 0.  1.
         25    2    1    2    0    0 -0.53750315617E+02 -0.13952581198E+03  0.10627245209E+04  0.10804567205E+04  0.12508704482E+03 0.  0.
          5    1    3    3  502    0  0.97458238044E+01 -0.74939078481E+02  0.21569540432E+03  0.22858877139E+03  0.41800000000E+01 0. -1.
         -5    1    3    3    0  502 -0.63496139422E+02 -0.64586733502E+02  0.84702911661E+03  0.85186794907E+03  0.41800000000E+01 0. -1.
        -11    1    1    2    0    0  0.50769712951E+02  0.21738117957E+02  0.21081432162E+03  0.21792840046E+03  0.00000000000E+00 0.  1.
         11    1    1    2    0    0  0.29806026658E+01  0.11778769403E+03  0.60279875536E+03  0.61420612527E+03  0.00000000000E+00 0. -1.
</event>
<event>
 7    1  0.2384639E-009  0.1394107E+03  0.7561462E-02  0.1214124E+00
         -1   -1    0    0    0  501 -0.00000000000E+00  0.00000000000E+00  0.88100445928E+02  0.88100445928E+02  0.00000000000E+00 0.  1.
          1   -1    0    0  501    0  0.00000000000E+00 -0.00000000000E+00 -0.22705604258E+03  0.22705604258E+03  0.00000000000E+00 0. -1.
         25    2    1    2    0    0  0.77696450403E+02  0.46145838984E+02 -0.85681918499E+02  0.17651035266E+03  0.12509331148E+03 0.  0.
          5    1    3    3  502    0 -0.34204747761E+02  0.17751077392E+02 -0.19935514152E+02  0.43588560913E+02  0.41800000000E+01 0.  1.
         -5    1    3    3    0  502  0.11190119816E+03  0.28394761592E+02 -0.65746404347E+02  0.13292179175E+03  0.41800000000E+01 0.  1.
        -11    1    1    2    0    0 -0.19185503010E+02  0.25577494317E+02 -0.28486297742E+02  0.42822434545E+02  0.00000000000E+00 0. -1.
         11    1    1    2    0    0 -0.58510947393E+02 -0.71723333301E+02 -0.24787380415E+02  0.95823701309E+02  0.00000000000E+00 0.  1.
</event>
<event>
 7    1  0.2384639E-009  0.1688725E+03  0.7561462E-02  0.1179029E+00
         -2   -1    0    0    0  501 -0.00000000000E+00  0.00000000000E+00  0.50220247383E+02  0.50220247383E+02  0.00000000000E+00 0.  1.
          2   -1    0    0  501    0  0.00000000000E+00 -0.00000000000E+00 -0.86882250668E+03  0.86882250668E+03  0.00000000000E+00 0. -1.
         25    2    1    2    0    0  0.13915000632E+03 -0.30960400906E+02 -0.66310696948E+03  0.68969532294E+03  0.12509002689E+03 0.  0.
          5    1    3    3  502    0  0.34621193273E+02  0.35198485555E+02 -0.84140510500E+02  0.97645574995E+02  0.41800000000E+01 0. -1.
         -5    1    3    3    0  502  0.10452881305E+03 -0.66158886461E+02 -0.57896645898E+03  0.59204974794E+03  0.41800000000E+01 0. -1.
        -11    1    1    2    0    0 -0.12668735527E+03 -0.45671660105E+01 -0.96322907291E+02  0.15921258575E+03  0.00000000000E+00 0.  1.
         11    1    1    2    0    0 -0.12462651049E+02  0.35527566917E+02 -0.59172382522E+02  0.70134845373E+02  0.00000000000E+00 0. -1.
</event>
<event>
 7    1  0.2384639E-009  0.8868099E+02  0.7561462E-02  0.1306078E+00
         -3   -1    0    0    0  501 -0.00000000000E+00  0.00000000000E+00  0.11320985624E+03  0.11320985624E+03  0.00000000000E+00 0.  1.
          3   -1    0    0  501    0  0.00000000000E+00 -0.00000000000E+00 -0.13743786807E+03  0.13743786807E+03  0.00000000000E+00 0. -1.
         25    2    1    2    0    0 -0.22592109288E+02  0.41253721970E+02  0.19664152132E+02  0.13507790764E+03  0.12508832589E+03 0.  0.
          5    1    3    3  502    0 -0.25167152842E+02  0.63841361255E+02  0.58242803679E+02  0.90104392620E+02  0.41800000000E+01 0. -1.
         -5    1    3    3    0  502  0.25750435547E+01 -0.22587639285E+02 -0.38578651547E+02  0.44973515017E+02  0.41800000000E+01 0. -1.
        -11    1    1    2    0    0  0.12068407007E+02  0.19992722586E+02  0.16751259769E+02  0.28739521707E+02  0.00000000000E+00 0. -1.
         11    1    1    2    0    0  0.10523702281E+02 -0.61246444556E+02 -0.60643423731E+02  0.86830294957E+02  0.00000000000E+00 0.  1.
</event>
<event>
 7    1  0.2384639E-009  0.9579742E+02  0.7561462E-02  0.1289390E+00
          2   -1    0    0  501    0  0.00000000000E+00  0.00000000000E+00  0.70338365736E+03  0.70338365736E+03  0.00000000000E+00 0. -1.
         -2   -1    0    0    0  501 -0.00000000000E+00 -0.00000000000E+00 -0.21285819896E+02  0.21285819896E+02  0.00000000000E+00 0.  1.
         25    2    1    2    0    0  0.41440965034E+02  0.36184626579E+02  0.42712012552E+03  0.44844810851E+03  0.12508966230E+03 0.  0.
          5    1    3    3  502    0  0.42758232631E+02  0.53498245578E+02  0.10254893677E+03  0.12338592128E+03  0.41800000000E+01 0.  1.
         -5    1    3    3    0  502 -0.13172675967E+01 -0.17313619000E+02  0.32457118876E+03  0.32506218723E+03  0.41800000000E+01 0.  1.
        -11    1    1    2    0    0 -0.37450447563E+02 -0.65545953370E+02  0.16401147347E+03  0.18055074482E+03  0.00000000000E+00 0.  1.
         11    1    1    2    0    0 -0.39905174711E+01  0.29361326791E+02  0.90966238475E+02  0.95670623929E+02  0.00000000000E+00 0. -1.
</event>
<event>
 7    1  0.2384639E-009  0.1121390E+03  0.7561462E-02  0.1256659E+00
          2   -1    0    0  501    0  0.00000000000E+00  0.00000000000E+00  0.46078727137E+03  0.46078727137E+03  0.00000000000E+00 0. -1.
         -2   -1    0    0    0  501 -0.00000000000E+00 -0.00000000000E+00 -0.35186627214E+02  0.35186627214E+02  0.00000000000E+00 0.  1.
         25    2    1    2    0    0  0.19729146659E+02  0.45034588852E+02  0.33674476663E+03  0.36257680617E+03  0.12509016387E+03 0.  0.
          5    1    3    3  502    0  0.44161118393E+02  0.75636152590E+02  0.28072276096E+03  0.29409823678E+03  0.41800000000E+01 0.  1.
         -5    1    3    3    0  502 -0.24431971734E+02 -0.30601563739E+02  0.56022005675E+02  0.68478569392E+02  0.41800000000E+01 0.  1.
        -11    1    1    2    0    0  0.20195332657E+02 -0.52808795983E+02  0.37325499414E+02  0.67748160867E+02  0.00000000000E+00 0.  1.
         11    1    1    2    0    0 -0.39924479316E+02  0.77742071313E+01  0.51530378107E+02  0.65648931545E+02  0.00000000000E+00 0. -1.
</event>
<event>
 7    1  0.2384639E-009  0.1360307E+03  0.7561462E-02  0.1218772E+00
         -3   -1    0    0    0  501 -0.00000000000E+00  0.00000000000E+00  0.47632142642E+03  0.47632142642E+03  0.00000000000E+00 0.  1.
          3   -1    0    0  501    0  0.00000000000E+00 -0.00000000000E+00 -0.57913105867E+02  0.57913105867E+02  0.00000000000E+00 0. -1.
         25    2    1    2    0    0  0.75906625053E+02  0.94603848802E+02  0.17116473408E+03  0.24424679238E+03  0.12508966967E+03 0.  0.
          5    1    3    3  502    0  0.54675718810E+02  0.92827312125E+01  0.14038178582E+03  0.15099709109E+03  0.41800000000E+01 0. -1.
         -5    1    3    3    0  502  0.21230906243E+02  0.85321117589E+02  0.30782948259E+02  0.93249701287E+02  0.41800000000E+01 0. -1.
        -11    1    1    2    0    0 -0.36535649749E+02 -0.77137093568E+02  0.22676435025E+03  0.24229538883E+03  0.00000000000E+00 0.  1.
         11    1    1    2    0    0 -0.39370975304E+02 -0.17466755234E+02  0.20479236218E+02  0.47692351073E+02  0.00000000000E+00 0. -1.
</event>
<event>
 7    1  0.2384639E-009  0.7344388E+02  0.7561462E-02  0.1348759E+00
         -1   -1    0    0    0  501 -0.00000000000E+00  0.00000000000E+00  0.78572185862E+02  0.78572185862E+02  0.00000000000E+00 0.  1.
          1   -1    0    0  501    0  0.00000000000E+00 -0.00000000000E+00 -0.20163399788E+03  0.20163399788E+03  0.00000000000E+00 0. -1.
         25    2    1    2    0    0  0.34344261873E+02  0.49966576769E+02 -0.43992502723E+02  0.14580647229E+03  0.12509196596E+03 0.  0.
          5    1    3    3  502    0  0.23497708753E+02  0.55807346750E+02  0.32064102346E+02  0.68645329974E+02  0.41800000000E+01 0. -1.
         -5    1    3    3    0  502  0.10846553120E+02 -0.58407699815E+01 -0.76056605070E+02  0.77161142315E+02  0.41800000000E+01 0. -1.
        -11    1    1    2    0    0  0.51001216840E+01 -0.27127445323E+02 -0.84127861630E+02  0.88540423724E+02  0.00000000000E+00 0.  1.
         11    1    1    2    0    0 -0.39444383557E+02 -0.22839131446E+02  0.50585523346E+01  0.45859287730E+02  0.00000000000E+00 0. -1.
</event>
<event>
 7    1  0.2384639E-009  0.1296353E+03  0.7561462E-02  0.1227998E+00
         -1   -1    0    0    0  501 -0.00000000000E+00  0.00000000000E+00  0.71388764421E+03  0.71388764421E+03  0.00000000000E+00 0.  1.
          1   -1    0    0  501    0  0.00000000000E+00 -0.00000000000E+00 -0.30368555836E+02  0.30368555836E+02  0.00000000000E+00 0. -1.
         25    2    1    2    0    0  0.64543506759E+02 -0.44351378159E+02  0.21513282840E+03  0.26088638474E+03  0.12508662149E+03 0.  0.
          5    1    3    3  502    0  0.86098146117E+02 -0.67343785408E+02  0.19399195104E+03  0.22270704000E+03  0.41800000000E+01 0.  1.
         -5    1    3    3    0  502 -0.21554639358E+02  0.22992407249E+02  0.21140877369E+02  0.38179344742E+02  0.41800000000E+01 0.  1.
        -11    1    1    2    0    0  0.19323115491E+02 -0.60463839925E+01  0.11101251811E+03  0.11284378905E+03  0.00000000000E+00 0. -1.
         11    1    1    2    0    0 -0.83866622249E+02  0.50397762151E+02  0.35737374186E+03  0.37052602625E+03  0.00000000000E+00 0.  1.
</event>
<event>
 7    1  0.2384639E-009  0.1642902E+03  0.7561462E-02  0.1183937E+00
         -2   -1    0    0    0  501 -0.00000000000E+00  0.00000000000E+00  0.67509800189E+02  0.67509800189E+02  0.00000000000E+00 0.  1.
          2   -1    0    0  501    0  0.00000000000E+00 -0.00000000000E+00 -0.61947667031E+03  0.61947667031E+03  0.00000000000E+00 0. -1.
         25    2    1    2    0    0 -0.16107126112E+03 -0.74952455680E+01 -0.18523204741E+03  0.27560597022E+03  0.12509040559E+03 0.  0.
          5    1    3    3  502    0 -0.10600420857E+03 -0.24933893252E+02 -0.18835442360E+03  0.21760848457E+03  0.41800000000E+01 0. -1.
         -5    1    3    3    0  502 -0.55067052550E+02  0.17438647684E+02  0.31223761849E+01  0.57997485657E+02  0.41800000000E+01 0. -1.
        -11    1    1    2    0    0  0.10657417551E+03 -0.72157180616E+00 -0.12894968674E+03  0.16729195217E+03  0.00000000000E+00 0.  1.
         11    1    1    2    0    0  0.54497085608E+02  0.82168173741E+01 -0.23778513596E+03  0.24408854810E+03  0.00000000000E+00 0. -1.
</event>
<event>
 7    1  0.2384639E-009  0.1004112E+03  0.7561462E-02  0.1279434E+00
         -3   -1    0    0    0  501 -0.00000000000E+00  0.00000000000E+00  0.32825435473E+02  0.32825435473E+02  0.00000000000E+00 0.  1.
          3   -1    0    0  501    0  0.00000000000E+00 -0.00000000000E+00 -0.69643465740E+03  0.69643465740E+03  0.00000000000E+00 0. -1.
         25    2    1    2    0    0  0.15650643885E+02  0.78492022002E+02 -0.51740018637E+03  0.53829114276E+03  0.12509381020E+03 0.  0.
          5    1    3    3  502    0  0.32518511946E+02  0.52928956824E+02 -0.88100199844E+02  0.10787977430E+03  0.41800000000E+01 0.  1.
         -5    1    3    3    0  502 -0.16867868061E+02  0.25563065179E+02 -0.42929998652E+03  0.43041136847E+03  0.41800000000E+01 0.  1.
        -11    1    1    2    0    0  0.28790080972E+02 -0.25203426757E+02 -0.10137800354E+03  0.10835857642E+03  0.00000000000E+00 0. -1.
         11    1    1    2    0    0 -0.44440724857E+02 -0.53288595245E+02 -0.44831032019E+02  0.82610373689E+02  0.00000000000E+00 0.  1.
</event>
<event>
 7    1  0.2384639E-009  0.1421568E+03  0.7561462E-02  0.1210456E+00
          1   -1    0    0  501    0  0.00000000000E+00  0.00000000000E+00  0.91256977857E+03  0.91256977857E+03  0.00000000000E+00 0. -1.
         -1   -1    0    0    0  501 -0.00000000000E+00 -0.00000000000E+00 -0.25377904899E+02  0.25377904899E+02  0.00000000000E+00 0.  1.
         25    2    1    2    0    0 -0.73628601558E+02 -0.58532183940E+02  0.32525502030E+03  0.36095094832E+03  0.12509025279E+03 0.  0.
          5    1    3    3  502    0  0.29230215497E+02 -0.41645885928E+02  0.12809726158E+03  0.13789548990E+03  0.41800000000E+01 0. -1.
         -5    1    3    3    0  502 -0.10285881705E+03 -0.16886298012E+02  0.19715775872E+03  0.22305545842E+03  0.41800000000E+01 0. -1.
        -11    1    1    2    0    0 -0.19366675269E+02  0.21253437434E+02  0.17242720354E+03  0.17480822988E+03  0.00000000000E+00 0. -1.
         11    1    1    2    0    0  0.92995276827E+02  0.37278746507E+02  0.38950964983E+03  0.40218850526E+03  0.00000000000E+00 0.  1.
</event>
<event>
 7    1  0.2384639E-009  0.9310091E+02  0.7561462E-02  0.1295512E+00
          2   -1    0    0  501    0  0.00000000000E+00  0.00000000000E+00  0.80243714346E+03  0.80243714346E+03  0.00000000000E+00 0. -1.
         -2   -1    0    0    0  501 -0.00000000000E+00 -0.00000000000E+00 -0.21991135473E+02  0.21991135473E+02  0.00000000000E+00 0.  1.
         25    2    1    2    0    0  0.21220035426E+02 -0.48191164993E+02  0.59693677882E+03  0.61217123834E+03  0.12508968323E+03 0.  0.
          5    1    3    3  502    0 -0.47843121775E+02 -0.19942317798E+02  0.14381323526E+03  0.15292605853E+03  0.41800000000E+01 0. -1.
         -5    1    3    3    0  502  0.69063157201E+02 -0.28248847196E+02  0.45312354356E+03  0.45924517981E+03  0.41800000000E+01 0. -1.
        -11    1    1    2    0    0 -0.13325446065E+02  0.30893484303E+01 -0.76622687932E+01  0.15678710075E+02  0.00000000000E+00 0.  1.
         11    1    1    2    0    0 -0.78945893605E+01  0.45101816563E+02  0.19117149796E+03  0.19657833052E+03  0.00000000000E+00 0. -1.
</event>
<event>
 7    1  0.2384639E-009  0.1122224E+03  0.7561462E-02  0.1256509E+00
         -2   -1    0    0    0  501 -0.00000000000E+00  0.00000000000E+00  0.25557470062E+02  0.25557470062E+02  0.00000000000E+00 0.  1.
          2   -1    0    0  501    0  0.00000000000E+00 -0.00000000000E+00 -0.60026699363E+03  0.60026699363E+03  0.00000000000E+00 0. -1.
         25    2    1    2    0    0  0.56488943771E+01 -0.59833335161E+02 -0.30653867185E+03  0.33648930440E+03  0.12508859513E+03 0.  0.
          5    1    3    3  502    0  0.45107312722E+02 -0.68894994058E+02 -0.12023329266E+03  0.14578994111E+03  0.41800000000E+01 0.  1.
         -5    1    3    3    0  502 -0.39458418345E+02  0.90616588967E+01 -0.18630537920E+03  0.19069936329E+03  0.41800000000E+01 0.  1.
        -11    1    1    2    0    0  0.17009216779E+02  0.73087041664E+02 -0.14355673152E+03  0.16198630893E+03  0.00000000000E+00 0.  1.
         11    1    1    2    0    0 -0.22658111156E+02 -0.13253706504E+02 -0.12461412019E+03  0.12734885036E+03  0.00000000000E+00 0. -1.
</event>
<event>
 7    1  0.2384639E-009  0.8181649E+02  0.7561462E-02  0.1323974E+00
          1   -1    0    0  501    0  0.00000000000E+00  0.00000000000E+00  0.49360194878E+03  0.49360194878E+03  0.00000000000E+00 0. -1.
         -1   -1    0    0    0  501 -0.00000000000E+00 -0.00000000000E+00 -0.31491176615E+02  0.31491176615E+02  0.00000000000E+00 0.  1.
         25    2    1    2    0    0  0.24261381888E+02 -0.52204399970E+02  0.29994303107E+03  0.33004256527E+03  0.12509340101E+03 0.  0.
          5    1    3    3  502    0 -0.12704131881E+02 -0.38405154392E+02  0.16583474185E+02  0.43918502556E+02  0.41800000000E+01 0. -1.
         -5    1    3    3    0  502  0.36965513768E+02 -0.13799245578E+02  0.28335955689E+03  0.28612406272E+03  0.41800000000E+01 0. -1.
        -11    1    1    2    0    0  0.17152893695E+02  0.33933197256E+02  0.13918425615E+03  0.14428423614E+03  0.00000000000E+00 0. -1.
         11    1    1    2    0    0 -0.41414275583E+02  0.18271202714E+02  0.22983484944E+02  0.50766323984E+02  0.00000000000E+00 0.  1.
</event>
<event>
 7    1  0.2384639E-009  0.1236207E+03  0.7561462E-02  0.1237241E+00
          2   -1    0    0  501    0  0.00000000000E+00  0.00000000000E+00  0.67790871875E+03  0.67790871875E+03  0.00000000000E+00 0. -1.
         -2   -1    0    0    0  501 -0.00000000000E+00 -0.00000000000E+00 -0.36144148974E+02  0.36144148974E+02  0.00000000000E+00 0.  1.
         25    2    1    2    0    0 -0.45179065846E+02 -0.74749984811E+02  0.49660147086E+03  0.51950838756E+03  0.12508891102E+03 0.  0.
          5    1    3    3  502    0 -0.12353340453E+01  0.33881689657E+02  0.87425223619E+02  0.93862330405E+02  0.41800000000E+01 0. -1.
         -5    1    3    3    0  502 -0.43943731800E+02 -0.10863167447E+03  0.40917624724E+03  0.42564605715E+03  0.41800000000E+01 0. -1.
        -11    1    1    2    0    0  0.20342886107E+02  0.38571781032E+01 -0.93660250341E+01  0.22725168053E+02  0.00000000000E+00 0.  1.
         11    1    1    2    0    0  0.24836179739E+02  0.70892806708E+02  0.15452912395E+03  0.17181931211E+03  0.00000000000E+00 0. -1.
</event>
<event>
 7    1  0.2384639E-009  0.8250546E+02  0.7561462E-02  0.1322088E+00
          2   -1    0    0  501    0  0.00000000000E+00  0.00000000000E+00  0.56067772656E+03  0.56067772656E+03  0.00000000000E+00 0. -1.
         -2   -1    0    0    0  501 -0.00000000000E+00 -0.00000000000E+00 -0.22535927228E+02  0.22535927228E+02  0.00000000000E+00 0.  1.
         25    2    1    2    0    0  0.21422933530E+02 -0.66744118848E+01  0.31335590599E+03  0.33814552832E+03  0.12508790768E+03 0.  0.
          5    1    3    3  502    0 -0.12564342974E+02  0.44389539240E+02  0.51934084751E+02  0.69591058817E+02  0.41800000000E+01 0.  1.
         -5    1    3    3    0  502  0.33987276504E+02 -0.51063951125E+02  0.26142182124E+03  0.26855446950E+03  0.41800000000E+01 0.  1.
        -11    1    1    2    0    0 -0.37190369728E+02 -0.50845035002E+01  0.22206070843E+03  0.22521086564E+03  0.00000000000E+00 0. -1.
         11    1    1    2    0    0  0.15767436198E+02  0.11758915385E+02  0.27251849218E+01  0.19857259835E+02  0.00000000000E+00 0.  1.
</event>
<event>
 7    1  0.2384639E-009  0.7052614E+02  0.7561462E-02  0.1358313E+00
          3   -1    0    0  501    0  0.00000000000E+00  0.00000000000E+00  0.71945844860E+03  0.71945844860E+03  0.00000000000E+00 0. -1.
         -3   -1    0    0    0  501 -0.00000000000E+00 -0.00000000000E+00 -0.18133077297E+02  0.18133077297E+02  0.00000000000E+00 0.  1.
         25    2    1    2    0    0  0.13456116054E+02  0.33351192878E+02  0.34226395456E+03  0.36617795715E+03  0.12509321560E+03 0.  0.
          5    1    3    3  502    0  0.15688300242E+01 -0.50164629259E+01 -0.97588853467E+01  0.11846280899E+02  0.41800000000E+01 0.  1.
         -5    1    3    3    0  502  0.11887286029E+02  0.38367655804E+02  0.35202283991E+03  0.35433167625E+03  0.41800000000E+01 0.  1.
        -11    1    1    2    0    0 -0.16235546019E+02 -0.62549666886E+02  0.27090337877E+03  0.27850438850E+03  0.00000000000E+00 0. -1.
         11    1    1    2    0    0  0.27794299657E+01  0.29198474007E+02  0.88158037973E+02  0.92909180249E+02  0.00000000000E+00 0.  1.
</event>
<event>
 7    1  0.2384639E-009  0.1291452E+03  0.7561462E-02  0.1228730E+00
         -2   -1    0    0    0  501 -0.00000000000E+00  0.00000000000E+00  0.27148849232E+02  0.27148849232E+02  0.00000000000E+00 0.  1.
          2   -1    0    0  501    0  0.00000000000E+00 -0.00000000000E+00 -0.69192351953E+03  0.69192351953E+03  0.00000000000E+00 0. -1.
         25    2    1    2    0    0  0.72860980982E+02  0.33438888538E+02 -0.42618235300E+03  0.45133632303E+03  0.12508475790E+03 0.  0.
          5    1    3    3  502    0  0.77014475574E+02 -0.26096568241E+02 -0.17331979286E+03  0.19149277615E+03  0.41800000000E+01 0.  1.
         -5    1    3    3    0  502 -0.41534945921E+01  0.59535456779E+02 -0.25286256015E+03  0.25984354688E+03  0.41800000000E+01 0.  1.
        -11    1    1    2    0    0 -0.91204629550E+02 -0.17777580016E+02 -0.21393422896E+03  0.23324275149E+03  0.00000000000E+00 0. -1.
         11    1    1    2    0    0  0.18343648568E+02 -0.15661308522E+02 -0.24658088344E+02  0.34493294249E+02  0.00000000000E+00 0.  1.
</event>
<event>
 7    1  0.2384639E-009  0.1457733E+03  0.7561462E-02  0.1205765E+00
          3   -1    0    0  501    0  0.00000000000E+00  0.00000000000E+00  0.10314253341E+03  0.10314253341E+03  0.00000000000E+00 0. -1.
         -3   -1    0    0    0  501 -0.00000000000E+00 -0.00000000000E+00 -0.24951098812E+03  0.24951098812E+03  0.00000000000E+00 0.  1.
         25    2    1    2    0    0 -0.10126965944E+03 -0.54464648990E+02 -0.45227055934E+02  0.17582627828E+03  0.12508977430E+03 0.  0.
          5    1    3    3  502    0 -0.10214922342E+03 -0.73841309286E+01  0.10165063884E+02  0.10300383565E+03  0.41800000000E+01 0.  1.
         -5    1    3    3    0  502  0.87956398219E+00 -0.47080518061E+02 -0.55392119818E+02  0.72822442637E+02  0.41800000000E+01 0.  1.
        -11    1    1    2    0    0  0.11019031325E+03  0.27783950247E+02 -0.94798523185E+02  0.14798855707E+03  0.00000000000E+00 0.  1.
         11    1    1    2    0    0 -0.89206538125E+01  0.26680698742E+02 -0.63428755872E+01  0.28838686179E+02  0.00000000000E+00 0. -1.
</event>
<event>
 7    1  0.2384639E-009  0.9464809E+02  0.7561462E-02  0.1291971E+00
          2   -1    0    0  501    0  0.00000000000E+00  0.00000000000E+00  0.14553836007E+03  0.14553836007E+03  0.00000000000E+00 0. -1.
         -2   -1    0    0    0  501 -0.00000000000E+00 -0.00000000000E+00 -0.96369386729E+02  0.96369386729E+02  0.00000000000E+00 0.  1.
         25    2    1    2    0    0  0.29258052188E+02 -0.12698543198E+02  0.49926086570E+02  0.13841174419E+03  0.12509160720E+03 0.  0.
          5    1    3    3  502    0  0.54233332294E+02 -0.52745591350E+02  0.99493777580E+01  0.76418677406E+02  0.41800000000E+01 0.  1.
         -5    1    3    3    0  502 -0.24975280107E+02  0.40047048153E+02  0.39976708812E+02  0.61993066786E+02  0.41800000000E+01 0.  1.
        -11    1    1    2    0    0 -0.27378515062E+02 -0.19677285235E+02 -0.40177456189E+02  0.52450039342E+02  0.00000000000E+00 0.  1.
         11    1    1    2    0    0 -0.18795371260E+01  0.32375828433E+02  0.39420342964E+02  0.51045963267E+02  0.00000000000E+00 0. -1.
</event>
<event>
 7    1  0.2384639E-009  0.1128216E+03  0.7561462E-02  0.1255432E+00
          2   -1    0    0  501    0  0.00000000000E+00  0.00000000000E+00  0.12053497795E+03  0.12053497795E+03  0.00000000000E+00 0. -1.
         -2   -1    0    0    0  501 -0.00000000000E+00 -0.00000000000E+00 -0.12766475754E+03  0.12766475754E+03  0.00000000000E+00 0.  1.
         25    2    1    2    0    0 -0.58139817721E+02  0.14079830876E+02  0.26679808940E+01  0.13868430628E+03  0.12509092150E+03 0.  0.
          5    1    3    3  502    0  0.20463691522E+02  0.29811513306E+02 -0.34566558207E+02  0.50197692602E+02  0.41800000000E+01 0.  1.
         -5    1    3    3    0  502 -0.78603509242E+02 -0.15731682429E+02  0.37234539101E+02  0.88486613673E+02  0.41800000000E+01 0.  1.
        -11    1    1    2    0    0  0.66876697005E+02 -0.42500419413E+02 -0.92537926544E+01  0.79777258232E+02  0.00000000000E+00 0. -1.
         11    1    1    2    0    0 -0.87368792843E+01  0.28420588537E+02 -0.54396782429E+00  0.29738170983E+02  0.00000000000E+00 0.  1.
</event>
<event>
 7    1  0.2384639E-009  0.1155383E+03  0.7561462E-02  0.1250644E+00
          2   -1    0    0  501    0  0.00000000000E+00  0.00000000000E+00  0.97858559362E+03  0.97858559362E+03  0.00000000000E+00 0. -1.
         -2   -1    0    0    0  501 -0.00000000000E+00 -0.00000000000E+00 -0.17453134041E+02  0.17453134041E+02  0.00000000000E+00 0.  1.
         25    2    1    2    0    0  0.23098439809E+02 -0.53626406525E+02  0.57991243698E+03  0.59611696815E+03  0.12509067015E+03 0.  0.
          5    1    3    3  502    0  0.61125689751E+02 -0.36689979883E+02  0.17444515981E+03  0.18849692505E+03  0.41800000000E+01 0.  1.
         -5    1    3    3    0  502 -0.38027249942E+02 -0.16936426641E+02  0.40546727717E+03  0.40762004311E+03  0.41800000000E+01 0.  1.
        -11    1    1    2    0    0 -0.63304704493E+02  0.23271484975E+02  0.26098035313E+03  0.26955480397E+03  0.00000000000E+00 0. -1.
         11    1    1    2    0    0  0.40206264684E+02  0.30354921549E+02  0.12023966947E+03  0.13036695554E+03  0.00000000000E+00 0.  1.
</event>
<event>
 7    1  0.2384639E-009  0.1240190E+03  0.7561462E-02  0.1236610E+00
          1   -1    0    0  501    0  0.00000000000E+00  0.00000000000E+00  0.79114503568E+03  0.79114503568E+03  0.00000000000E+00 0. -1.
         -1   -1    0    0    0  501 -0.00000000000E+00 -0.00000000000E+00 -0.21089188209E+02  0.21089188209E+02  0.00000000000E+00 0.  1.
         25    2    1    2    0    0 -0.26357869902E+02  0.66969212717E+02  0.48236448957E+03  0.50349059779E+03  0.12509064114E+03 0.  0.
          5    1    3    3  502    0 -0.22261124508E+02 -0.32631606181E+02  0.85500236894E+02  0.94276944664E+02  0.41800000000E+01 0.  1.
         -5    1    3    3    0  502 -0.40967453946E+01  0.99600818899E+02  0.39686425268E+03  0.40921365312E+03  0.41800000000E+01 0.  1.
        -11    1    1    2    0    0 -0.18206383885E+02 -0.60905182703E+02  0.20477893158E+03  0.21441857316E+03  0.00000000000E+00 0. -1.
         11    1    1    2    0    0  0.44564253788E+02 -0.60640300146E+01  0.82912426316E+02  0.94325052946E+02  0.00000000000E+00 0.  1.
</event>
<event>
 7    1  0.2384639E-009  0.1735851E+03  0.7561462E-02  0.1174160E+00
          2   -1    0    0  501    0  0.00000000000E+00  0.00000000000E+00  0.60963853588E+03  0.60963853588E+03  0.00000000000E+00 0. -1.
         -2   -1    0    0    0  501 -0.00000000000E+00 -0.00000000000E+00 -0.82591832110E+02  0.82591832110E+02  0.00000000000E+00 0.  1.
         25    2    1    2    0    0  0.97738639555E+02  0.11708707945E+03  0.46170445499E+03  0.50207662611E+03  0.12509080258E+03 0.  0.
          5    1    3    3  502    0  0.94146065222E+02  0.58295508055E+02  0.15986311276E+03  0.19451358584E+03  0.41800000000E+01 0. -1.
         -5    1    3    3    0  502  0.35925743330E+01  0.58791571400E+02  0.30184134223E+03  0.30756304026E+03  0.41800000000E+01 0. -1.
        -11    1    1    2    0    0 -0.67616279139E+02 -0.12841331141E+03  0.44435884228E+02  0.15177775713E+03  0.00000000000E+00 0.  1.
         11    1    1    2    0    0 -0.30122360416E+02  0.11326231952E+02  0.20906364554E+02  0.38375984758E+02  0.00000000000E+00 0. -1.
</event>
<event>
 7    1  0.2384639E-009  0.3194399E+03  0.7561462E-02  0.1075907E+00
         -1   -1    0    0    0  501 -0.00000000000E+00  0.00000000000E+00  0.26643424497E+03  0.26643424497E+03  0.00000000000E+00 0.  1.
          1   -1    0    0  501    0  0.00000000000E+00 -0.00000000000E+00 -0.54790251518E+03  0.54790251518E+03  0.00000000000E+00 0. -1.
         25    2    1    2    0    0 -0.29284982303E+03  0.67760840663E+02  0.80644146428E+02  0.33541773620E+03  0.12509607918E+03 0.  0.
          5    1    3    3  502    0 -0.26783253838E+03  0.16638047709E+02  0.70065114565E+02  0.27737643361E+03  0.41800000000E+01 0. -1.
         -5    1    3    3    0  502 -0.25017284657E+02  0.51122792954E+02  0.10579031863E+02  0.58041302588E+02  0.41800000000E+01 0. -1.
        -11    1    1    2    0    0  0.22011637952E+03 -0.96417943255E+01 -0.25443519827E+03  0.33657310476E+03  0.00000000000E+00 0.  1.
         11    1    1    2    0    0  0.72733443512E+02 -0.58119046338E+02 -0.10767721837E+03  0.14234591918E+03  0.00000000000E+00 0. -1.
</event>
<event>
 7    1  0.2384639E-009  0.1350911E+03  0.7561462E-02  0.1220091E+00
          2   -1    0    0  501    0  0.00000000000E+00  0.00000000000E+00  0.78673586223E+03  0.78673586223E+03  0.00000000000E+00 0. -1.
         -2   -1    0    0    0  501 -0.00000000000E+00 -0.00000000000E+00 -0.37962074919E+02  0.37962074919E+02  0.00000000000E+00 0.  1.
         25    2    1    2    0    0  0.10107371193E+03  0.16031049152E+02  0.61052197325E+03  0.63155244889E+03  0.12509406897E+03 0.  0.
          5    1    3    3  502    0  0.59501205509E+02 -0.40071322595E+02  0.45989529037E+03  0.46547529994E+03  0.41800000000E+01 0.  1.
         -5    1    3    3    0  502  0.41572506421E+02  0.56102371747E+02  0.15062668289E+03  0.16607714895E+03  0.41800000000E+01 0.  1.
        -11    1    1    2    0    0 -0.23675929352E+02  0.30080111253E+02  0.71205363517E+02  0.80842850749E+02  0.00000000000E+00 0. -1.
         11    1    1    2    0    0 -0.77397782578E+02 -0.46111160406E+02  0.67046450540E+02  0.11230263751E+03  0.00000000000E+00 0.  1.
</event>
<event>
 7    1  0.2384639E-009  0.8483591E+02  0.7561462E-02  0.1315862E+00
          3   -1    0    0  501    0  0.00000000000E+00  0.00000000000E+00  0.61199001951E+02  0.61199001951E+02  0.00000000000E+00 0. -1.
         -3   -1    0    0    0  501 -0.00000000000E+00 -0.00000000000E+00 -0.20805550462E+03  0.20805550462E+03  0.00000000000E+00 0.  1.
         25    2    1    2    0    0 -0.17687552908E+00 -0.93195912317E-01 -0.12474938240E+03  0.17666095768E+03  0.12508655239E+03 0.  0.
          5    1    3    3  502    0  0.39092210403E+02  0.31269581267E+02 -0.98622716805E+01  0.51193011530E+02  0.41800000000E+01 0. -1.
         -5    1    3    3    0  502 -0.39269085932E+02 -0.31362777179E+02 -0.11488711072E+03  0.12546794616E+03  0.41800000000E+01 0. -1.
        -11    1    1    2    0    0  0.20846731607E+02 -0.27514443864E+02  0.18623330393E+02  0.39223198171E+02  0.00000000000E+00 0. -1.
         11    1    1    2    0    0 -0.20669856078E+02  0.27607639777E+02 -0.40730450655E+02  0.53370350710E+02  0.00000000000E+00 0.  1.
</event>
<event>
 7    1  0.2384639E-009  0.9432480E+02  0.7561462E-02  0.1292704E+00
         -1   -1    0    0    0  501 -0.00000000000E+00  0.00000000000E+00  0.27750185031E+03  0.27750185031E+03  0.00000000000E+00 0.  1.
          1   -1    0    0  501    0  0.00000000000E+00 -0.00000000000E+00 -0.47474594119E+02  0.47474594119E+02  0.00000000000E+00 0. -1.
         25    2    1    2    0    0  0.17878857797E+02 -0.25239450664E+02  0.88933922724E+02  0.15657385363E+03  0.12509774419E+03 0.  0.
          5    1    3    3  502    0 -0.41300126411E+02  0.14938486912E+02  0.69523891735E+02  0.82340164894E+02  0.41800000000E+01 0.  1.
         -5    1    3    3    0  502  0.59178984208E+02 -0.40177937576E+02  0.19410030989E+02  0.74233688732E+02  0.41800000000E+01 0.  1.
        -11    1    1    2    0    0 -0.37138458605E+02 -0.45415719494E+01  0.12304606109E+03  0.12860880270E+03  0.00000000000E+00 0.  1.
         11    1    1    2    0    0  0.19259600808E+02  0.29781022613E+02  0.18047272381E+02  0.39793788103E+02  0.00000000000E+00 0. -1.
</event>
<event>
 7    1  0.2384639E-009  0.8533833E+02  0.7561462E-02  0.1314550E+00
         -1   -1    0    0    0  501 -0.00000000000E+00  0.00000000000E+00  0.41500082268E+02  0.41500082268E+02  0.00000000000E+00 0.  1.
          1   -1    0    0  501    0  0.00000000000E+00 -0.00000000000E+00 -0.41888105377E+03  0.41888105377E+03  0.00000000000E+00 0. -1.
         25    2    1    2    0    0 -0.11467299406E+02 -0.21350954584E+02 -0.84954065144E+02  0.15313801667E+03  0.12508675688E+03 0.  0.
          5    1    3    3  502    0 -0.22327796023E+02 -0.48035420696E+02 -0.10507739240E+03  0.11774830322E+03  0.41800000000E+01 0.  1.
         -5    1    3    3    0  502  0.10860496617E+02  0.26684466111E+02  0.20123327255E+02  0.35389713452E+02  0.41800000000E+01 0.  1.
        -11    1    1    2    0    0  0.25445793672E+02  0.50250967731E+02 -0.13006150822E+03  0.14173441394E+03  0.00000000000E+00 0.  1.
         11    1    1    2    0    0 -0.13978494266E+02 -0.28900013146E+02 -0.16236539814E+03  0.16550870543E+03  0.00000000000E+00 0. -1.
</event>
<event>
 7    1  0.2384639E-009  0.2576880E+03  0.7561462E-02  0.1108540E+00
          1   -1    0    0  501    0  0.00000000000E+00  0.00000000000E+00  0.13060452023E+04  0.13060452023E+04  0.00000000000E+00 0. -1.
         -1   -1    0    0    0  501 -0.00000000000E+00 -0.00000000000E+00 -0.58807556579E+02  0.58807556579E+02  0.00000000000E+00 0.  1.
         25    2    1    2    0    0  0.18991554064E+03  0.16872449311E+03  0.67013787557E+03  0.72750796838E+03  0.12508878699E+03 0.  0.
          5    1    3    3  502    0  0.15433782923E+02  0.43360168081E+02  0.37960765865E+02  0.59806337260E+02  0.41800000000E+01 0.  1.
         -5    1    3    3    0  502  0.17448175771E+03  0.12536432503E+03  0.63217710970E+03  0.66770163112E+03  0.41800000000E+01 0.  1.
        -11    1    1    2    0    0 -0.87369383679E+02 -0.70395234479E+02  0.36661236141E+03  0.38339734190E+03  0.00000000000E+00 0.  1.
         11    1    1    2    0    0 -0.10254615696E+03 -0.98329258634E+02  0.21048740877E+03  0.25394744862E+03  0.00000000000E+00 0. -1.
</event>
<event>
 7    1  0.2842969E-009  0.1319679E+03  0.7561462E-02  0.1224565E+00
         -2   -1    0    0    0  501 -0.00000000000E+00  0.00000000000E+00  0.30320007512E+02  0.30320007512E+02  0.00000000000E+00 0.  1.
          2   -1    0    0  501    0  0.00000000000E+00 -0.00000000000E+00 -0.78447354728E+03  0.78447354728E+03  0.00000000000E+00 0. -1.
         25    2    1    2    0    0  0.73295050534E+02 -0.36699600376E+02 -0.21462415533E+03  0.26158984757E+03  0.12508675069E+03 0.  0.
          5    1    3    3  502    0 -0.32056381611E+02  0.20245296954E+01 -0.23918103049E+02  0.40264852862E+02  0.41800000000E+01 0. -1.
         -5    1    3    3    0  502  0.10535143215E+03 -0.38724130071E+02 -0.19070605228E+03  0.22132499471E+03  0.41800000000E+01 0. -1.
        -11    1    1    2    0    0 -0.74360341626E+02 -0.77486479103E+01 -0.39413651460E+03  0.40116467204E+03  0.00000000000E+00 0. -1.
         11    1    1    2    0    0  0.10652910919E+01  0.44448248286E+02 -0.14539286984E+03  0.15203903519E+03  0.00000000000E+00 0.  1.
</event>
<event>
 7    1  0.2384639E-009  0.1190795E+03  0.7561462E-02  0.1244623E+00
         -2   -1    0    0    0  501 -0.00000000000E+00  0.00000000000E+00  0.25356766128E+03  0.25356766128E+03  0.00000000000E+00 0. -1.
          2   -1    0    0  501    0  0.00000000000E+00 -0.00000000000E+00 -0.64482739308E+02  0.64482739308E+02  0.00000000000E+00 0.  1.
         25    2    1    2    0    0  0.44309811959E+02  0.24289414120E+02  0.11114216716E+03  0.17479656693E+03  0.12509166005E+03 0.  0.
          5    1    3    3  502    0  0.13354438262E+01  0.71096498143E+02  0.58728011326E+02  0.92319809211E+02  0.41800000000E+01 0.  1.
         -5    1    3    3    0  502  0.42974368132E+02 -0.46807084023E+02  0.52414155835E+02  0.82476757714E+02  0.41800000000E+01 0.  1.
        -11    1    1    2    0    0  0.22708499379E+02  0.13390516761E+02 -0.83739791322E+01  0.27660538854E+02  0.00000000000E+00 0.  1.
         11    1    1    2    0    0 -0.67018311338E+02 -0.37679930881E+02  0.86316733939E+02  0.11559329480E+03  0.00000000000E+00 0. -1.
</event>
<event>
 7    1  0.2384639E-009  0.1031770E+03  0.7561462E-02  0.1273754E+00
          2   -1    0    0  501    0  0.00000000000E+00  0.00000000000E+00  0.11488532525E+04  0.11488532525E+04  0.00000000000E+00 0. -1.
         -2   -1    0    0    0  501 -0.00000000000E+00 -0.00000000000E+00 -0.16394707396E+02  0.16394707396E+02  0.00000000000E+00 0.  1.
         25    2    1    2    0    0 -0.35400787333E+02 -0.74542044405E+02  0.72409204369E+03  0.73943702055E+03  0.12509231587E+03 0.  0.
          5    1    3    3  502    0 -0.46634782702E+02 -0.49953387445E+02  0.69891220504E+03  0.70225770671E+03  0.41800000000E+01 0.  1.
         -5    1    3    3    0  502  0.11233995369E+02 -0.24588656960E+02  0.25179838650E+02  0.37179313838E+02  0.41800000000E+01 0.  1.
        -11    1    1    2    0    0 -0.82011949272E+01 -0.11470213968E+02  0.14168952356E+02  0.19989612741E+02  0.00000000000E+00 0.  1.
         11    1    1    2    0    0  0.43601982261E+02  0.86012258373E+02  0.39419754903E+03  0.40582132658E+03  0.00000000000E+00 0. -1.
</event>
<event>
 7    1  0.2384639E-009  0.1153132E+03  0.7561462E-02  0.1251035E+00
         -1   -1    0    0    0  501 -0.00000000000E+00  0.00000000000E+00  0.30210649945E+03  0.30210649945E+03  0.00000000000E+00 0.  1.
          1   -1    0    0  501    0  0.00000000000E+00 -0.00000000000E+00 -0.68872732474E+02  0.68872732474E+02  0.00000000000E+00 0. -1.
         25    2    1    2    0    0 -0.74818386149E+02 -0.58660765951E+02  0.12993308471E+03  0.20388670139E+03  0.12509318180E+03 0.  0.
          5    1    3    3  502    0  0.62520623892E+01 -0.13525322035E+02 -0.21348150865E+02  0.26367376919E+02  0.41800000000E+01 0. -1.
         -5    1    3    3    0  502 -0.81070448539E+02 -0.45135443916E+02  0.15128123558E+03  0.17751932447E+03  0.41800000000E+01 0. -1.
        -11    1    1    2    0    0  0.45362406649E+02 -0.10964567131E+02  0.11304323811E+02  0.48018302825E+02  0.00000000000E+00 0. -1.
         11    1    1    2    0    0  0.29455979500E+02  0.69625333082E+02  0.91996358451E+02  0.11907422770E+03  0.00000000000E+00 0.  1.
</event>
<event>
 7    1  0.2384639E-009  0.1358997E+03  0.7561462E-02  0.1218955E+00
          1   -1    0    0  501    0  0.00000000000E+00  0.00000000000E+00  0.45253018715E+03  0.45253018715E+03  0.00000000000E+00 0. -1.
         -1   -1    0    0    0  501 -0.00000000000E+00 -0.00000000000E+00 -0.66633705000E+02  0.66633705000E+02  0.00000000000E+00 0.  1.
         25    2    1    2    0    0  0.10552008465E+03 -0.13331149519E+02  0.79517341863E+02  0.18243555560E+03  0.12509003349E+03 0.  0.
          5    1    3    3  502    0  0.24723860001E+02  0.50607568429E+02  0.82335411934E+01  0.57075904165E+02  0.41800000000E+01 0. -1.
         -5    1    3    3    0  502  0.80796224652E+02 -0.63938717948E+02  0.71283800669E+02  0.12535965144E+03  0.41800000000E+01 0. -1.
        -11    1    1    2    0    0 -0.55926154246E+02 -0.10940236139E+02  0.25505574722E+03  0.26134432783E+03  0.00000000000E+00 0. -1.
         11    1    1    2    0    0 -0.49593930407E+02  0.24271385658E+02  0.51323393060E+02  0.75384008717E+02  0.00000000000E+00 0.  1.
</event>
<event>
 7    1  0.2384639E-009  0.3350135E+03  0.7561462E-02  0.1068940E+00
         -1   -1    0    0    0  501 -0.00000000000E+00  0.00000000000E+00  0.50142139074E+02  0.50142139074E+02  0.00000000000E+00 0.  1.
          1   -1    0    0  501    0  0.00000000000E+00 -0.00000000000E+00 -0.25479872605E+04  0.25479872605E+04  0.00000000000E+00 0. -1.
         25    2    1    2    0    0  0.28351859782E+03 -0.16126817171E+03 -0.91288744640E+03  0.97744623567E+03  0.12508970909E+03 0.  0.
          5    1    3    3  502    0  0.28003183780E+03 -0.13196876872E+03 -0.88093073318E+03  0.93375051013E+03  0.41800000000E+01 0. -1.
         -5    1    3    3    0  502  0.34867600207E+01 -0.29299402994E+02 -0.31956713214E+02  0.43695725543E+02  0.41800000000E+01 0. -1.
        -11    1    1    2    0    0 -0.12827038667E+03  0.10406957776E+03 -0.96466602305E+03  0.97870542307E+03  0.00000000000E+00 0. -1.
         11    1    1    2    0    0 -0.15524821115E+03  0.57198593950E+02 -0.62029165194E+03  0.64197774079E+03  0.00000000000E+00 0.  1.
</event>
<event>
 7    1  0.2384639E-009  0.1075404E+03  0.7561462E-02  0.1265194E+00
          2   -1    0    0  501    0  0.00000000000E+00  0.00000000000E+00  0.35740818976E+03  0.35740818976E+03  0.00000000000E+00 0. -1.
         -2   -1    0    0    0  501 -0.00000000000E+00 -0.00000000000E+00 -0.47432853551E+02  0.47432853551E+02  0.00000000000E+00 0.  1.
         25    2    1    2    0    0  0.53877042827E+02 -0.45804084355E+02  0.15170993623E+03  0.20896047866E+03  0.12509127469E+03 0.  0.
          5    1    3    3  502    0  0.87026887925E+02 -0.26527384014E+02  0.58923154126E+02  0.10847484417E+03  0.41800000000E+01 0. -1.
         -5    1    3    3    0  502 -0.33149845098E+02 -0.19276700341E+02  0.92786782103E+02  0.10048563449E+03  0.41800000000E+01 0. -1.
        -11    1    1    2    0    0 -0.41221104458E+02  0.36096307919E+01  0.11938572112E+02  0.43066673790E+02  0.00000000000E+00 0.  1.
         11    1    1    2    0    0 -0.12655938368E+02  0.42194453563E+02  0.14632682787E+03  0.15281389087E+03  0.00000000000E+00 0. -1.
</event>
<event>
 7    1  0.2384639E-009  0.1600238E+03  0.7561462E-02  0.1188670E+00
         -2   -1    0    0    0  501 -0.00000000000E+00  0.00000000000E+00  0.13936293817E+03  0.13936293817E+03  0.00000000000E+00 0.  1.
          2   -1    0    0  501    0  0.00000000000E+00 -0.00000000000E+00 -0.24952843460E+03  0.24952843460E+03  0.00000000000E+00 0. -1.
         25    2    1    2    0    0 -0.96668300398E+01 -0.13081597270E+03 -0.13476791393E+03  0.22586801652E+03  0.12509078280E+03 0.  0.
          5    1    3    3  502    0 -0.42578121779E+02 -0.23766389800E+02 -0.95150639619E+02  0.10699931943E+03  0.41800000000E+01 0.  1.
         -5    1    3    3    0  502  0.32911291739E+02 -0.10704958290E+03 -0.39617274313E+02  0.11886869709E+03  0.41800000000E+01 0.  1.
        -11    1    1    2    0    0 -0.23119306148E+02  0.12323262977E+03  0.83710594041E+01  0.12566168068E+03  0.00000000000E+00 0. -1.
         11    1    1    2    0    0  0.32786136187E+02  0.75833429328E+01  0.16231358101E+02  0.37361675577E+02  0.00000000000E+00 0.  1.
</event>
<event>
 7    1  0.2384639E-009  0.1345749E+03  0.7561462E-02  0.1220821E+00
          2   -1    0    0  501    0  0.00000000000E+00  0.00000000000E+00  0.77907605467E+02  0.77907605467E+02  0.00000000000E+00 0.  1.
         -2   -1    0    0    0  501 -0.00000000000E+00 -0.00000000000E+00 -0.26833117382E+03  0.26833117382E+03  0.00000000000E+00 0. -1.
         25    2    1    2    0    0 -0.38695646244E+02 -0.75919478520E+02 -0.52801029890E+02  0.16030065717E+03  0.12508889509E+03 0.  0.
          5    1    3    3  502    0  0.22713096554E+02  0.20403239779E+02 -0.31418655729E+02  0.44008877245E+02  0.41800000000E+01 0.  1.
         -5    1    3    3    0  502 -0.61408742798E+02 -0.96322718299E+02 -0.21382374161E+02  0.11629177992E+03  0.41800000000E+01 0.  1.
        -11    1    1    2    0    0  0.62799842676E+02  0.24823047901E+02 -0.63099367615E+02  0.92420420583E+02  0.00000000000E+00 0. -1.
         11    1    1    2    0    0 -0.24104196433E+02  0.51096430619E+02 -0.74523170852E+02  0.93517701541E+02  0.00000000000E+00 0.  1.
</event>
<event>
 7    1  0.2384639E-009  0.1141555E+03  0.7561462E-02  0.1253062E+00
         -2   -1    0    0    0  501 -0.00000000000E+00  0.00000000000E+00  0.12642586766E+03  0.12642586766E+03  0.00000000000E+00 0.  1.
          2   -1    0    0  501    0  0.00000000000E+00 -0.00000000000E+00 -0.30561252458E+03  0.30561252458E+03  0.00000000000E+00 0. -1.
         25    2    1    2    0    0  0.25034820455E+02  0.79673164795E+02 -0.24838984374E+03  0.29038186895E+03  0.12509820109E+03 0.  0.
          5    1    3    3  502    0 -0.38011169374E+02  0.52573387790E+02 -0.18783022061E+03  0.19876235628E+03  0.41800000000E+01 0. -1.
         -5    1    3    3    0  502  0.63045989829E+02  0.27099777005E+02 -0.60559623129E+02  0.91619512663E+02  0.41800000000E+01 0. -1.
        -11    1    1    2    0    0  0.12915557340E+02 -0.18528743205E+02  0.65848163592E+02  0.69613982752E+02  0.00000000000E+00 0.  1.
         11    1    1    2    0    0 -0.37950377796E+02 -0.61144421590E+02  0.33550232295E+01  0.72042540539E+02  0.00000000000E+00 0. -1.
</event>
<event>
 7    1  0.2384639E-009  0.1257942E+03  0.7561462E-02  0.1233833E+00
         -1   -1    0    0    0  501 -0.00000000000E+00  0.00000000000E+00  0.55841659251E+02  0.55841659251E+02  0.00000000000E+00 0.  1.
          1   -1    0    0  501    0  0.00000000000E+00 -0.00000000000E+00 -0.34171328124E+03  0.34171328124E+03  0.00000000000E+00 0. -1.
         25    2    1    2    0    0 -0.60161716132E+02 -0.73162886202E+01 -0.22739785430E+03  0.26651084687E+03  0.12508112244E+03 0.  0.
          5    1    3    3  502    0 -0.85049670241E+02  0.29616740875E+02 -0.11938839248E+03  0.14960500796E+03  0.41800000000E+01 0. -1.
         -5    1    3    3    0  502  0.24887954109E+02 -0.36933029495E+02 -0.10800946182E+03  0.11690583890E+03  0.41800000000E+01 0. -1.
        -11    1    1    2    0    0  0.86643443280E+02  0.17383476233E+02 -0.38569848083E+02  0.96420457842E+02  0.00000000000E+00 0.  1.
         11    1    1    2    0    0 -0.26481727149E+02 -0.10067187613E+02 -0.19903919606E+02  0.34623635784E+02  0.00000000000E+00 0. -1.
</event>
<event>
 7    1  0.2384639E-009  0.8381344E+02  0.7561462E-02  0.1318565E+00
         -2   -1    0    0    0  501 -0.00000000000E+00  0.00000000000E+00  0.26027729121E+03  0.26027729121E+03  0.00000000000E+00 0.  1.
          2   -1    0    0  501    0  0.00000000000E+00 -0.00000000000E+00 -0.70748444979E+02  0.70748444979E+02  0.00000000000E+00 0. -1.
         25    2    1    2    0    0 -0.51826138166E+02 -0.76773491899E+01  0.18026623726E+03  0.22558394331E+03  0.12508920375E+03 0.  0.
          5    1    3    3  502    0 -0.69731422582E+01 -0.15527221279E+02 -0.16199813123E+02  0.23866831771E+02  0.41800000000E+01 0.  1.
         -5    1    3    3    0  502 -0.44852995908E+02  0.78498720889E+01  0.19646605038E+03  0.20171711154E+03  0.41800000000E+01 0.  1.
        -11    1    1    2    0    0 -0.22598794887E+02  0.18449380850E+02 -0.26910267894E+01  0.29297215043E+02  0.00000000000E+00 0. -1.
         11    1    1    2    0    0  0.74424933053E+02 -0.10772031660E+02  0.11953635758E+02  0.76144577836E+02  0.00000000000E+00 0.  1.
</event>
<event>
 7    1  0.2384639E-009  0.9162314E+02  0.7561462E-02  0.1298968E+00
          1   -1    0    0  501    0  0.00000000000E+00  0.00000000000E+00  0.43724409355E+03  0.43724409355E+03  0.00000000000E+00 0. -1.
         -1   -1    0    0    0  501 -0.00000000000E+00 -0.00000000000E+00 -0.30006333970E+02  0.30006333970E+02  0.00000000000E+00 0.  1.
         25    2    1    2    0    0 -0.54698447501E+01 -0.41090709203E+02  0.21270940133E+03  0.25022259345E+03  0.12509073218E+03 0.  0.
          5    1    3    3  502    0 -0.48278918573E+02 -0.33111325118E+02  0.37533034631E+02  0.69666454756E+02  0.41800000000E+01 0. -1.
         -5    1    3    3    0  502  0.42809073823E+02 -0.79793840856E+01  0.17517636669E+03  0.18055613869E+03  0.41800000000E+01 0. -1.
        -11    1    1    2    0    0 -0.30846609348E+02  0.84600690447E+01  0.24963379971E+02  0.40574085523E+02  0.00000000000E+00 0.  1.
         11    1    1    2    0    0  0.36316454098E+02  0.32630640158E+02  0.16956497828E+03  0.17645374855E+03  0.00000000000E+00 0. -1.
</event>
<event>
 7    1  0.2384639E-009  0.9992604E+02  0.7561462E-02  0.1280452E+00
          2   -1    0    0  501    0  0.00000000000E+00  0.00000000000E+00  0.41759896773E+03  0.41759896773E+03  0.00000000000E+00 0. -1.
         -2   -1    0    0    0  501 -0.00000000000E+00 -0.00000000000E+00 -0.38626638094E+02  0.38626638094E+02  0.00000000000E+00 0.  1.
         25    2    1    2    0    0 -0.12711124026E+02  0.21144220786E+02  0.32010263859E+03  0.34455700928E+03  0.12508070461E+03 0.  0.
          5    1    3    3  502    0 -0.68612529580E+02  0.45951790753E+01  0.16487228024E+03  0.17868725774E+03  0.41800000000E+01 0.  1.
         -5    1    3    3    0  502  0.55901405553E+02  0.16549041711E+02  0.15523035835E+03  0.16586975155E+03  0.41800000000E+01 0.  1.
        -11    1    1    2    0    0  0.41014935300E+02 -0.11304241130E+02  0.68114545748E+02  0.80309414938E+02  0.00000000000E+00 0. -1.
         11    1    1    2    0    0 -0.28303811274E+02 -0.98399796557E+01 -0.92448547036E+01  0.31359181602E+02  0.00000000000E+00 0.  1.
</event>
<event>
 7    1  0.2384639E-009  0.6665248E+02  0.7561462E-02  0.1371861E+00
         -2   -1    0    0    0  501 -0.00000000000E+00  0.00000000000E+00  0.56417658736E+02  0.56417658736E+02  0.00000000000E+00 0.  1.
          2   -1    0    0  501    0  0.00000000000E+00 -0.00000000000E+00 -0.24805260277E+03  0.24805260277E+03  0.00000000000E+00 0. -1.
         25    2    1    2    0    0  0.31142418765E+02  0.20252727537E+02 -0.14098089792E+03  0.19210091720E+03  0.12508847105E+03 0.  0.
          5    1    3    3  502    0  0.58755138781E+02  0.20126546522E+02 -0.15028342034E+03  0.16266475659E+03  0.41800000000E+01 0.  1.
         -5    1    3    3    0  502 -0.27612720015E+02  0.12618101504E+00  0.93025224133E+01  0.29436160611E+02  0.41800000000E+01 0.  1.
        -11    1    1    2    0    0 -0.20810022099E+02 -0.47426160466E+00 -0.75883959209E+02  0.78687084131E+02  0.00000000000E+00 0. -1.
         11    1    1    2    0    0 -0.10332396667E+02 -0.19778465932E+02  0.25229913098E+02  0.33682260174E+02  0.00000000000E+00 0.  1.
</event>
<event>
 7    1  0.2384639E-009  0.1304882E+03  0.7561462E-02  0.1226733E+00
          1   -1    0    0  501    0  0.00000000000E+00  0.00000000000E+00  0.42820079655E+02  0.42820079655E+02  0.00000000000E+00 0. -1.
         -1   -1    0    0    0  501 -0.00000000000E+00 -0.00000000000E+00 -0.51266989364E+03  0.51266989364E+03  0.00000000000E+00 0.  1.
         25    2    1    2    0    0 -0.55768485320E+02 -0.56607460656E+02 -0.13858794454E+03  0.20289873140E+03  0.12508696285E+03 0.  0.
          5    1    3    3  502    0 -0.93742839756E+02 -0.39387139634E+02 -0.11917883960E+03  0.15671673485E+03  0.41800000000E+01 0. -1.
         -5    1    3    3    0  502  0.37974354435E+02 -0.17220321022E+02 -0.19409104942E+02  0.46181996552E+02  0.41800000000E+01 0. -1.
        -11    1    1    2    0    0  0.53819526079E+02  0.78580807686E+02 -0.29648679334E+03  0.31140954281E+03  0.00000000000E+00 0. -1.
         11    1    1    2    0    0  0.19489592420E+01 -0.21973347030E+02 -0.34775076099E+02  0.41181699085E+02  0.00000000000E+00 0.  1.
</event>
<event>
 7    1  0.2384639E-009  0.1609089E+03  0.7561462E-02  0.1187674E+00
          1   -1    0    0  501    0  0.00000000000E+00  0.00000000000E+00  0.54829096718E+02  0.54829096718E+02  0.00000000000E+00 0. -1.
         -1   -1    0    0    0  501 -0.00000000000E+00 -0.00000000000E+00 -0.60086253607E+03  0.60086253607E+03  0.00000000000E+00 0.  1.
         25    2    1    2    0    0  0.15404096021E+02  0.13425048789E+03 -0.19123612593E+03  0.26547928445E+03  0.12509002734E+03 0.  0.
          5    1    3    3  502    0 -0.20320049155E+02 -0.68615552306E+01  0.36935961065E+01  0.22160784960E+02  0.41800000000E+01 0.  1.
         -5    1    3    3    0  502  0.35724145177E+02  0.14111204312E+03 -0.19492972203E+03  0.24331849949E+03  0.41800000000E+01 0.  1.
        -11    1    1    2    0    0  0.25264220336E+02 -0.17555864208E+02 -0.13098518808E+03  0.13454965141E+03  0.00000000000E+00 0.  1.
         11    1    1    2    0    0 -0.40668316358E+02 -0.11669462368E+03 -0.22381212534E+03  0.25566269693E+03  0.00000000000E+00 0. -1.
</event>
<event>
 7    1  0.2384639E-009  0.1400271E+03  0.7561462E-02  0.1213293E+00
          2   -1    0    0  501    0  0.00000000000E+00  0.00000000000E+00  0.51789830417E+03  0.51789830417E+03  0.00000000000E+00 0.  1.
         -2   -1    0    0    0  501 -0.00000000000E+00 -0.00000000000E+00 -0.52102174343E+02  0.52102174343E+02  0.00000000000E+00 0. -1.
         25    2    1    2    0    0 -0.80398225596E+02 -0.98074935671E+02  0.22514484271E+03  0.28709632445E+03  0.12510608150E+03 0.  0.
          5    1    3    3  502    0 -0.39965113679E+02  0.53932375379E+01  0.14363991540E+03  0.14925211898E+03  0.41800000000E+01 0.  1.
         -5    1    3    3    0  502 -0.40433111917E+02 -0.10346817321E+03  0.81504927306E+02  0.13784420547E+03  0.41800000000E+01 0.  1.
        -11    1    1    2    0    0  0.36576332285E+02  0.29626175849E+02  0.26879951418E+02  0.54203968186E+02  0.00000000000E+00 0. -1.
         11    1    1    2    0    0  0.43821893310E+02  0.68448759822E+02  0.21377133570E+03  0.22870018588E+03  0.00000000000E+00 0.  1.
</event>
<event>
 7    1  0.2384639E-009  0.1270655E+03  0.7561462E-02  0.1231876E+00
          2   -1    0    0  501    0  0.00000000000E+00  0.00000000000E+00  0.86723858814E+02  0.86723858814E+02  0.00000000000E+00 0. -1.
         -2   -1    0    0    0  501 -0.00000000000E+00 -0.00000000000E+00 -0.45168852697E+03  0.45168852697E+03  0.00000000000E+00 0.  1.
         25    2    1    2    0    0  0.80477034155E+02 -0.57569208403E+02 -0.37249239210E+03  0.40520238103E+03  0.12509044981E+03 0.  0.
          5    1    3    3  502    0  0.41657262589E+02 -0.87108684164E+02 -0.31598695684E+03  0.33043680133E+03  0.41800000000E+01 0. -1.
         -5    1    3    3    0  502  0.38819771566E+02  0.29539475761E+02 -0.56505435264E+02  0.74765579694E+02  0.41800000000E+01 0. -1.
        -11    1    1    2    0    0 -0.50825629041E+02  0.89956840124E+01  0.42113305374E+02  0.66616044522E+02  0.00000000000E+00 0.  1.
         11    1    1    2    0    0 -0.29651405114E+02  0.48573524391E+02 -0.34585581427E+02  0.66593960234E+02  0.00000000000E+00 0. -1.
</event>
<event>
 7    1  0.2384639E-009  0.8899524E+02  0.7561462E-02  0.1305303E+00
         -1   -1    0    0    0  501 -0.00000000000E+00  0.00000000000E+00  0.14091707660E+03  0.14091707660E+03  0.00000000000E+00 0.  1.
          1   -1    0    0  501    0  0.00000000000E+00 -0.00000000000E+00 -0.88630891381E+02  0.88630891381E+02  0.00000000000E+00 0. -1.
         25    2    1    2    0    0 -0.24445119716E+02 -0.13199676896E+02  0.22387330114E+02  0.13008018172E+03  0.12509142968E+03 0.  0.
          5    1    3    3  502    0 -0.59040680730E+02 -0.40384238091E+02  0.40510817264E+02  0.82312133872E+02  0.41800000000E+01 0. -1.
         -5    1    3    3    0  502  0.34595561013E+02  0.27184561194E+02 -0.18123487150E+02  0.47768047853E+02  0.41800000000E+01 0. -1.
        -11    1    1    2    0    0 -0.20966600099E+00 -0.20435988893E+02 -0.23868520708E+02  0.31422601462E+02  0.00000000000E+00 0. -1.
         11    1    1    2    0    0  0.24654785717E+02  0.33635665789E+02  0.53767375812E+02  0.68045184793E+02  0.00000000000E+00 0.  1.
</event>
<event>
 7    1  0.2384639E-009  0.1110443E+03  0.7561462E-02  0.1258648E+00
          1   -1    0    0  501    0  0.00000000000E+00  0.00000000000E+00  0.22667644270E+03  0.22667644270E+03  0.00000000000E+00 0. -1.
         -1   -1    0    0    0  501 -0.00000000000E+00 -0.00000000000E+00 -0.86617494329E+02  0.86617494329E+02  0.00000000000E+00 0.  1.
         25    2    1    2    0    0 -0.18054842995E+02  0.76902159917E+02  0.11996944873E+03  0.19047283135E+03  0.12508921336E+03 0.  0.
          5    1    3    3  502    0 -0.23670530388E+02  0.10048933715E+03  0.47083636960E+02  0.11354621156E+03  0.41800000000E+01 0. -1.
         -5    1    3    3    0  502  0.56156873929E+01 -0.23587177237E+02  0.72885811765E+02  0.76926619785E+02  0.41800000000E+01 0. -1.
        -11    1    1    2    0    0 -0.14728456583E+02 -0.48821526477E+02 -0.28019557661E+02  0.58185603824E+02  0.00000000000E+00 0.  1.
         11    1    1    2    0    0  0.32783299578E+02 -0.28080633440E+02  0.48109057303E+02  0.64635501856E+02  0.00000000000E+00 0. -1.
</event>
<event>
 7    1  0.2384639E-009  0.1295416E+03  0.7561462E-02  0.1228137E+00
          2   -1    0    0  501    0  0.00000000000E+00  0.00000000000E+00  0.71244748347E+02  0.71244748347E+02  0.00000000000E+00 0. -1.
         -2   -1    0    0    0  501 -0.00000000000E+00 -0.00000000000E+00 -0.35019330488E+03  0.35019330488E+03  0.00000000000E+00 0.  1.
         25    2    1    2    0    0  0.58651608416E+02  0.94109201248E+02 -0.19221442131E+03  0.25473626157E+03  0.12509047234E+03 0.  0.
          5    1    3    3  502    0  0.44344686026E+02  0.29526189933E+02 -0.17944976804E+03  0.18723765306E+03  0.41800000000E+01 0. -1.
         -5    1    3    3    0  502  0.14306922390E+02  0.64583011315E+02 -0.12764653269E+02  0.67498608518E+02  0.41800000000E+01 0. -1.
        -11    1    1    2    0    0 -0.75400758631E+02 -0.45770684240E+02 -0.37987415562E+02  0.96037876273E+02  0.00000000000E+00 0. -1.
         11    1    1    2    0    0  0.16749150215E+02 -0.48338517008E+02 -0.48746719657E+02  0.70663915379E+02  0.00000000000E+00 0.  1.
</event>
<event>
 7    1  0.2615497E-009  0.9141448E+02  0.7561462E-02  0.1299462E+00
         -2   -1    0    0    0  501 -0.00000000000E+00  0.00000000000E+00  0.18424470295E+03  0.18424470295E+03  0.00000000000E+00 0.  1.
          2   -1    0    0  501    0  0.00000000000E+00 -0.00000000000E+00 -0.99369213931E+02  0.99369213931E+02  0.00000000000E+00 0. -1.
         25    2    1    2    0    0  0.16769463292E+02 -0.51881398221E+02  0.10952440091E+03  0.17497324599E+03  0.12508856077E+03 0.  0.
          5    1    3    3  502    0 -0.49302301980E+02 -0.24651942520E+02  0.80666444416E+02  0.97790505189E+02  0.41800000000E+01 0. -1.
         -5    1    3    3    0  502  0.66071765271E+02 -0.27229455701E+02  0.28857956493E+02  0.77182740796E+02  0.41800000000E+01 0. -1.
        -11    1    1    2    0    0 -0.38329067555E+01  0.32099056828E+02 -0.58804190243E+02  0.67104198182E+02  0.00000000000E+00 0. -1.
         11    1    1    2    0    0 -0.12936556536E+02  0.19782341393E+02  0.34155278349E+02  0.41536472709E+02  0.00000000000E+00 0.  1.
</event>
<event>
 7    1  0.2384639E-009  0.9527538E+02  0.7561462E-02  0.1290557E+00
         -1   -1    0    0    0  501 -0.00000000000E+00  0.00000000000E+00  0.65903172712E+02  0.65903172712E+02  0.00000000000E+00 0.  1.
          1   -1    0    0  501    0  0.00000000000E+00 -0.00000000000E+00 -0.22832370335E+03  0.22832370335E+03  0.00000000000E+00 0. -1.
         25    2    1    2    0    0  0.19424186971E+02  0.61918937961E+02 -0.84074919014E+02  0.16409949471E+03  0.12509515673E+03 0.  0.
          5    1    3    3  502    0  0.58232456182E+02  0.28922128688E+02  0.64422002016E+00  0.65156702650E+02  0.41800000000E+01 0.  1.
         -5    1    3    3    0  502 -0.38808269211E+02  0.32996809273E+02 -0.84719139034E+02  0.98942792057E+02  0.41800000000E+01 0.  1.
        -11    1    1    2    0    0  0.10689611113E+02 -0.19918333744E+02 -0.75006562850E+02  0.78338957584E+02  0.00000000000E+00 0. -1.
         11    1    1    2    0    0 -0.30113798084E+02 -0.42000604217E+02 -0.33390487723E+01  0.51788423768E+02  0.00000000000E+00 0.  1.
</event>
<event>
 7    1  0.2384639E-009  0.1204791E+03  0.7561462E-02  0.1242309E+00
          2   -1    0    0  501    0  0.00000000000E+00  0.00000000000E+00  0.15881046907E+04  0.15881046907E+04  0.00000000000E+00 0. -1.
         -2   -1    0    0    0  501 -0.00000000000E+00 -0.00000000000E+00 -0.16747892687E+02  0.16747892687E+02  0.00000000000E+00 0.  1.
         25    2    1    2    0    0  0.81035275289E+02 -0.60579092349E+02  0.11443023798E+04  0.11555569769E+04  0.12508976034E+03 0.  0.
          5    1    3    3  502    0  0.85712322276E+01 -0.63389770173E+02  0.24235598491E+03  0.25069029660E+03  0.41800000000E+01 0.  1.
         -5    1    3    3    0  502  0.72464043062E+02  0.28106778237E+01  0.90194639492E+03  0.90486668032E+03  0.41800000000E+01 0.  1.
        -11    1    1    2    0    0 -0.34860647497E+02  0.11209552542E+02  0.32402188934E+02  0.48896018854E+02  0.00000000000E+00 0.  1.
         11    1    1    2    0    0 -0.46174627793E+02  0.49369539807E+02  0.39465222923E+03  0.40039958760E+03  0.00000000000E+00 0. -1.
</event>
<event>
 7    1  0.2384639E-009  0.1701172E+03  0.7561462E-02  0.1177726E+00
          3   -1    0    0  501    0  0.00000000000E+00  0.00000000000E+00  0.54281545854E+03  0.54281545854E+03  0.00000000000E+00 0. -1.
         -3   -1    0    0    0  501 -0.00000000000E+00 -0.00000000000E+00 -0.10589580605E+03  0.10589580605E+03  0.00000000000E+00 0.  1.
         25    2    1    2    0    0  0.51419255768E+02 -0.14687804346E+03  0.28407272201E+02  0.20167139442E+03  0.12508908305E+03 0.  0.
          5    1    3    3  502    0  0.58363233132E+02 -0.34618684220E+02 -0.30639048263E+02  0.74571736987E+02  0.41800000000E+01 0. -1.
         -5    1    3    3    0  502 -0.69439773643E+01 -0.11225935924E+03  0.59046320464E+02  0.12709965743E+03  0.41800000000E+01 0. -1.
        -11    1    1    2    0    0  0.33786107418E+01  0.34547230066E+02  0.22668719947E+02  0.41458376474E+02  0.00000000000E+00 0.  1.
         11    1    1    2    0    0 -0.54797866510E+02  0.11233081339E+03  0.38584366034E+03  0.40558149371E+03  0.00000000000E+00 0. -1.
</event>
<event>
 7    1  0.2384639E-009  0.7733697E+02  0.7561462E-02  0.1336783E+00
          2   -1    0    0  501    0  0.00000000000E+00  0.00000000000E+00  0.34230315533E+03  0.34230315533E+03  0.00000000000E+00 0. -1.
         -2   -1    0    0    0  501 -0.00000000000E+00 -0.00000000000E+00 -0.38224631445E+02  0.38224631445E+02  0.00000000000E+00 0.  1.
         25    2    1    2    0    0  0.44128942700E+01  0.96721611388E+01  0.23468301082E+03  0.26615092560E+03  0.12508866972E+03 0.  0.
          5    1    3    3  502    0  0.37988652277E+02  0.22840045997E+02  0.22388956017E+03  0.22827354852E+03  0.41800000000E+01 0. -1.
         -5    1    3    3    0  502 -0.33575758007E+02 -0.13167884858E+02  0.10793450655E+02  0.37877377080E+02  0.41800000000E+01 0. -1.
        -11    1    1    2    0    0  0.30404827556E+02  0.12161611528E+02  0.65331450763E+02  0.73079113244E+02  0.00000000000E+00 0. -1.
         11    1    1    2    0    0 -0.34817721826E+02 -0.21833772666E+02  0.40640623046E+01  0.41297747934E+02  0.00000000000E+00 0.  1.
</event>
<event>
 7    1  0.2384639E-009  0.1105107E+03  0.7561462E-02  0.1259627E+00
          1   -1    0    0  501    0  0.00000000000E+00  0.00000000000E+00  0.61838211131E+03  0.61838211131E+03  0.00000000000E+00 0. -1.
         -1   -1    0    0    0  501 -0.00000000000E+00 -0.00000000000E+00 -0.20696341105E+02  0.20696341105E+02  0.00000000000E+00 0.  1.
         25    2    1    2    0    0  0.15873600132E+02 -0.28366488412E+02  0.35304527357E+03  0.37595836584E+03  0.12508836399E+03 0.  0.
          5    1    3    3  502    0 -0.53523511204E+02 -0.14140744836E+02  0.19425437765E+03  0.20203208298E+03  0.41800000000E+01 0.  1.
         -5    1    3    3    0  502  0.69397111336E+02 -0.14225743575E+02  0.15879089592E+03  0.17392628286E+03  0.41800000000E+01 0.  1.
        -11    1    1    2    0    0 -0.58978654115E+01 -0.32414269469E+02  0.59635667265E+02  0.68131362028E+02  0.00000000000E+00 0.  1.
         11    1    1    2    0    0 -0.99757347204E+01  0.60780757881E+02  0.18500482937E+03  0.19498872455E+03  0.00000000000E+00 0. -1.
</event>
<event>
 7    1  0.2384639E-009  0.1282376E+03  0.7561462E-02  0.1230094E+00
          1   -1    0    0  501    0  0.00000000000E+00  0.00000000000E+00  0.94327232875E+02  0.94327232875E+02  0.00000000000E+00 0. -1.
         -1   -1    0    0    0  501 -0.00000000000E+00 -0.00000000000E+00 -0.19751104579E+03  0.19751104579E+03  0.00000000000E+00 0.  1.
         25    2    1    2    0    0  0.69458862325E+02  0.13414096678E+02 -0.94220199259E+01  0.14401603733E+03  0.12508946000E+03 0.  0.
          5    1    3    3  502    0  0.10411773503E+03  0.24568405303E+02 -0.70070251049E+01  0.10728783756E+03  0.41800000000E+01 0. -1.
         -5    1    3    3    0  502 -0.34658872709E+02 -0.11154308625E+02 -0.24149948210E+01  0.36728199770E+02  0.41800000000E+01 0. -1.
        -11    1    1    2    0    0 -0.54582669468E+02  0.33166543693E+02 -0.41056242759E+02  0.75926955005E+02  0.00000000000E+00 0. -1.
         11    1    1    2    0    0 -0.14876192856E+02 -0.46580640371E+02 -0.52705550230E+02  0.71895286329E+02  0.00000000000E+00 0.  1.
</event>
<event>
 7    1  0.2384639E-009  0.2685226E+03  0.7561462E-02  0.1102128E+00
         -2   -1    0    0    0  501 -0.00000000000E+00  0.00000000000E+00  0.55006486056E+02  0.55006486056E+02  0.00000000000E+00 0.  1.
          2   -1    0    0  501    0  0.00000000000E+00 -0.00000000000E+00 -0.17171330599E+04  0.17171330599E+04  0.00000000000E+00 0. -1.
         25    2    1    2    0    0 -0.24269333094E+03  0.82002486900E+02 -0.46074615550E+03  0.54181171152E+03  0.12509376561E+03 0.  0.
          5    1    3    3  502    0 -0.70539064384E+02 -0.21041245884E+02 -0.65871800809E+02  0.98868903981E+02  0.41800000000E+01 0. -1.
         -5    1    3    3    0  502 -0.17215426655E+03  0.10304373278E+03 -0.39487435469E+03  0.44294280754E+03  0.41800000000E+01 0. -1.
        -11    1    1    2    0    0  0.37071227550E+02  0.84117272618E+01 -0.12048204092E+03  0.12633667421E+03  0.00000000000E+00 0.  1.
         11    1    1    2    0    0  0.20562210339E+03 -0.90414214162E+02 -0.10808983774E+04  0.11039911602E+04  0.00000000000E+00 0. -1.
</event>
<event>
 7    1  0.2384639E-009  0.9201845E+02  0.7561462E-02  0.1298036E+00
          1   -1    0    0  501    0  0.00000000000E+00  0.00000000000E+00  0.16856237507E+04  0.16856237507E+04  0.00000000000E+00 0. -1.
         -1   -1    0    0    0  501 -0.00000000000E+00 -0.00000000000E+00 -0.10669234126E+02  0.10669234126E+02  0.00000000000E+00 0.  1.
         25    2    1    2    0    0 -0.99997838083E+01 -0.14425773649E+02  0.13923131372E+04  0.13980314946E+04  0.12509232255E+03 0.  0.
          5    1    3    3  502    0 -0.10467588345E+02  0.38254856328E+02  0.17153611244E+03  0.17611108627E+03  0.41800000000E+01 0.  1.
         -5    1    3    3    0  502  0.46780453703E+00 -0.52680629977E+02  0.12207770248E+04  0.12219204083E+04  0.41800000000E+01 0.  1.
        -11    1    1    2    0    0 -0.20519376072E+02 -0.30642550973E+02  0.15812537988E+03  0.16236885935E+03  0.00000000000E+00 0. -1.
         11    1    1    2    0    0  0.30519159880E+02  0.45068324621E+02  0.12451599944E+03  0.13589263086E+03  0.00000000000E+00 0.  1.
</event>
<event>
 7    1  0.2384639E-009  0.1808910E+03  0.7561462E-02  0.1166943E+00
         -1   -1    0    0    0  501 -0.00000000000E+00  0.00000000000E+00  0.70700488180E+02  0.70700488180E+02  0.00000000000E+00 0.  1.
          1   -1    0    0  501    0  0.00000000000E+00 -0.00000000000E+00 -0.55373424903E+03  0.55373424903E+03  0.00000000000E+00 0. -1.
         25    2    1    2    0    0 -0.86924136702E+02 -0.13231496212E+03 -0.18167151911E+03  0.27150479409E+03  0.12508899879E+03 0.  0.
          5    1    3    3  502    0  0.47972070300E+01 -0.92903246984E+02 -0.12738400009E+03  0.15779157891E+03  0.41800000000E+01 0.  1.
         -5    1    3    3    0  502 -0.91721343732E+02 -0.39411715133E+02 -0.54287519015E+02  0.11371321518E+03  0.41800000000E+01 0.  1.
        -11    1    1    2    0    0  0.78741565744E+02  0.68384028467E+02 -0.11264786993E+03  0.15351270998E+03  0.00000000000E+00 0.  1.
         11    1    1    2    0    0  0.81825709583E+01  0.63930933650E+02 -0.18871437181E+03  0.19941723314E+03  0.00000000000E+00 0. -1.
</event>
<event>
 7    1  0.2384639E-009  0.1361820E+03  0.7561462E-02  0.1218561E+00
         -2   -1    0    0    0  501 -0.00000000000E+00  0.00000000000E+00  0.46956596137E+02  0.46956596137E+02  0.00000000000E+00 0.  1.
          2   -1    0    0  501    0  0.00000000000E+00 -0.00000000000E+00 -0.93799338698E+03  0.93799338698E+03  0.00000000000E+00 0. -1.
         25    2    1    2    0    0  0.10551192423E+03 -0.66613815729E+02 -0.76153494736E+03  0.78176259590E+03  0.12508842350E+03 0.  0.
          5    1    3    3  502    0  0.35443594943E+02 -0.31926509744E+02 -0.64438267409E+02  0.80282707688E+02  0.41800000000E+01 0.  1.
         -5    1    3    3    0  502  0.70068329283E+02 -0.34687305985E+02 -0.69709667995E+03  0.70147988821E+03  0.41800000000E+01 0.  1.
        -11    1    1    2    0    0 -0.11771661065E+03  0.57892768708E+02 -0.85217380474E+02  0.15643137482E+03  0.00000000000E+00 0.  1.
         11    1    1    2    0    0  0.12204686426E+02  0.87210470203E+01 -0.44284463006E+02  0.46756012401E+02  0.00000000000E+00 0. -1.
</event>
<event>
 7    1  0.2384639E-009  0.1172240E+03  0.7561462E-02  0.1247748E+00
         -2   -1    0    0    0  501 -0.00000000000E+00  0.00000000000E+00  0.26588097708E+02  0.26588097708E+02  0.00000000000E+00 0.  1.
          2   -1    0    0  501    0  0.00000000000E+00 -0.00000000000E+00 -0.82580252026E+03  0.82580252026E+03  0.00000000000E+00 0. -1.
         25    2    1    2    0    0  0.35552083779E+02 -0.38011084275E+02 -0.47004834520E+03  0.48918700779E+03  0.12509871532E+03 0.  0.
          5    1    3    3  502    0  0.83567645093E+01 -0.55033822940E+02 -0.78608425391E+02  0.96412209408E+02  0.41800000000E+01 0. -1.
         -5    1    3    3    0  502  0.27195319270E+02  0.17022738664E+02 -0.39143991981E+03  0.39277479838E+03  0.41800000000E+01 0. -1.
        -11    1    1    2    0    0  0.52627093645E+02  0.19821286845E+02 -0.18382368346E+03  0.19223329836E+03  0.00000000000E+00 0. -1.
         11    1    1    2    0    0 -0.88179177424E+02  0.18189797431E+02 -0.14534239388E+03  0.17097031181E+03  0.00000000000E+00 0.  1.
</event>
<event>
 7    1  0.2384639E-009  0.8934566E+02  0.7561462E-02  0.1304444E+00
         -2   -1    0    0    0  501 -0.00000000000E+00  0.00000000000E+00  0.49706566467E+02  0.49706566467E+02  0.00000000000E+00 0.  1.
          2   -1    0    0  501    0  0.00000000000E+00 -0.00000000000E+00 -0.41249928976E+03  0.41249928976E+03  0.00000000000E+00 0. -1.
         25    2    1    2    0    0 -0.82423321280E+01  0.55469304920E+02 -0.31959096860E+03  0.34775159044E+03  0.12509197263E+03 0.  0.
          5    1    3    3  502    0 -0.17279962664E+02 -0.52695985626E+00 -0.27475276077E+03  0.27532785320E+03  0.41800000000E+01 0. -1.
         -5    1    3    3    0  502  0.90376305361E+01  0.55996264777E+02 -0.44838207826E+02  0.72423737239E+02  0.41800000000E+01 0. -1.
        -11    1    1    2    0    0 -0.15124290827E+02 -0.73169776727E+02 -0.40575023936E+02  0.85022896721E+02  0.00000000000E+00 0. -1.
         11    1    1    2    0    0  0.23366622955E+02  0.17700471807E+02 -0.26267307572E+01  0.29431369064E+02  0.00000000000E+00 0.  1.
</event>
<event>
 7    1  0.2384639E-009  0.1046054E+03  0.7561462E-02  0.1270899E+00
         -1   -1    0    0    0  501 -0.00000000000E+00  0.00000000000E+00  0.11339658341E+03  0.11339658341E+03  0.00000000000E+00 0.  1.
          1   -1    0    0  501    0  0.00000000000E+00 -0.00000000000E+00 -0.14531137613E+03  0.14531137613E+03  0.00000000000E+00 0. -1.
         25    2    1    2    0    0  0.54411036690E+02  0.34351973233E+02  0.18225571089E+01  0.14068205301E+03  0.12508996500E+03 0.  0.
          5    1    3    3  502    0  0.88964075604E+02  0.38300713136E+02  0.23146866901E+02  0.99673473011E+02  0.41800000000E+01 0.  1.
         -5    1    3    3    0  502 -0.34553038914E+02 -0.39487399033E+01 -0.21324309792E+02  0.41008579994E+02  0.41800000000E+01 0.  1.
        -11    1    1    2    0    0 -0.83272280152E+01 -0.29781864049E+02 -0.58011974835E+02  0.65739572381E+02  0.00000000000E+00 0. -1.
         11    1    1    2    0    0 -0.46083808675E+02 -0.45701091840E+01  0.24274625010E+02  0.52286334154E+02  0.00000000000E+00 0.  1.
</event>
<event>
 7    1  0.2384639E-009  0.9397584E+02  0.7561462E-02  0.1293500E+00
         -2   -1    0    0    0  501 -0.00000000000E+00  0.00000000000E+00  0.67374631770E+02  0.67374631770E+02  0.00000000000E+00 0.  1.
          2   -1    0    0  501    0  0.00000000000E+00 -0.00000000000E+00 -0.25018615310E+03  0.25018615310E+03  0.00000000000E+00 0. -1.
         25    2    1    2    0    0  0.61471774968E+02 -0.20821338981E+02 -0.61201703333E+02  0.15364069156E+03  0.12508999295E+03 0.  0.
          5    1    3    3  502    0 -0.23249495693E+02  0.15281354736E+02  0.16897269958E+02  0.32818424468E+02  0.41800000000E+01 0.  1.
         -5    1    3    3    0  502  0.84721270660E+02 -0.36102693716E+02 -0.78098973290E+02  0.12082226709E+03  0.41800000000E+01 0.  1.
        -11    1    1    2    0    0 -0.35438188268E+02  0.19799350782E+01 -0.12652578982E+03  0.13140989620E+03  0.00000000000E+00 0. -1.
         11    1    1    2    0    0 -0.26033586700E+02  0.18841403902E+02  0.49159718173E+01  0.32510197114E+02  0.00000000000E+00 0.  1.
</event>
<event>
 7    1  0.2384639E-009  0.1146795E+03  0.7561462E-02  0.1252142E+00
         -1   -1    0    0    0  501 -0.00000000000E+00  0.00000000000E+00  0.29598050267E+03  0.29598050267E+03  0.00000000000E+00 0.  1.
          1   -1    0    0  501    0  0.00000000000E+00 -0.00000000000E+00 -0.68344670838E+02  0.68344670838E+02  0.00000000000E+00 0. -1.
         25    2    1    2    0    0 -0.12617954938E+02  0.91931236733E+02  0.12206060297E+03  0.19788089843E+03  0.12508994401E+03 0.  0.
          5    1    3    3  502    0 -0.51097262628E+02  0.45812323014E+02  0.84098762083E+01  0.69266857918E+02  0.41800000000E+01 0.  1.
         -5    1    3    3    0  502  0.38479307690E+02  0.46118913719E+02  0.11365072676E+03  0.12861404051E+03  0.41800000000E+01 0.  1.
        -11    1    1    2    0    0  0.16749848508E+02 -0.12606955789E+02  0.80445283010E+02  0.83132041463E+02  0.00000000000E+00 0.  1.
         11    1    1    2    0    0 -0.41318935702E+01 -0.79324280944E+02  0.25129945852E+02  0.83312233617E+02  0.00000000000E+00 0. -1.
</event>
<event>
 7    1  0.2744306E-009  0.9737352E+02  0.7561462E-02  0.1285918E+00
          2   -1    0    0  501    0  0.00000000000E+00  0.00000000000E+00  0.10373086019E+03  0.10373086019E+03  0.00000000000E+00 0. -1.
         -2   -1    0    0    0  501 -0.00000000000E+00 -0.00000000000E+00 -0.14833855381E+03  0.14833855381E+03  0.00000000000E+00 0.  1.
         25    2    1    2    0    0 -0.41538823226E+02  0.26592001865E+02 -0.59654245530E+02  0.14711040186E+03  0.12510089100E+03 0.  0.
          5    1    3    3  502    0 -0.13502025900E+02 -0.49879771114E+02 -0.14248032439E+02  0.53765928786E+02  0.41800000000E+01 0.  1.
         -5    1    3    3    0  502 -0.28036797326E+02  0.76471772979E+02 -0.45406213091E+02  0.93344473078E+02  0.41800000000E+01 0.  1.
        -11    1    1    2    0    0 -0.41703427843E+01 -0.13010589430E+02  0.46081872024E+02  0.48064603665E+02  0.00000000000E+00 0. -1.
         11    1    1    2    0    0  0.45709166010E+02 -0.13581412434E+02 -0.31035320114E+02  0.56894408474E+02  0.00000000000E+00 0.  1.
</event>
<event>
 7    1  0.2384639E-009  0.6435759E+02  0.7561462E-02  0.1380404E+00
          4   -1    0    0  501    0  0.00000000000E+00  0.00000000000E+00  0.18680888828E+03  0.18680888828E+03  0.00000000000E+00 0. -1.
         -4   -1    0    0    0  501 -0.00000000000E+00 -0.00000000000E+00 -0.85021326141E+02  0.85021326141E+02  0.00000000000E+00 0.  1.
         25    2    1    2    0    0 -0.37647579502E+02  0.51054932380E+02  0.85863628886E+02  0.16445096566E+03  0.12509041122E+03 0.  0.
          5    1    3    3  502    0 -0.24379613545E+02  0.36099391094E+02  0.11829165840E+03  0.12612660481E+03  0.41800000000E+01 0. -1.
         -5    1    3    3    0  502 -0.13267965957E+02  0.14955541286E+02 -0.32428029519E+02  0.38324360846E+02  0.41800000000E+01 0. -1.
        -11    1    1    2    0    0  0.15804918827E+02 -0.12238579073E+02  0.48328067863E+02  0.52298952382E+02  0.00000000000E+00 0. -1.
         11    1    1    2    0    0  0.21842660675E+02 -0.38816353307E+02 -0.32404134609E+02  0.55080296379E+02  0.00000000000E+00 0.  1.
</event>
<event>
 7    1  0.2384639E-009  0.8591059E+02  0.7561462E-02  0.1313068E+00
          2   -1    0    0  501    0  0.00000000000E+00  0.00000000000E+00  0.62551082168E+02  0.62551082168E+02  0.00000000000E+00 0. -1.
         -2   -1    0    0    0  501 -0.00000000000E+00 -0.00000000000E+00 -0.25172563184E+03  0.25172563184E+03  0.00000000000E+00 0.  1.
         25    2    1    2    0    0  0.79541816303E+01 -0.22012626639E+02 -0.17377934692E+03  0.21539093250E+03  0.12508464195E+03 0.  0.
          5    1    3    3  502    0 -0.47005313568E+02  0.11965610467E+02 -0.12553323783E+03  0.13464301518E+03  0.41800000000E+01 0.  1.
         -5    1    3    3    0  502  0.54959495198E+02 -0.33978237106E+02 -0.48246109085E+02  0.80747917317E+02  0.41800000000E+01 0.  1.
        -11    1    1    2    0    0  0.22375532377E+02  0.15895188722E+02 -0.47145555689E+02  0.54552954960E+02  0.00000000000E+00 0.  1.
         11    1    1    2    0    0 -0.30329714008E+02  0.61174379174E+01  0.31750352931E+02  0.44332826548E+02  0.00000000000E+00 0. -1.
</event>
<event>
 7    1  0.2384639E-009  0.7344664E+02  0.7561462E-02  0.1348750E+00
         -2   -1    0    0    0  501 -0.00000000000E+00  0.00000000000E+00  0.16512901567E+02  0.16512901567E+02  0.00000000000E+00 0.  1.
          2   -1    0    0  501    0  0.00000000000E+00 -0.00000000000E+00 -0.80288184923E+03  0.80288184923E+03  0.00000000000E+00 0. -1.
         25    2    1    2    0    0 -0.30309516384E+02  0.14772311686E+01 -0.54956889009E+03  0.56444175210E+03  0.12509067735E+03 0.  0.
          5    1    3    3  502    0 -0.29017600881E+02 -0.36483630231E+02 -0.75464948163E+02  0.88800378586E+02  0.41800000000E+01 0.  1.
         -5    1    3    3    0  502 -0.12919155035E+01  0.37960861400E+02 -0.47410394193E+03  0.47564137351E+03  0.41800000000E+01 0.  1.
        -11    1    1    2    0    0  0.39392003822E+02 -0.17777709013E+02 -0.23157775429E+03  0.23557596054E+03  0.00000000000E+00 0. -1.
         11    1    1    2    0    0 -0.90824874371E+01  0.16300477845E+02 -0.52223032738E+01  0.19377038151E+02  0.00000000000E+00 0.  1.
</event>
<event>
 7    1  0.2384639E-009  0.2236019E+03  0.7561462E-02  0.1131226E+00
         -1   -1    0    0    0  501 -0.00000000000E+00  0.00000000000E+00  0.48877918581E+02  0.48877918581E+02  0.00000000000E+00 0.  1.
          1   -1    0    0  501    0  0.00000000000E+00 -0.00000000000E+00 -0.11323396132E+04  0.11323396132E+04  0.00000000000E+00 0. -1.
         25    2    1    2    0    0 -0.59250389100E+02 -0.19866406165E+03 -0.57249659459E+03  0.62159256116E+03  0.12508774230E+03 0.  0.
          5    1    3    3  502    0 -0.26252706053E+02 -0.19990958288E+03 -0.53337493776E+03  0.57022744807E+03  0.41800000000E+01 0. -1.
         -5    1    3    3    0  502 -0.32997683047E+02  0.12455212303E+01 -0.39121656829E+02  0.51365113089E+02  0.41800000000E+01 0. -1.
        -11    1    1    2    0    0 -0.60860145777E+01  0.43020202080E+02 -0.21099124031E+03  0.21541838558E+03  0.00000000000E+00 0. -1.
         11    1    1    2    0    0  0.65336403678E+02  0.15564385957E+03 -0.29997385974E+03  0.34420658506E+03  0.00000000000E+00 0.  1.
</event>
<event>
 7    1  0.2384639E-009  0.1146785E+03  0.7561462E-02  0.1252143E+00
          2   -1    0    0  501    0  0.00000000000E+00  0.00000000000E+00  0.64894849703E+03  0.64894849703E+03  0.00000000000E+00 0. -1.
         -2   -1    0    0    0  501 -0.00000000000E+00 -0.00000000000E+00 -0.29869874263E+02  0.29869874263E+02  0.00000000000E+00 0.  1.
         25    2    1    2    0    0  0.81937305324E+02  0.87429554318E+00  0.40874269469E+03  0.43523845332E+03  0.12508970540E+03 0.  0.
          5    1    3    3  502    0  0.63522104780E+02  0.56808362139E+02  0.29495858952E+03  0.30705095625E+03  0.41800000000E+01 0. -1.
         -5    1    3    3    0  502  0.18415200544E+02 -0.55934066595E+02  0.11378410517E+03  0.12818749707E+03  0.41800000000E+01 0. -1.
        -11    1    1    2    0    0 -0.35522709932E+02  0.10821644384E+02  0.18640045285E+03  0.19006340976E+03  0.00000000000E+00 0. -1.
         11    1    1    2    0    0 -0.46414595392E+02 -0.11695939928E+02  0.23935475236E+02  0.53516508210E+02  0.00000000000E+00 0.  1.
</event>
<event>
 7    1  0.2384639E-009  0.7940747E+02  0.7561462E-02  0.1330741E+00
          1   -1    0    0  501    0  0.00000000000E+00  0.00000000000E+00  0.56690120560E+03  0.56690120560E+03  0.00000000000E+00 0. -1.
         -1   -1    0    0    0  501 -0.00000000000E+00 -0.00000000000E+00 -0.22542707907E+02  0.22542707907E+02  0.00000000000E+00 0.  1.
         25    2    1    2    0    0  0.25439367491E+02 -0.11874470467E+02  0.36042688057E+03  0.38254762287E+03  0.12508790132E+03 0.  0.
          5    1    3    3  502    0 -0.22728653154E+02  0.66599756904E+01  0.65827583931E+01  0.24934956556E+02  0.41800000000E+01 0. -1.
         -5    1    3    3    0  502  0.48168020645E+02 -0.18534446158E+02  0.35384412218E+03  0.35761266632E+03  0.41800000000E+01 0. -1.
        -11    1    1    2    0    0 -0.39308430341E+02  0.37193672244E+02  0.16153402066E+03  0.17035774646E+03  0.00000000000E+00 0. -1.
         11    1    1    2    0    0  0.13869062850E+02 -0.25319201777E+02  0.22397596466E+02  0.36538544175E+02  0.00000000000E+00 0.  1.
</event>
<event>
 7    1  0.2384639E-009  0.1203492E+03  0.7561462E-02  0.1242522E+00
         -1   -1    0    0    0  501 -0.00000000000E+00  0.00000000000E+00  0.37141082440E+03  0.37141082440E+03  0.00000000000E+00 0.  1.
          1   -1    0    0  501    0  0.00000000000E+00 -0.00000000000E+00 -0.49022576764E+02  0.49022576764E+02  0.00000000000E+00 0. -1.
         25    2    1    2    0    0  0.40362399288E+02  0.64741846059E+02  0.14677728049E+03  0.20739524067E+03  0.12509430792E+03 0.  0.
          5    1    3    3  502    0 -0.40618413927E+02  0.66517987565E-01  0.27010955144E+02  0.48958391235E+02  0.41800000000E+01 0.  1.
         -5    1    3    3    0  502  0.80980813215E+02  0.64675328071E+02  0.11976632535E+03  0.15843684943E+03  0.41800000000E+01 0.  1.
        -11    1    1    2    0    0 -0.48261273572E+02 -0.22641390380E+02  0.29814301515E+02  0.61079257199E+02  0.00000000000E+00 0. -1.
         11    1    1    2    0    0  0.78988742842E+01 -0.42100455679E+02  0.14579666563E+03  0.15195890330E+03  0.00000000000E+00 0.  1.
</event>
<event>
 7    1  0.2384639E-009  0.9341834E+02  0.7561462E-02  0.1294779E+00
          3   -1    0    0  501    0  0.00000000000E+00  0.00000000000E+00  0.27415988648E+02  0.27415988648E+02  0.00000000000E+00 0. -1.
         -3   -1    0    0    0  501 -0.00000000000E+00 -0.00000000000E+00 -0.72058642357E+03  0.72058642357E+03  0.00000000000E+00 0.  1.
         25    2    1    2    0    0  0.53648568681E+02 -0.49492931248E+02 -0.51832590326E+03  0.53817849404E+03  0.12508649126E+03 0.  0.
          5    1    3    3  502    0  0.33605716745E+02  0.29289288827E+01 -0.26387283522E+02  0.43031197451E+02  0.41800000000E+01 0.  1.
         -5    1    3    3    0  502  0.20042851935E+02 -0.52421860130E+02 -0.49193861974E+03  0.49514729659E+03  0.41800000000E+01 0.  1.
        -11    1    1    2    0    0  0.13453047604E+02  0.17922806497E+02 -0.10697602559E+03  0.10929813143E+03  0.00000000000E+00 0.  1.
         11    1    1    2    0    0 -0.67101616285E+02  0.31570124751E+02 -0.67868506073E+02  0.10052578675E+03  0.00000000000E+00 0. -1.
</event>
<event>
 7    1  0.2384639E-009  0.9799586E+02  0.7561462E-02  0.1284568E+00
          2   -1    0    0  501    0  0.00000000000E+00  0.00000000000E+00  0.33046135199E+03  0.33046135199E+03  0.00000000000E+00 0. -1.
         -2   -1    0    0    0  501 -0.00000000000E+00 -0.00000000000E+00 -0.40571928178E+02  0.40571928178E+02  0.00000000000E+00 0.  1.
         25    2    1    2    0    0 -0.28060722901E+02 -0.29101174184E+02  0.15766065758E+03  0.20527645729E+03  0.12508900216E+03 0.  0.
          5    1    3    3  502    0  0.31242723396E+02 -0.19687347918E+01 -0.31066091875E+01  0.31734950804E+02  0.41800000000E+01 0. -1.
         -5    1    3    3    0  502 -0.59303446297E+02 -0.27132439392E+02  0.16076726677E+03  0.17354150649E+03  0.41800000000E+01 0. -1.
        -11    1    1    2    0    0  0.57552240058E+02  0.37135980745E+02  0.80740466004E+02  0.10587900761E+03  0.00000000000E+00 0.  1.
         11    1    1    2    0    0 -0.29491517158E+02 -0.80348065612E+01  0.51488300224E+02  0.59877815263E+02  0.00000000000E+00 0. -1.
</event>
<event>
 7    1  0.2384639E-009  0.1150046E+03  0.7561462E-02  0.1251573E+00
         -1   -1    0    0    0  501 -0.00000000000E+00  0.00000000000E+00  0.66963658189E+02  0.66963658189E+02  0.00000000000E+00 0.  1.
          1   -1    0    0  501    0  0.00000000000E+00 -0.00000000000E+00 -0.36321493401E+03  0.36321493401E+03  0.00000000000E+00 0. -1.
         25    2    1    2    0    0  0.66723210102E+02  0.55668519928E+02 -0.25731029086E+03  0.29901298133E+03  0.12509678791E+03 0.  0.
          5    1    3    3  502    0  0.48796241912E+02 -0.22329086056E+02 -0.39031624392E+02  0.66487603443E+02  0.41800000000E+01 0.  1.
         -5    1    3    3    0  502  0.17926968190E+02  0.77997605984E+02 -0.21827866646E+03  0.23252537789E+03  0.41800000000E+01 0.  1.
        -11    1    1    2    0    0  0.10697770129E+01 -0.18883883085E+02  0.24741718301E+02  0.31143186859E+02  0.00000000000E+00 0.  1.
         11    1    1    2    0    0 -0.67792987115E+02 -0.36784636843E+02 -0.63682703263E+02  0.10002242401E+03  0.00000000000E+00 0. -1.
</event>
<event>
 7    1  0.2384639E-009  0.9216111E+02  0.7561462E-02  0.1297701E+00
          1   -1    0    0  501    0  0.00000000000E+00  0.00000000000E+00  0.11301721308E+04  0.11301721308E+04  0.00000000000E+00 0. -1.
         -1   -1    0    0    0  501 -0.00000000000E+00 -0.00000000000E+00 -0.17744994332E+02  0.17744994332E+02  0.00000000000E+00 0.  1.
         25    2    1    2    0    0 -0.87473742542E+01 -0.44623554393E+01  0.99248646076E+03  0.10003863834E+04  0.12508841702E+03 0.  0.
          5    1    3    3  502    0 -0.64780083320E+02 -0.97059555799E+00  0.65804067730E+03  0.66123551525E+03  0.41800000000E+01 0. -1.
         -5    1    3    3    0  502  0.56032709065E+02 -0.34917598813E+01  0.33444578346E+03  0.33915086812E+03  0.41800000000E+01 0. -1.
        -11    1    1    2    0    0  0.15520840381E+02  0.31561047726E+02  0.13808706197E+02  0.37784607799E+02  0.00000000000E+00 0.  1.
         11    1    1    2    0    0 -0.67734661268E+01 -0.27098692287E+02  0.10613196950E+03  0.10974613395E+03  0.00000000000E+00 0. -1.
</event>
<event>
 7    1  0.2384639E-009  0.9685026E+02  0.7561462E-02  0.1287062E+00
          2   -1    0    0  501    0  0.00000000000E+00  0.00000000000E+00  0.10894404907E+04  0.10894404907E+04  0.00000000000E+00 0. -1.
         -2   -1    0    0    0  501 -0.00000000000E+00 -0.00000000000E+00 -0.19710304710E+02  0.19710304710E+02  0.00000000000E+00 0.  1.
         25    2    1    2    0    0 -0.64380850775E+02  0.27370126485E+02  0.87032851994E+03  0.88205029563E+03  0.12508786360E+03 0.  0.
          5    1    3    3  502    0  0.10789440836E+02  0.15501129815E+01  0.60329250349E+03  0.60340544582E+03  0.41800000000E+01 0. -1.
         -5    1    3    3    0  502 -0.75170291611E+02  0.25820013504E+02  0.26703601646E+03  0.27864484980E+03  0.41800000000E+01 0. -1.
        -11    1    1    2    0    0  0.37231935193E+01 -0.40252918031E+02  0.11824858753E+03  0.12496754791E+03  0.00000000000E+00 0. -1.
         11    1    1    2    0    0  0.60657657256E+02  0.12882791545E+02  0.81153078473E+02  0.10213295182E+03  0.00000000000E+00 0.  1.
</event>
<event>
 7    1  0.2742517E-009  0.1407210E+03  0.7561462E-02  0.1212362E+00
         -2   -1    0    0    0  501 -0.00000000000E+00  0.00000000000E+00  0.26698542740E+03  0.26698542740E+03  0.00000000000E+00 0. -1.
          2   -1    0    0  501    0  0.00000000000E+00 -0.00000000000E+00 -0.13807455518E+03  0.13807455518E+03  0.00000000000E+00 0.  1.
         25    2    1    2    0    0  0.12380801205E+03 -0.61916299764E+02 -0.12623471390E+02  0.18699927132E+03  0.12508926181E+03 0.  0.
          5    1    3    3  502    0  0.94132671449E+02 -0.61319348914E+02 -0.62635810477E+02  0.12869242223E+03  0.41800000000E+01 0. -1.
         -5    1    3    3    0  502  0.29675340604E+02 -0.59695084944E+00  0.50012339088E+02  0.58306849094E+02  0.41800000000E+01 0. -1.
        -11    1    1    2    0    0 -0.77806167860E+02  0.31743151230E+02  0.13968733898E+03  0.16301527559E+03  0.00000000000E+00 0.  1.
         11    1    1    2    0    0 -0.46001844193E+02  0.30173148533E+02  0.18470046312E+01  0.55045435666E+02  0.00000000000E+00 0. -1.
</event>
<event>
 7    1  0.2384639E-009  0.2243786E+03  0.7561462E-02  0.1130660E+00
          3   -1    0    0  501    0  0.00000000000E+00  0.00000000000E+00  0.29888147111E+03  0.29888147111E+03  0.00000000000E+00 0. -1.
         -3   -1    0    0    0  501 -0.00000000000E+00 -0.00000000000E+00 -0.17307977331E+03  0.17307977331E+03  0.00000000000E+00 0.  1.
         25    2    1    2    0    0  0.17509017415E+03  0.91412908184E+02  0.29096199209E+02  0.23559829337E+03  0.12508828147E+03 0.  0.
          5    1    3    3  502    0  0.18262067694E+03  0.47217857059E+02  0.20823345744E+02  0.18981812822E+03  0.41800000000E+01 0. -1.
         -5    1    3    3    0  502 -0.75305027943E+01  0.44195051125E+02  0.82728534658E+01  0.45780165146E+02  0.41800000000E+01 0. -1.
        -11    1    1    2    0    0 -0.28880069849E+02  0.16569499028E+02  0.86868538032E+01  0.34410291506E+02  0.00000000000E+00 0.  1.
         11    1    1    2    0    0 -0.14621010430E+03 -0.10798240721E+03  0.88018644786E+02  0.20195265954E+03  0.00000000000E+00 0. -1.
</event>
<event>
 7    1  0.2384639E-009  0.1341004E+03  0.7561462E-02  0.1221495E+00
         -1   -1    0    0    0  501 -0.00000000000E+00  0.00000000000E+00  0.24317299056E+02  0.24317299056E+02  0.00000000000E+00 0.  1.
          1   -1    0    0  501    0  0.00000000000E+00 -0.00000000000E+00 -0.94882172154E+03  0.94882172154E+03  0.00000000000E+00 0. -1.
         25    2    1    2    0    0 -0.40180274727E+02 -0.97230022795E+02 -0.53470027350E+03  0.55912398818E+03  0.12508844819E+03 0.  0.
          5    1    3    3  502    0  0.30018740478E+02 -0.45722342033E+02 -0.35705876890E+03  0.36124796773E+03  0.41800000000E+01 0. -1.
         -5    1    3    3    0  502 -0.70199015205E+02 -0.51507680762E+02 -0.17764150460E+03  0.19787602045E+03  0.41800000000E+01 0. -1.
        -11    1    1    2    0    0 -0.14799080036E+02  0.37378778973E+00 -0.91516781305E+01  0.17404186273E+02  0.00000000000E+00 0.  1.
         11    1    1    2    0    0  0.54979354763E+02  0.96856235006E+02 -0.38065247085E+03  0.39661084614E+03  0.00000000000E+00 0. -1.
</event>
<event>
 7    1  0.2384639E-009  0.9284609E+02  0.7561462E-02  0.1296102E+00
         -1   -1    0    0    0  501 -0.00000000000E+00  0.00000000000E+00  0.25964549041E+02  0.25964549041E+02  0.00000000000E+00 0.  1.
          1   -1    0    0  501    0  0.00000000000E+00 -0.00000000000E+00 -0.70014407087E+03  0.70014407087E+03  0.00000000000E+00 0. -1.
         25    2    1    2    0    0 -0.28691145640E+02  0.72404964843E+01 -0.56720444357E+03  0.58159069537E+03  0.12510495397E+03 0.  0.
          5    1    3    3  502    0  0.37266091312E+02  0.32162249379E+02 -0.13719174339E+03  0.14581570115E+03  0.41800000000E+01 0. -1.
         -5    1    3    3    0  502 -0.65957236952E+02 -0.24921752895E+02 -0.43001270018E+03  0.43577499422E+03  0.41800000000E+01 0. -1.
        -11    1    1    2    0    0 -0.11154860850E+02  0.16018116147E+02  0.76429114611E+01  0.20962467915E+02  0.00000000000E+00 0.  1.
         11    1    1    2    0    0  0.39846006490E+02 -0.23258612632E+02 -0.11461798972E+03  0.12355545663E+03  0.00000000000E+00 0. -1.
</event>
<event>
 7    1  0.2384639E-009  0.7049773E+02  0.7561462E-02  0.1358409E+00
          2   -1    0    0  501    0  0.00000000000E+00  0.00000000000E+00  0.30584511664E+02  0.30584511664E+02  0.00000000000E+00 0. -1.
         -2   -1    0    0    0  501 -0.00000000000E+00 -0.00000000000E+00 -0.43664042794E+03  0.43664042794E+03  0.00000000000E+00 0.  1.
         25    2    1    2    0    0 -0.61050342745E+01  0.36088201838E+02 -0.25715722416E+03  0.28830044511E+03  0.12509068294E+03 0.  0.
          5    1    3    3  502    0 -0.22686860587E+02  0.30662026722E+02 -0.88918868041E+01  0.39387708450E+02  0.41800000000E+01 0.  1.
         -5    1    3    3    0  502  0.16581826313E+02  0.54261751161E+01 -0.24826533736E+03  0.24891273666E+03  0.41800000000E+01 0.  1.
        -11    1    1    2    0    0 -0.33114352437E+02 -0.27833572194E+01 -0.16961449441E+02  0.37309491847E+02  0.00000000000E+00 0. -1.
         11    1    1    2    0    0  0.39219386712E+02 -0.33304844619E+02 -0.13193724267E+03  0.14161500264E+03  0.00000000000E+00 0.  1.
</event>
<event>
 7    1  0.2384639E-009  0.1160058E+03  0.7561462E-02  0.1249836E+00
         -2   -1    0    0    0  501 -0.00000000000E+00  0.00000000000E+00  0.17331159750E+02  0.17331159750E+02  0.00000000000E+00 0.  1.
          2   -1    0    0  501    0  0.00000000000E+00 -0.00000000000E+00 -0.10613750526E+04  0.10613750526E+04  0.00000000000E+00 0. -1.
         25    2    1    2    0    0  0.51377121960E+02 -0.60074899095E+02 -0.55834567955E+03  0.57762133973E+03  0.12509161476E+03 0.  0.
          5    1    3    3  502    0  0.26279768889E+00  0.16498081256E+02 -0.66393745855E+01  0.18270452722E+02  0.41800000000E+01 0.  1.
         -5    1    3    3    0  502  0.51114324271E+02 -0.76572980351E+02 -0.55170630496E+03  0.55935088701E+03  0.41800000000E+01 0.  1.
        -11    1    1    2    0    0  0.15573818768E+02  0.53309362416E+02 -0.19990577275E+03  0.20747710701E+03  0.00000000000E+00 0.  1.
         11    1    1    2    0    0 -0.66950940728E+02  0.67655366785E+01 -0.28579244054E+03  0.29360776560E+03  0.00000000000E+00 0. -1.
</event>
<event>
 7    1  0.2384639E-009  0.3009862E+03  0.7561462E-02  0.1084749E+00
         -1   -1    0    0    0  501 -0.00000000000E+00  0.00000000000E+00  0.31310938720E+03  0.31310938720E+03  0.00000000000E+00 0.  1.
          1   -1    0    0  501    0  0.00000000000E+00 -0.00000000000E+00 -0.32362933492E+03  0.32362933492E+03  0.00000000000E+00 0. -1.
         25    2    1    2    0    0  0.29571556967E+03 -0.13323237488E+02 -0.47381945378E+02  0.32483238031E+03  0.12508325128E+03 0.  0.
          5    1    3    3  502    0  0.13155412439E+03 -0.12185830475E+02  0.40928266470E+02  0.13837477193E+03  0.41800000000E+01 0. -1.
         -5    1    3    3    0  502  0.16416144527E+03 -0.11374070129E+01 -0.88310211849E+02  0.18645760839E+03  0.41800000000E+01 0. -1.
        -11    1    1    2    0    0 -0.20463800183E+03 -0.26159027897E+02  0.48591913435E+02  0.21194853287E+03  0.00000000000E+00 0.  1.
         11    1    1    2    0    0 -0.91077567835E+02  0.39482265385E+02 -0.11729915779E+02  0.99957808934E+02  0.00000000000E+00 0. -1.
</event>
<event>
 7    1  0.2384639E-009  0.2129401E+03  0.7561462E-02  0.1139259E+00
         -2   -1    0    0    0  501 -0.00000000000E+00  0.00000000000E+00  0.35503599908E+02  0.35503599908E+02  0.00000000000E+00 0.  1.
          2   -1    0    0  501    0  0.00000000000E+00 -0.00000000000E+00 -0.13401889997E+04  0.13401889997E+04  0.00000000000E+00 0. -1.
         25    2    1    2    0    0  0.75398041552E+02 -0.16942987448E+03 -0.77585222246E+03  0.80745582270E+03  0.12508751927E+03 0.  0.
          5    1    3    3  502    0 -0.33224451396E+02 -0.56237581232E+02 -0.19047395706E+03  0.20140588480E+03  0.41800000000E+01 0.  1.
         -5    1    3    3    0  502  0.10862249295E+03 -0.11319229324E+03 -0.58537826540E+03  0.60604993790E+03  0.41800000000E+01 0.  1.
        -11    1    1    2    0    0 -0.19674280523E+02 -0.50649437307E+01 -0.25468878781E+02  0.32579053937E+02  0.00000000000E+00 0. -1.
         11    1    1    2    0    0 -0.55723761029E+02  0.17449481821E+03 -0.50336429851E+03  0.53565772294E+03  0.00000000000E+00 0.  1.
</event>
<event>
 7    1  0.2384639E-009  0.1095676E+03  0.7561462E-02  0.1261373E+00
         -2   -1    0    0    0  501 -0.00000000000E+00  0.00000000000E+00  0.28019217770E+03  0.28019217770E+03  0.00000000000E+00 0.  1.
          2   -1    0    0  501    0  0.00000000000E+00 -0.00000000000E+00 -0.52150272091E+02  0.52150272091E+02  0.00000000000E+00 0. -1.
         25    2    1    2    0    0 -0.33940539859E+02  0.95397139546E+01  0.18205870307E+03  0.22368721517E+03  0.12509049716E+03 0.  0.
          5    1    3    3  502    0  0.15653875395E+02 -0.46776234980E+02  0.42790473079E+02  0.65433607269E+02  0.41800000000E+01 0.  1.
         -5    1    3    3    0  502 -0.49594415254E+02  0.56315948935E+02  0.13926822999E+03  0.15825360790E+03  0.41800000000E+01 0.  1.
        -11    1    1    2    0    0  0.22768169130E+01  0.37610814918E+02  0.33688864998E+02  0.50544009724E+02  0.00000000000E+00 0.  1.
         11    1    1    2    0    0  0.31663722946E+02 -0.47150528873E+02  0.12294337542E+02  0.58111224900E+02  0.00000000000E+00 0. -1.
</event>
<event>
 7    1  0.2384639E-009  0.9598421E+02  0.7561462E-02  0.1288975E+00
          1   -1    0    0  501    0  0.00000000000E+00  0.00000000000E+00  0.23704408521E+03  0.23704408521E+03  0.00000000000E+00 0. -1.
         -1   -1    0    0    0  501 -0.00000000000E+00 -0.00000000000E+00 -0.52798485909E+02  0.52798485909E+02  0.00000000000E+00 0.  1.
         25    2    1    2    0    0 -0.14090595150E+02  0.15188363928E+02  0.95739613017E+02  0.15888100623E+03  0.12509144403E+03 0.  0.
          5    1    3    3  502    0 -0.15768949958E+02  0.69595706255E+02  0.62587594048E+02  0.95010007055E+02  0.41800000000E+01 0.  1.
         -5    1    3    3    0  502  0.16783548075E+01 -0.54407342326E+02  0.33152018968E+02  0.63870999175E+02  0.41800000000E+01 0.  1.
        -11    1    1    2    0    0  0.38757974782E+02 -0.45319413353E+01  0.95526075512E+02  0.10318890543E+03  0.00000000000E+00 0. -1.
         11    1    1    2    0    0 -0.24667379632E+02 -0.10656422593E+02 -0.70200892306E+01  0.27772659455E+02  0.00000000000E+00 0.  1.
</event>
<event>
 7    1  0.2384639E-009  0.1581064E+03  0.7561462E-02  0.1190851E+00
          1   -1    0    0  501    0  0.00000000000E+00  0.00000000000E+00  0.15909343245E+04  0.15909343245E+04  0.00000000000E+00 0. -1.
         -1   -1    0    0    0  501 -0.00000000000E+00 -0.00000000000E+00 -0.21991408620E+02  0.21991408620E+02  0.00000000000E+00 0.  1.
         25    2    1    2    0    0  0.21920265196E+02  0.13768644231E+03  0.10817150938E+04  0.10978135787E+04  0.12509618290E+03 0.  0.
          5    1    3    3  502    0  0.55927990696E+02  0.34013590972E+02  0.23139859105E+03  0.24051537343E+03  0.41800000000E+01 0. -1.
         -5    1    3    3    0  502 -0.34007725500E+02  0.10367285133E+03  0.85031650279E+03  0.85729820531E+03  0.41800000000E+01 0. -1.
        -11    1    1    2    0    0  0.83559207478E+00 -0.70346410336E+02  0.10538396539E+03  0.12670870460E+03  0.00000000000E+00 0.  1.
         11    1    1    2    0    0 -0.22755857271E+02 -0.67340031969E+02  0.38184385669E+03  0.38840344983E+03  0.00000000000E+00 0. -1.
</event>
<event>
 7    1  0.2384639E-009  0.1202082E+03  0.7561462E-02  0.1242754E+00
         -3   -1    0    0    0  501 -0.00000000000E+00  0.00000000000E+00  0.12754469774E+03  0.12754469774E+03  0.00000000000E+00 0.  1.
          3   -1    0    0  501    0  0.00000000000E+00 -0.00000000000E+00 -0.16304445695E+03  0.16304445695E+03  0.00000000000E+00 0. -1.
         25    2    1    2    0    0  0.15827289518E+02 -0.91285845431E+02 -0.41182825152E+02  0.16101669240E+03  0.12508693566E+03 0.  0.
          5    1    3    3  502    0 -0.30581588210E+02 -0.82790489341E+02 -0.63350554260E+02  0.10872103655E+03  0.41800000000E+01 0. -1.
         -5    1    3    3    0  502  0.46408877728E+02 -0.84953560896E+01  0.22167729108E+02  0.52295655851E+02  0.41800000000E+01 0. -1.
        -11    1    1    2    0    0 -0.33391000051E+02  0.65097820142E+02  0.39658253318E+02  0.83219361497E+02  0.00000000000E+00 0.  1.
         11    1    1    2    0    0  0.17563710533E+02  0.26188025289E+02 -0.33975187381E+02  0.46353100800E+02  0.00000000000E+00 0. -1.
</event>
<event>
 7    1  0.2384639E-009  0.1004661E+03  0.7561462E-02  0.1279319E+00
         -2   -1    0    0    0  501 -0.00000000000E+00  0.00000000000E+00  0.25808972503E+02  0.25808972503E+02  0.00000000000E+00 0.  1.
          2   -1    0    0  501    0  0.00000000000E+00 -0.00000000000E+00 -0.62233532068E+03  0.62233532068E+03  0.00000000000E+00 0. -1.
         25    2    1    2    0    0 -0.28143237545E+02  0.56281717530E+02 -0.37014699492E+03  0.39574770863E+03  0.12509107676E+03 0.  0.
          5    1    3    3  502    0 -0.69402279036E+02  0.27963596717E+02 -0.30162291320E+03  0.31079332883E+03  0.41800000000E+01 0. -1.
         -5    1    3    3    0  502  0.41259041491E+02  0.28318120813E+02 -0.68524081723E+02  0.84954379799E+02  0.41800000000E+01 0. -1.
        -11    1    1    2    0    0  0.18453146442E+01 -0.48239587509E+02 -0.21852936303E+03  0.22379800154E+03  0.00000000000E+00 0. -1.
         11    1    1    2    0    0  0.26297922900E+02 -0.80421300206E+01 -0.78499902350E+01  0.28598583021E+02  0.00000000000E+00 0.  1.
</event>
<event>
 7    1  0.2384639E-009  0.1616344E+03  0.7561462E-02  0.1186864E+00
          2   -1    0    0  501    0  0.00000000000E+00  0.00000000000E+00  0.13207204508E+04  0.13207204508E+04  0.00000000000E+00 0. -1.
         -2   -1    0    0    0  501 -0.00000000000E+00 -0.00000000000E+00 -0.26249191348E+02  0.26249191348E+02  0.00000000000E+00 0.  1.
         25    2    1    2    0    0  0.15035346378E+03  0.31148549288E+01  0.71740089426E+03  0.74359132624E+03  0.12509256967E+03 0.  0.
          5    1    3    3  502    0  0.70035318617E+02  0.15700525780E+02  0.11436876447E+03  0.13508937430E+03  0.41800000000E+01 0.  1.
         -5    1    3    3    0  502  0.80318145162E+02 -0.12585670851E+02  0.60303212979E+03  0.60850195194E+03  0.41800000000E+01 0.  1.
        -11    1    1    2    0    0 -0.90617041581E+02 -0.40756942931E+02  0.25533390339E+03  0.27398536246E+03  0.00000000000E+00 0.  1.
         11    1    1    2    0    0 -0.59736422199E+02  0.37642088002E+02  0.32173646175E+03  0.32939295339E+03  0.00000000000E+00 0. -1.
</event>
<event>
 7    1  0.2384639E-009  0.1435643E+03  0.7561462E-02  0.1208612E+00
         -2   -1    0    0    0  501 -0.00000000000E+00  0.00000000000E+00  0.34272848678E+02  0.34272848678E+02  0.00000000000E+00 0.  1.
          2   -1    0    0  501    0  0.00000000000E+00 -0.00000000000E+00 -0.94833225465E+03  0.94833225465E+03  0.00000000000E+00 0. -1.
         25    2    1    2    0    0  0.11756718937E+03  0.77857277807E+02 -0.41560550569E+03  0.45635299219E+03  0.12508524049E+03 0.  0.
          5    1    3    3  502    0  0.59776121483E+02  0.61578148299E+02 -0.86981959282E+02  0.12226359511E+03  0.41800000000E+01 0.  1.
         -5    1    3    3    0  502  0.57791067888E+02  0.16279129508E+02 -0.32862354641E+03  0.33408939708E+03  0.41800000000E+01 0.  1.
        -11    1    1    2    0    0 -0.95683857061E+02 -0.62519066336E+02 -0.48085909444E+03  0.49425651525E+03  0.00000000000E+00 0. -1.
         11    1    1    2    0    0 -0.21883332310E+02 -0.15338211471E+02 -0.17594805835E+02  0.31995595893E+02  0.00000000000E+00 0.  1.
</event>
<event>
 7    1  0.2384639E-009  0.9876552E+02  0.7561462E-02  0.1282914E+00
          4   -1    0    0  501    0  0.00000000000E+00  0.00000000000E+00  0.33382994144E+02  0.33382994144E+02  0.00000000000E+00 0.  1.
         -4   -1    0    0    0  501 -0.00000000000E+00 -0.00000000000E+00 -0.46516028399E+03  0.46516028399E+03  0.00000000000E+00 0. -1.
         25    2    1    2    0    0  0.18670995947E+02  0.48971619240E+02 -0.32283235489E+03  0.35016467733E+03  0.12509095214E+03 0.  0.
          5    1    3    3  502    0 -0.21765019655E+02 -0.32661942866E+02 -0.58738632006E+02  0.70768763464E+02  0.41800000000E+01 0.  1.
         -5    1    3    3    0  502  0.40436015602E+02  0.81633562106E+02 -0.26409372288E+03  0.27939591387E+03  0.41800000000E+01 0.  1.
        -11    1    1    2    0    0  0.48088915101E+01 -0.42136212075E+02 -0.63173673682E+01  0.42877674098E+02  0.00000000000E+00 0.  1.
         11    1    1    2    0    0 -0.23479887457E+02 -0.68354071648E+01 -0.10262756759E+03  0.10550092671E+03  0.00000000000E+00 0. -1.
</event>
<event>
 7    1  0.2384639E-009  0.9871980E+02  0.7561462E-02  0.1283011E+00
          2   -1    0    0  501    0  0.00000000000E+00  0.00000000000E+00  0.10454809655E+02  0.10454809655E+02  0.00000000000E+00 0. -1.
         -2   -1    0    0    0  501 -0.00000000000E+00 -0.00000000000E+00 -0.14394276537E+04  0.14394276537E+04  0.00000000000E+00 0.  1.
         25    2    1    2    0    0  0.43544049088E+02  0.21811736935E+02 -0.11591521616E+04  0.11668992547E+04  0.12509316807E+03 0.  0.
          5    1    3    3  502    0  0.73196038448E+02  0.33044265133E+02 -0.10521709906E+04  0.10552397118E+04  0.41800000000E+01 0.  1.
         -5    1    3    3    0  502 -0.29651989359E+02 -0.11232528198E+02 -0.10698117106E+03  0.11165954292E+03  0.41800000000E+01 0.  1.
        -11    1    1    2    0    0  0.19226777119E+02 -0.76348959598E+01 -0.75585773398E+02  0.78365615769E+02  0.00000000000E+00 0.  1.
         11    1    1    2    0    0 -0.62770826207E+02 -0.14176840975E+02 -0.19423490900E+03  0.20461759288E+03  0.00000000000E+00 0. -1.
</event>
<event>
 7    1  0.2384639E-009  0.9134297E+02  0.7561462E-02  0.1299632E+00
         -1   -1    0    0    0  501 -0.00000000000E+00  0.00000000000E+00  0.43680568895E+02  0.43680568895E+02  0.00000000000E+00 0.  1.
          1   -1    0    0  501    0  0.00000000000E+00 -0.00000000000E+00 -0.31161006514E+03  0.31161006514E+03  0.00000000000E+00 0. -1.
         25    2    1    2    0    0  0.17390981423E+02  0.34060791451E+02 -0.11890027817E+03  0.17676959059E+03  0.12509048029E+03 0.  0.
          5    1    3    3  502    0  0.32526471906E+02 -0.19768012488E+02  0.70196849314E+01  0.38929347142E+02  0.41800000000E+01 0. -1.
         -5    1    3    3    0  502 -0.15135490483E+02  0.53828803939E+02 -0.12591996310E+03  0.13784024344E+03  0.41800000000E+01 0. -1.
        -11    1    1    2    0    0  0.31595139177E+02 -0.70090537703E+01 -0.96452645089E+02  0.10173736973E+03  0.00000000000E+00 0. -1.
         11    1    1    2    0    0 -0.48986120599E+02 -0.27051737681E+02 -0.52576572982E+02  0.76783673717E+02  0.00000000000E+00 0.  1.
</event>
<event>
 7    1  0.2384639E-009  0.1131992E+03  0.7561462E-02  0.1254758E+00
         -1   -1    0    0    0  501 -0.00000000000E+00  0.00000000000E+00  0.57591934108E+02  0.57591934108E+02  0.00000000000E+00 0.  1.
          1   -1    0    0  501    0  0.00000000000E+00 -0.00000000000E+00 -0.37420368347E+03  0.37420368347E+03  0.00000000000E+00 0. -1.
         25    2    1    2    0    0  0.57574550126E+02 -0.68769676897E+02 -0.11271017219E+03  0.19077450248E+03  0.12508889079E+03 0.  0.
          5    1    3    3  502    0  0.30110021382E+02 -0.73881887935E+01 -0.11905908528E+03  0.12310051547E+03  0.41800000000E+01 0. -1.
         -5    1    3    3    0  502  0.27464528744E+02 -0.61381488103E+02  0.63489130859E+01  0.67673987013E+02  0.41800000000E+01 0. -1.
        -11    1    1    2    0    0 -0.75417424624E+02  0.23364256119E+02 -0.13856784690E+03  0.15948267804E+03  0.00000000000E+00 0.  1.
         11    1    1    2    0    0  0.17842874498E+02  0.45405420778E+02 -0.65333730278E+02  0.81538437061E+02  0.00000000000E+00 0. -1.
</event>
<event>
 7    1  0.2384639E-009  0.1102975E+03  0.7561462E-02  0.1260020E+00
         -2   -1    0    0    0  501 -0.00000000000E+00  0.00000000000E+00  0.87478338722E+02  0.87478338722E+02  0.00000000000E+00 0.  1.
          2   -1    0    0  501    0  0.00000000000E+00 -0.00000000000E+00 -0.35116594997E+03  0.35116594997E+03  0.00000000000E+00 0. -1.
         25    2    1    2    0    0  0.27441748120E+01 -0.19364113809E+02  0.30002558058E+02  0.13011583685E+03  0.12508988013E+03 0.  0.
          5    1    3    3  502    0 -0.58769254186E+02 -0.25886910807E+02  0.11143400911E+02  0.65311600597E+02  0.41800000000E+01 0. -1.
         -5    1    3    3    0  502  0.61513428998E+02  0.65227969981E+01  0.18859157147E+02  0.64804236251E+02  0.41800000000E+01 0. -1.
        -11    1    1    2    0    0  0.27887713175E+02 -0.26905705910E+02 -0.10907409987E+03  0.11575318924E+03  0.00000000000E+00 0. -1.
         11    1    1    2    0    0 -0.30631887987E+02  0.46269819719E+02 -0.18461606944E+03  0.19277526260E+03  0.00000000000E+00 0.  1.
</event>
<event>
 7    1  0.2384639E-009  0.1187976E+03  0.7561462E-02  0.1245094E+00
         -3   -1    0    0    0  501 -0.00000000000E+00  0.00000000000E+00  0.28755398267E+03  0.28755398267E+03  0.00000000000E+00 0.  1.
          3   -1    0    0  501    0  0.00000000000E+00 -0.00000000000E+00 -0.50939877893E+02  0.50939877893E+02  0.00000000000E+00 0. -1.
         25    2    1    2    0    0 -0.52602281147E+02 -0.64283410959E+01  0.13318709905E+03  0.19024726923E+03  0.12508755551E+03 0.  0.
          5    1    3    3  502    0 -0.16067032866E+01 -0.59727499729E+02  0.43382410445E+02  0.73955808800E+02  0.41800000000E+01 0.  1.
         -5    1    3    3    0  502 -0.50995577860E+02  0.53299158633E+02  0.89804688606E+02  0.11629146043E+03  0.41800000000E+01 0.  1.
        -11    1    1    2    0    0 -0.23924385463E+02  0.12602874382E+02  0.41860141944E+02  0.49834527649E+02  0.00000000000E+00 0.  1.
         11    1    1    2    0    0  0.76526666610E+02 -0.61745332863E+01  0.61566863787E+02  0.98412063693E+02  0.00000000000E+00 0. -1.
</event>
<event>
 7    1  0.2384639E-009  0.2118043E+03  0.7561462E-02  0.1140145E+00
         -1   -1    0    0    0  501 -0.00000000000E+00  0.00000000000E+00  0.13373150700E+03  0.13373150700E+03  0.00000000000E+00 0.  1.
          1   -1    0    0  501    0  0.00000000000E+00 -0.00000000000E+00 -0.38372070213E+03  0.38372070213E+03  0.00000000000E+00 0. -1.
         25    2    1    2    0    0 -0.17914978157E+03 -0.50301219128E+02 -0.46875900402E+02  0.22906257187E+03  0.12508978739E+03 0.  0.
          5    1    3    3  502    0 -0.14825063951E+03 -0.86112364343E+02 -0.15600389148E+02  0.17220463393E+03  0.41800000000E+01 0. -1.
         -5    1    3    3    0  502 -0.30899142066E+02  0.35811145215E+02 -0.31275511254E+02  0.56857937935E+02  0.41800000000E+01 0. -1.
        -11    1    1    2    0    0 -0.44516088904E+01  0.17579346233E+02 -0.20636416499E+02  0.27472020705E+02  0.00000000000E+00 0. -1.
         11    1    1    2    0    0  0.18360139046E+03  0.32721872895E+02 -0.18247687823E+03  0.26091761656E+03  0.00000000000E+00 0.  1.
</event>
<event>
 7    1  0.2384639E-009  0.1011955E+03  0.7561462E-02  0.1277802E+00
         -2   -1    0    0    0  501 -0.00000000000E+00  0.00000000000E+00  0.21811438596E+02  0.21811438596E+02  0.00000000000E+00 0.  1.
          2   -1    0    0  501    0  0.00000000000E+00 -0.00000000000E+00 -0.57680727496E+03  0.57680727496E+03  0.00000000000E+00 0. -1.
         25    2    1    2    0    0 -0.14963627922E+02 -0.62765111830E+01 -0.38946582069E+03  0.40938195675E+03  0.12508659510E+03 0.  0.
          5    1    3    3  502    0 -0.67248080455E+02  0.13241976098E+02 -0.18276713246E+03  0.19524075232E+03  0.41800000000E+01 0.  1.
         -5    1    3    3    0  502  0.52284452533E+02 -0.19518487281E+02 -0.20669868822E+03  0.21414120443E+03  0.41800000000E+01 0.  1.
        -11    1    1    2    0    0 -0.56135661839E+01  0.38837436809E+02 -0.13347964028E+03  0.13912826094E+03  0.00000000000E+00 0. -1.
         11    1    1    2    0    0  0.20577194106E+02 -0.32560925626E+02 -0.32050375392E+02  0.50108495863E+02  0.00000000000E+00 0.  1.
</event>
<event>
 7    1  0.2384639E-009  0.9685771E+02  0.7561462E-02  0.1287046E+00
         -1   -1    0    0    0  501 -0.00000000000E+00  0.00000000000E+00  0.18502813870E+03  0.18502813870E+03  0.00000000000E+00 0.  1.
          1   -1    0    0  501    0  0.00000000000E+00 -0.00000000000E+00 -0.10634260825E+03  0.10634260825E+03  0.00000000000E+00 0. -1.
         25    2    1    2    0    0  0.66955110638E+02  0.10377236540E+02 -0.15729673189E+02  0.14312809962E+03  0.12509019308E+03 0.  0.
          5    1    3    3  502    0  0.65480676064E+02 -0.11576929066E+02 -0.62448347181E+02  0.91318194737E+02  0.41800000000E+01 0. -1.
         -5    1    3    3    0  502  0.14744345735E+01  0.21954165606E+02  0.46718673992E+02  0.51809904887E+02  0.41800000000E+01 0. -1.
        -11    1    1    2    0    0 -0.71707438000E+02  0.19601114071E+02  0.36409894362E+02  0.82775846385E+02  0.00000000000E+00 0. -1.
         11    1    1    2    0    0  0.47523273618E+01 -0.29978350611E+02  0.58005309274E+02  0.65466800935E+02  0.00000000000E+00 0.  1.
</event>
<event>
 7    1  0.2384639E-009  0.1525546E+03  0.7561462E-02  0.1197369E+00
          1   -1    0    0  501    0  0.00000000000E+00  0.00000000000E+00  0.17978075920E+03  0.17978075920E+03  0.00000000000E+00 0. -1.
         -1   -1    0    0    0  501 -0.00000000000E+00 -0.00000000000E+00 -0.19192368832E+03  0.19192368832E+03  0.00000000000E+00 0.  1.
         25    2    1    2    0    0 -0.39397164340E+02  0.13625973029E+03 -0.54440315477E+02  0.19679926557E+03  0.12508937734E+03 0.  0.
          5    1    3    3  502    0 -0.24562753765E+02  0.83840597118E+01  0.32200848734E+02  0.41569079722E+02  0.41800000000E+01 0.  1.
         -5    1    3    3    0  502 -0.14834410575E+02  0.12787567058E+03 -0.86641164211E+02  0.15523018585E+03  0.41800000000E+01 0.  1.
        -11    1    1    2    0    0 -0.10354374045E+02 -0.10365510634E+02  0.36592672655E+02  0.39416754871E+02  0.00000000000E+00 0. -1.
         11    1    1    2    0    0  0.49751538385E+02 -0.12589421965E+03  0.57047136985E+01  0.13548842708E+03  0.00000000000E+00 0.  1.
</event>
<event>
 7    1  0.2384639E-009  0.9498094E+02  0.7561462E-02  0.1291219E+00
         -1   -1    0    0    0  501 -0.00000000000E+00  0.00000000000E+00  0.99753253975E+02  0.99753253975E+02  0.00000000000E+00 0.  1.
          1   -1    0    0  501    0  0.00000000000E+00 -0.00000000000E+00 -0.17536358171E+03  0.17536358171E+03  0.00000000000E+00 0. -1.
         25    2    1    2    0    0  0.43223198998E+02 -0.43271420113E+02  0.57075535382E+01  0.13934957788E+03  0.12508024607E+03 0.  0.
          5    1    3    3  502    0  0.10291683126E+02  0.12318116391E+02  0.55337311866E+02  0.57769760408E+02  0.41800000000E+01 0. -1.
         -5    1    3    3    0  502  0.32931515872E+02 -0.55589536504E+02 -0.49629758328E+02  0.81579817468E+02  0.41800000000E+01 0. -1.
        -11    1    1    2    0    0  0.10398676810E+02 -0.21893473142E+02 -0.15850926069E+02  0.28960464480E+02  0.00000000000E+00 0. -1.
         11    1    1    2    0    0 -0.53621875809E+02  0.65164893255E+02 -0.65466955209E+02  0.10680679333E+03  0.00000000000E+00 0.  1.
</event>
<event>
 7    1  0.2384639E-009  0.1104942E+03  0.7561462E-02  0.1259657E+00
          2   -1    0    0  501    0  0.00000000000E+00  0.00000000000E+00  0.14995567522E+03  0.14995567522E+03  0.00000000000E+00 0. -1.
         -2   -1    0    0    0  501 -0.00000000000E+00 -0.00000000000E+00 -0.12186051248E+03  0.12186051248E+03  0.00000000000E+00 0.  1.
         25    2    1    2    0    0 -0.47665169915E+02  0.34130823748E+02 -0.40582389061E+02  0.14398350421E+03  0.12508971833E+03 0.  0.
          5    1    3    3  502    0  0.21637050028E+02 -0.34127242759E+02 -0.15122250574E+02  0.43347266288E+02  0.41800000000E+01 0.  1.
         -5    1    3    3    0  502 -0.69302219943E+02  0.68258066507E+02 -0.25460138487E+02  0.10063623793E+03  0.41800000000E+01 0.  1.
        -11    1    1    2    0    0  0.13308617251E+02 -0.45032124641E+02  0.77598768348E+02  0.90700498301E+02  0.00000000000E+00 0. -1.
         11    1    1    2    0    0  0.34356552664E+02  0.10901300894E+02 -0.89212165497E+01  0.37132185188E+02  0.00000000000E+00 0.  1.
</event>
<event>
 7    1  0.2384639E-009  0.1541105E+03  0.7561462E-02  0.1195511E+00
          2   -1    0    0  501    0  0.00000000000E+00  0.00000000000E+00  0.12326301175E+04  0.12326301175E+04  0.00000000000E+00 0.  1.
         -2   -1    0    0    0  501 -0.00000000000E+00 -0.00000000000E+00 -0.27161233590E+02  0.27161233590E+02  0.00000000000E+00 0. -1.
         25    2    1    2    0    0  0.29757604143E+01 -0.14301126819E+03  0.78454287608E+03  0.80722707055E+03  0.12508773338E+03 0.  0.
          5    1    3    3  502    0  0.10534929340E+02 -0.30540355416E+02  0.50117439289E+03  0.50223196089E+03  0.41800000000E+01 0. -1.
         -5    1    3    3    0  502 -0.75591689260E+01 -0.11247091277E+03  0.28336848318E+03  0.30499510966E+03  0.41800000000E+01 0. -1.
        -11    1    1    2    0    0  0.20654958416E+02  0.13688072106E+03  0.38497980347E+03  0.40911173068E+03  0.00000000000E+00 0.  1.
         11    1    1    2    0    0 -0.23630718831E+02  0.61305471261E+01  0.35946204333E+02  0.43452549827E+02  0.00000000000E+00 0. -1.
</event>
<event>
 7    1  0.2384639E-009  0.1211115E+03  0.7561462E-02  0.1241275E+00
         -1   -1    0    0    0  501 -0.00000000000E+00  0.00000000000E+00  0.29662107719E+02  0.29662107719E+02  0.00000000000E+00 0.  1.
          1   -1    0    0  501    0  0.00000000000E+00 -0.00000000000E+00 -0.78605453860E+03  0.78605453860E+03  0.00000000000E+00 0. -1.
         25    2    1    2    0    0  0.10242281616E+03 -0.36258700609E+02 -0.38442888963E+03  0.41861435297E+03  0.12508908301E+03 0.  0.
          5    1    3    3  502    0  0.30426713130E+02 -0.84274123085E+01 -0.60465866490E+01  0.32416658684E+02  0.41800000000E+01 0.  1.
         -5    1    3    3    0  502  0.71996103032E+02 -0.27831288300E+02 -0.37838230298E+03  0.38619769428E+03  0.41800000000E+01 0.  1.
        -11    1    1    2    0    0 -0.72423565183E+02  0.60607089135E+02 -0.31013313948E+03  0.32419277637E+03  0.00000000000E+00 0. -1.
         11    1    1    2    0    0 -0.29999250979E+02 -0.24348388526E+02 -0.61830401767E+02  0.72909516977E+02  0.00000000000E+00 0.  1.
</event>
<event>
 7    1  0.2384639E-009  0.1569232E+03  0.7561462E-02  0.1192215E+00
          4   -1    0    0  501    0  0.00000000000E+00  0.00000000000E+00  0.26526955981E+02  0.26526955981E+02  0.00000000000E+00 0. -1.
         -4   -1    0    0    0  501 -0.00000000000E+00 -0.00000000000E+00 -0.10415963317E+04  0.10415963317E+04  0.00000000000E+00 0.  1.
         25    2    1    2    0    0  0.14698227578E+02  0.12419330492E+03 -0.59134751602E+03  0.61723634987E+03  0.12509521183E+03 0.  0.
          5    1    3    3  502    0  0.54830463673E+02  0.31038111546E+02 -0.34601243473E+03  0.35172691325E+03  0.41800000000E+01 0.  1.
         -5    1    3    3    0  502 -0.40132236095E+02  0.93155193370E+02 -0.24533508128E+03  0.26550943662E+03  0.41800000000E+01 0.  1.
        -11    1    1    2    0    0  0.33950792596E+02 -0.48384941284E+02 -0.22621195567E+03  0.23380677438E+03  0.00000000000E+00 0.  1.
         11    1    1    2    0    0 -0.48649020174E+02 -0.75808363633E+02 -0.19750990400E+03  0.21708016340E+03  0.00000000000E+00 0. -1.
</event>
<event>
 7    1  0.2384639E-009  0.1068715E+03  0.7561462E-02  0.1266476E+00
          2   -1    0    0  501    0  0.00000000000E+00  0.00000000000E+00  0.73565562728E+03  0.73565562728E+03  0.00000000000E+00 0. -1.
         -2   -1    0    0    0  501 -0.00000000000E+00 -0.00000000000E+00 -0.28502233343E+02  0.28502233343E+02  0.00000000000E+00 0.  1.
         25    2    1    2    0    0 -0.57575190761E+01  0.10151770975E+03  0.48210382105E+03  0.50834048771E+03  0.12508782019E+03 0.  0.
          5    1    3    3  502    0 -0.15474496660E+02  0.87364205505E+02  0.48255856664E+03  0.49066506609E+03  0.41800000000E+01 0.  1.
         -5    1    3    3    0  502  0.97169775843E+01  0.14153504250E+02 -0.45474558813E+00  0.17675421621E+02  0.41800000000E+01 0.  1.
        -11    1    1    2    0    0  0.14441286200E+02 -0.95734459871E+02  0.22546751043E+03  0.24537570339E+03  0.00000000000E+00 0. -1.
         11    1    1    2    0    0 -0.86837671242E+01 -0.57832498834E+01 -0.41793753666E+00  0.10441669525E+02  0.00000000000E+00 0.  1.
</event>
<event>
 7    1  0.2384639E-009  0.1564105E+03  0.7561462E-02  0.1192810E+00
          1   -1    0    0  501    0  0.00000000000E+00  0.00000000000E+00  0.27000428535E+02  0.27000428535E+02  0.00000000000E+00 0. -1.
         -1   -1    0    0    0  501 -0.00000000000E+00 -0.00000000000E+00 -0.98610616582E+03  0.98610616582E+03  0.00000000000E+00 0.  1.
         25    2    1    2    0    0  0.30781657601E+02 -0.11750443416E+03 -0.48189451431E+03  0.51246761416E+03  0.12508369256E+03 0.  0.
          5    1    3    3  502    0  0.26409496231E+02  0.14085441350E+02 -0.33470137690E+02  0.45095273213E+02  0.41800000000E+01 0.  1.
         -5    1    3    3    0  502  0.43721613701E+01 -0.13158987551E+03 -0.44842437662E+03  0.46737234094E+03  0.41800000000E+01 0.  1.
        -11    1    1    2    0    0  0.13068569100E+02  0.10424325413E+03 -0.35014763517E+03  0.36556915891E+03  0.00000000000E+00 0. -1.
         11    1    1    2    0    0 -0.43850226700E+02  0.13261180028E+02 -0.12706358780E+03  0.13506982129E+03  0.00000000000E+00 0.  1.
</event>
<event>
 7    1  0.2384639E-009  0.9975096E+02  0.7561462E-02  0.1280821E+00
          3   -1    0    0  501    0  0.00000000000E+00  0.00000000000E+00  0.18181126276E+03  0.18181126276E+03  0.00000000000E+00 0. -1.
         -3   -1    0    0    0  501 -0.00000000000E+00 -0.00000000000E+00 -0.86681234706E+02  0.86681234706E+02  0.00000000000E+00 0.  1.
         25    2    1    2    0    0  0.28226454387E+00 -0.58399643339E+02  0.35934646928E+02  0.14264440680E+03  0.12508209275E+03 0.  0.
          5    1    3    3  502    0  0.22447365588E+02  0.78788030705E+01 -0.35294610045E+02  0.42768465694E+02  0.41800000000E+01 0. -1.
         -5    1    3    3    0  502 -0.22165101044E+02 -0.66278446409E+02  0.71229256972E+02  0.99875941105E+02  0.41800000000E+01 0. -1.
        -11    1    1    2    0    0 -0.43921748988E+02  0.31858249784E+02  0.50329143235E+02  0.74007369716E+02  0.00000000000E+00 0. -1.
         11    1    1    2    0    0  0.43639484444E+02  0.26541393555E+02  0.88662378906E+01  0.51840720951E+02  0.00000000000E+00 0.  1.
</event>
<event>
 7    1  0.2384639E-009  0.2021703E+03  0.7561462E-02  0.1147921E+00
         -2   -1    0    0    0  501 -0.00000000000E+00  0.00000000000E+00  0.64411024783E+02  0.64411024783E+02  0.00000000000E+00 0. -1.
          2   -1    0    0  501    0  0.00000000000E+00 -0.00000000000E+00 -0.75965165766E+03  0.75965165766E+03  0.00000000000E+00 0.  1.
         25    2    1    2    0    0 -0.14764351801E+03  0.11793309249E+03 -0.41782841776E+03  0.47532577135E+03  0.12508868655E+03 0.  0.
          5    1    3    3  502    0 -0.26886699947E+02  0.82684664191E+02 -0.95106399738E+02  0.12892768515E+03  0.41800000000E+01 0.  1.
         -5    1    3    3    0  502 -0.12075681807E+03  0.35248428300E+02 -0.32272201802E+03  0.34639808620E+03  0.41800000000E+01 0.  1.
        -11    1    1    2    0    0  0.13177391718E+03 -0.11578250034E+03 -0.28197573904E+03  0.33208473323E+03  0.00000000000E+00 0.  1.
         11    1    1    2    0    0  0.15869600833E+02 -0.21505921473E+01  0.45635239222E+01  0.16652177868E+02  0.00000000000E+00 0. -1.
</event>
<event>
 7    1  0.2384639E-009  0.1221526E+03  0.7561462E-02  0.1239588E+00
         -2   -1    0    0    0  501 -0.00000000000E+00  0.00000000000E+00  0.34667165326E+02  0.34667165326E+02  0.00000000000E+00 0.  1.
          2   -1    0    0  501    0  0.00000000000E+00 -0.00000000000E+00 -0.91780277192E+03  0.91780277192E+03  0.00000000000E+00 0. -1.
         25    2    1    2    0    0  0.95666827982E+02  0.66796228925E+02 -0.68732958886E+03  0.70829598612E+03  0.12508941626E+03 0.  0.
          5    1    3    3  502    0  0.78901482270E+02  0.57358733510E+02 -0.22166547033E+03  0.24221585693E+03  0.41800000000E+01 0.  1.
         -5    1    3    3    0  502  0.16765345712E+02  0.94374954157E+01 -0.46566411853E+03  0.46608012919E+03  0.41800000000E+01 0.  1.
        -11    1    1    2    0    0 -0.66307079916E+02 -0.15842617930E+02 -0.43399546673E+02  0.80815456698E+02  0.00000000000E+00 0.  1.
         11    1    1    2    0    0 -0.29359748066E+02 -0.50953610995E+02 -0.15240647106E+03  0.16335849442E+03  0.00000000000E+00 0. -1.
</event>
<event>
 7    1  0.2384639E-009  0.1182683E+03  0.7561462E-02  0.1245982E+00
         -1   -1    0    0    0  501 -0.00000000000E+00  0.00000000000E+00  0.73325242192E+03  0.73325242192E+03  0.00000000000E+00 0.  1.
          1   -1    0    0  501    0  0.00000000000E+00 -0.00000000000E+00 -0.33385384638E+02  0.33385384638E+02  0.00000000000E+00 0. -1.
         25    2    1    2    0    0 -0.20991983889E+02  0.99537375333E+02  0.50065835419E+03  0.52597904738E+03  0.12508724230E+03 0.  0.
          5    1    3    3  502    0 -0.10273053044E+02  0.32881108854E+02  0.41679171608E+03  0.41823379817E+03  0.41800000000E+01 0.  1.
         -5    1    3    3    0  502 -0.10718930845E+02  0.66656266479E+02  0.83866638112E+02  0.10774524921E+03  0.41800000000E+01 0.  1.
        -11    1    1    2    0    0  0.40618895815E+02 -0.10601107601E+03  0.17737680943E+03  0.21059623799E+03  0.00000000000E+00 0.  1.
         11    1    1    2    0    0 -0.19626911926E+02  0.64737006790E+01  0.21831873654E+02  0.30062521177E+02  0.00000000000E+00 0. -1.
</event>
<event>
 7    1  0.2384639E-009  0.9463936E+02  0.7561462E-02  0.1291990E+00
          1   -1    0    0  501    0  0.00000000000E+00  0.00000000000E+00  0.13892942590E+03  0.13892942590E+03  0.00000000000E+00 0. -1.
         -1   -1    0    0    0  501 -0.00000000000E+00 -0.00000000000E+00 -0.12593461866E+03  0.12593461866E+03  0.00000000000E+00 0.  1.
         25    2    1    2    0    0 -0.56892653305E+02  0.45423966885E+02  0.27783549998E+02  0.14737450523E+03  0.12508880195E+03 0.  0.
          5    1    3    3  502    0 -0.68642660794E+02  0.19720006623E+02  0.67560869696E+02  0.98400391545E+02  0.41800000000E+01 0.  1.
         -5    1    3    3    0  502  0.11750007489E+02  0.25703960262E+02 -0.39777319698E+02  0.48974113688E+02  0.41800000000E+01 0.  1.
        -11    1    1    2    0    0  0.21579553912E+02 -0.49130237873E+02 -0.45645363138E+02  0.70448254744E+02  0.00000000000E+00 0.  1.
         11    1    1    2    0    0  0.35313099393E+02  0.37062709885E+01  0.30856620384E+02  0.47041284580E+02  0.00000000000E+00 0. -1.
</event>
<event>
 7    1  0.2384639E-009  0.1223585E+03  0.7561462E-02  0.1239256E+00
          2   -1    0    0  501    0  0.00000000000E+00  0.00000000000E+00  0.32457227155E+03  0.32457227155E+03  0.00000000000E+00 0.  1.
         -2   -1    0    0    0  501 -0.00000000000E+00 -0.00000000000E+00 -0.60085084086E+02  0.60085084086E+02  0.00000000000E+00 0. -1.
         25    2    1    2    0    0  0.70567436381E+02  0.49640524983E+02  0.16545176100E+03  0.22464262858E+03  0.12508429382E+03 0.  0.
          5    1    3    3  502    0  0.11366303864E+02 -0.29064802055E+02 -0.64986744722E+00  0.31493655071E+02  0.41800000000E+01 0. -1.
         -5    1    3    3    0  502  0.59201132518E+02  0.78705327038E+02  0.16610162845E+03  0.19314897351E+03  0.41800000000E+01 0. -1.
        -11    1    1    2    0    0 -0.49214786596E+02 -0.69723450702E+02  0.98992143443E+02  0.13070156564E+03  0.00000000000E+00 0.  1.
         11    1    1    2    0    0 -0.21352649786E+02  0.20082925720E+02  0.43283015638E-01  0.29313161408E+02  0.00000000000E+00 0. -1.
</event>
<event>
 7    1  0.2384639E-009  0.1138938E+03  0.7561462E-02  0.1253524E+00
         -2   -1    0    0    0  501 -0.00000000000E+00  0.00000000000E+00  0.17439078123E+02  0.17439078123E+02  0.00000000000E+00 0.  1.
          2   -1    0    0  501    0  0.00000000000E+00 -0.00000000000E+00 -0.92567479692E+03  0.92567479692E+03  0.00000000000E+00 0. -1.
         25    2    1    2    0    0 -0.38380527577E+01  0.56430362423E+02 -0.59719922777E+03  0.61277522821E+03  0.12508975261E+03 0.  0.
          5    1    3    3  502    0  0.42849532162E+02 -0.12869663097E+02 -0.32257028812E+03  0.32568508381E+03  0.41800000000E+01 0. -1.
         -5    1    3    3    0  502 -0.46687584920E+02  0.69300025520E+02 -0.27462893965E+03  0.28709014441E+03  0.41800000000E+01 0. -1.
        -11    1    1    2    0    0 -0.36453452216E+02 -0.10178469786E+02 -0.53094575779E+02  0.65203446249E+02  0.00000000000E+00 0.  1.
         11    1    1    2    0    0  0.40291504974E+02 -0.46251892638E+02 -0.25794191525E+03  0.26513520058E+03  0.00000000000E+00 0. -1.
</event>
<event>
 7    1  0.2384639E-009  0.1474403E+03  0.7561462E-02  0.1203654E+00
         -2   -1    0    0    0  501 -0.00000000000E+00  0.00000000000E+00  0.41020852160E+03  0.41020852160E+03  0.00000000000E+00 0.  1.
          2   -1    0    0  501    0  0.00000000000E+00 -0.00000000000E+00 -0.78142423329E+02  0.78142423329E+02  0.00000000000E+00 0. -1.
         25    2    1    2    0    0 -0.36882268286E+02 -0.10478835883E+03  0.29691438148E+03  0.34080557420E+03  0.12509751242E+03 0.  0.
          5    1    3    3  502    0  0.41638330732E+02 -0.67412398870E+02  0.15923010620E+03  0.17790413494E+03  0.41800000000E+01 0. -1.
         -5    1    3    3    0  502 -0.78520599019E+02 -0.37375959963E+02  0.13768427528E+03  0.16290143926E+03  0.41800000000E+01 0. -1.
        -11    1    1    2    0    0  0.19042380929E+02 -0.29480478205E+01  0.33126415915E+02  0.38323135164E+02  0.00000000000E+00 0.  1.
         11    1    1    2    0    0  0.17839887357E+02  0.10773640665E+03  0.20253008789E+01  0.10922223557E+03  0.00000000000E+00 0. -1.
</event>
<event>
 7    1  0.2384639E-009  0.1039320E+03  0.7561462E-02  0.1272238E+00
         -1   -1    0    0    0  501 -0.00000000000E+00  0.00000000000E+00  0.36381437568E+02  0.36381437568E+02  0.00000000000E+00 0.  1.
          1   -1    0    0  501    0  0.00000000000E+00 -0.00000000000E+00 -0.40075237933E+03  0.40075237933E+03  0.00000000000E+00 0. -1.
         25    2    1    2    0    0 -0.29095813487E+02  0.19271063067E+02 -0.13322373964E+03  0.18604595083E+03  0.12508633331E+03 0.  0.
          5    1    3    3  502    0  0.43478663200E+02  0.10525223390E+02 -0.91094089277E+02  0.10157155105E+03  0.41800000000E+01 0. -1.
         -5    1    3    3    0  502 -0.72574476687E+02  0.87458396772E+01 -0.42129650362E+02  0.84474399777E+02  0.41800000000E+01 0. -1.
        -11    1    1    2    0    0  0.57672066183E+02 -0.53232067754E+01 -0.19258809364E+03  0.20110837268E+03  0.00000000000E+00 0. -1.
         11    1    1    2    0    0 -0.28576252696E+02 -0.13947856292E+02 -0.38559108479E+02  0.49979493395E+02  0.00000000000E+00 0.  1.
</event>
<event>
 7    1  0.2384639E-009  0.1686537E+03  0.7561462E-02  0.1179259E+00
          2   -1    0    0  501    0  0.00000000000E+00  0.00000000000E+00  0.73904306416E+03  0.73904306416E+03  0.00000000000E+00 0. -1.
         -2   -1    0    0    0  501 -0.00000000000E+00 -0.00000000000E+00 -0.41924982118E+02  0.41924982118E+02  0.00000000000E+00 0.  1.
         25    2    1    2    0    0  0.13099840785E+03  0.13926361623E+02  0.26933735169E+03  0.32487516463E+03  0.12508691845E+03 0.  0.
          5    1    3    3  502    0  0.26958555461E+02 -0.50054258178E+02  0.11178239882E+03  0.12547896062E+03  0.41800000000E+01 0. -1.
         -5    1    3    3    0  502  0.10403985239E+03  0.63980619800E+02  0.15755495288E+03  0.19939620401E+03  0.41800000000E+01 0. -1.
        -11    1    1    2    0    0  0.11569588489E+02  0.76929407119E+01  0.33236368858E+02  0.36023505236E+02  0.00000000000E+00 0.  1.
         11    1    1    2    0    0 -0.14256799634E+03 -0.21619302334E+02  0.39454436149E+03  0.42006937641E+03  0.00000000000E+00 0. -1.
</event>
<event>
 7    1  0.2384639E-009  0.1052640E+03  0.7561462E-02  0.1269600E+00
          2   -1    0    0  501    0  0.00000000000E+00  0.00000000000E+00  0.18951796047E+03  0.18951796047E+03  0.00000000000E+00 0. -1.
         -2   -1    0    0    0  501 -0.00000000000E+00 -0.00000000000E+00 -0.66225549770E+02  0.66225549770E+02  0.00000000000E+00 0.  1.
         25    2    1    2    0    0  0.27485371918E+02  0.84655453195E+01  0.93491088192E+02  0.15880327887E+03  0.12510310421E+03 0.  0.
          5    1    3    3  502    0 -0.47430577604E+02  0.19213925980E+02  0.48659079189E+02  0.70739048842E+02  0.41800000000E+01 0.  1.
         -5    1    3    3    0  502  0.74915949523E+02 -0.10748380661E+02  0.44832009002E+02  0.88064230031E+02  0.41800000000E+01 0.  1.
        -11    1    1    2    0    0 -0.54225592961E+02  0.29587263231E+01 -0.13541539087E+01  0.54323132515E+02  0.00000000000E+00 0.  1.
         11    1    1    2    0    0  0.26740221043E+02 -0.11424271643E+02  0.31155476420E+02  0.42617098856E+02  0.00000000000E+00 0. -1.
</event>
<event>
 7    1  0.2384639E-009  0.1046423E+03  0.7561462E-02  0.1270826E+00
          1   -1    0    0  501    0  0.00000000000E+00  0.00000000000E+00  0.21163973396E+03  0.21163973396E+03  0.00000000000E+00 0. -1.
         -1   -1    0    0    0  501 -0.00000000000E+00 -0.00000000000E+00 -0.59616745738E+02  0.59616745738E+02  0.00000000000E+00 0.  1.
         25    2    1    2    0    0 -0.18816153231E+02  0.10342635840E+02  0.64207383346E+02  0.14223605385E+03  0.12508992445E+03 0.  0.
          5    1    3    3  502    0 -0.70827320043E+02  0.37383454597E+01  0.20769704496E+02  0.74022547349E+02  0.41800000000E+01 0. -1.
         -5    1    3    3    0  502  0.52011166812E+02  0.66042903801E+01  0.43437678851E+02  0.68213506496E+02  0.41800000000E+01 0. -1.
        -11    1    1    2    0    0  0.37817742302E+02  0.25125240379E+02  0.73343750180E+02  0.86259869159E+02  0.00000000000E+00 0.  1.
         11    1    1    2    0    0 -0.19001589071E+02 -0.35467876218E+02  0.14471854700E+02  0.42760556698E+02  0.00000000000E+00 0. -1.
</event>
<event>
 7    1  0.2384639E-009  0.1518999E+03  0.7561462E-02  0.1198158E+00
         -2   -1    0    0    0  501 -0.00000000000E+00  0.00000000000E+00  0.54062303676E+02  0.54062303676E+02  0.00000000000E+00 0.  1.
          2   -1    0    0  501    0  0.00000000000E+00 -0.00000000000E+00 -0.51487247623E+03  0.51487247623E+03  0.00000000000E+00 0. -1.
         25    2    1    2    0    0  0.11272787473E+03 -0.15647943769E+02 -0.35363753438E+03  0.39199431695E+03  0.12509039499E+03 0.  0.
          5    1    3    3  502    0  0.45961292013E+02 -0.65714734484E+02 -0.12504489682E+03  0.14860876594E+03  0.41800000000E+01 0.  1.
         -5    1    3    3    0  502  0.66766582718E+02  0.50066790715E+02 -0.22859263755E+03  0.24338555102E+03  0.41800000000E+01 0.  1.
        -11    1    1    2    0    0 -0.70272800132E+02  0.49236557909E+02 -0.56108520319E+02  0.10252156420E+03  0.00000000000E+00 0. -1.
         11    1    1    2    0    0 -0.42455074599E+02 -0.33588614141E+02 -0.51064117858E+02  0.74418898754E+02  0.00000000000E+00 0.  1.
</event>
<event>
 7    1  0.2384639E-009  0.1228893E+03  0.7561462E-02  0.1238405E+00
          2   -1    0    0  501    0  0.00000000000E+00  0.00000000000E+00  0.28928786123E+03  0.28928786123E+03  0.00000000000E+00 0. -1.
         -2   -1    0    0    0  501 -0.00000000000E+00 -0.00000000000E+00 -0.58878275365E+02  0.58878275365E+02  0.00000000000E+00 0.  1.
         25    2    1    2    0    0  0.42339110226E+02 -0.43703131166E+02  0.82340122440E+02  0.16165658030E+03  0.12510151983E+03 0.  0.
          5    1    3    3  502    0 -0.41871398746E+02 -0.14879340858E+02  0.74301486018E+01  0.45246970347E+02  0.41800000000E+01 0. -1.
         -5    1    3    3    0  502  0.84210508972E+02 -0.28823790307E+02  0.74909973838E+02  0.11640960995E+03  0.41800000000E+01 0. -1.
        -11    1    1    2    0    0 -0.11476707826E+02  0.70341821530E+02  0.79806224332E+02  0.10699869215E+03  0.00000000000E+00 0.  1.
         11    1    1    2    0    0 -0.30862402399E+02 -0.26638690364E+02  0.68263239089E+02  0.79510864145E+02  0.00000000000E+00 0. -1.
</event>
<event>
 7    1  0.2436320E-009  0.1317520E+03  0.7561462E-02  0.1224879E+00
          2   -1    0    0  501    0  0.00000000000E+00  0.00000000000E+00  0.16312487531E+04  0.16312487531E+04  0.00000000000E+00 0. -1.
         -2   -1    0    0    0  501 -0.00000000000E+00 -0.00000000000E+00 -0.15223131327E+02  0.15223131327E+02  0.00000000000E+00 0.  1.
         25    2    1    2    0    0 -0.64675185547E+02 -0.53447641305E+02  0.12706250086E+04  0.12795227615E+04  0.12510417547E+03 0.  0.
          5    1    3    3  502    0  0.24802761726E+02 -0.49097827735E+02  0.32437715812E+03  0.32903462855E+03  0.41800000000E+01 0.  1.
         -5    1    3    3    0  502 -0.89477947272E+02 -0.43498135693E+01  0.94624785047E+03  0.95048813294E+03  0.41800000000E+01 0.  1.
        -11    1    1    2    0    0  0.44962878408E+02 -0.15022562438E+02  0.89069350061E+02  0.10089939017E+03  0.00000000000E+00 0.  1.
         11    1    1    2    0    0  0.19712307139E+02  0.68470203743E+02  0.25633126315E+03  0.26604973280E+03  0.00000000000E+00 0. -1.
</event>
<event>
 7    1  0.2384639E-009  0.1102971E+03  0.7561462E-02  0.1260021E+00
         -1   -1    0    0    0  501 -0.00000000000E+00  0.00000000000E+00  0.59849627289E+02  0.59849627289E+02  0.00000000000E+00 0.  1.
          1   -1    0    0  501    0  0.00000000000E+00 -0.00000000000E+00 -0.33462568033E+03  0.33462568033E+03  0.00000000000E+00 0. -1.
         25    2    1    2    0    0  0.59715745848E+02 -0.68100269782E+02 -0.15981188065E+03  0.22224094448E+03  0.12509030002E+03 0.  0.
          5    1    3    3  502    0  0.15722762922E+02  0.20734791729E+02  0.77807951448E+01  0.27479993360E+02  0.41800000000E+01 0.  1.
         -5    1    3    3    0  502  0.43992982926E+02 -0.88835061511E+02 -0.16759267580E+03  0.19476095112E+03  0.41800000000E+01 0.  1.
        -11    1    1    2    0    0 -0.23122890607E+02  0.76490149647E+01 -0.96040359542E+02  0.99080402507E+02  0.00000000000E+00 0. -1.
         11    1    1    2    0    0 -0.36592855241E+02  0.60451254817E+02 -0.18923812848E+02  0.73153960634E+02  0.00000000000E+00 0.  1.
</event>
<event>
 7    1  0.2384639E-009  0.7454461E+02  0.7561462E-02  0.1345287E+00
          2   -1    0    0  501    0  0.00000000000E+00  0.00000000000E+00  0.88043197009E+03  0.88043197009E+03  0.00000000000E+00 0. -1.
         -2   -1    0    0    0  501 -0.00000000000E+00 -0.00000000000E+00 -0.35646983069E+02  0.35646983069E+02  0.00000000000E+00 0.  1.
         25    2    1    2    0    0 -0.39679382524E+02  0.28685449843E+02  0.78134529179E+03  0.79280884699E+03  0.12509234365E+03 0.  0.
          5    1    3    3  502    0 -0.32572457210E+02 -0.17859495894E+02  0.65592375426E+02  0.75496746131E+02  0.41800000000E+01 0. -1.
         -5    1    3    3    0  502 -0.71069253143E+01  0.46544945737E+02  0.71575291636E+03  0.71731210086E+03  0.41800000000E+01 0. -1.
        -11    1    1    2    0    0  0.32324354039E+02 -0.39698818530E+02 -0.69333962203E+01  0.51661707675E+02  0.00000000000E+00 0.  1.
         11    1    1    2    0    0  0.73550284854E+01  0.11013368688E+02  0.70373091458E+02  0.71608398496E+02  0.00000000000E+00 0. -1.
</event>
<event>
 7    1  0.2384639E-009  0.1603251E+03  0.7561462E-02  0.1188330E+00
         -1   -1    0    0    0  501 -0.00000000000E+00  0.00000000000E+00  0.77231534538E+02  0.77231534538E+02  0.00000000000E+00 0.  1.
          1   -1    0    0  501    0  0.00000000000E+00 -0.00000000000E+00 -0.56441402415E+03  0.56441402415E+03  0.00000000000E+00 0. -1.
         25    2    1    2    0    0  0.16560878683E+02 -0.13022913306E+03 -0.43989288550E+03  0.47580283507E+03  0.12509475351E+03 0.  0.
          5    1    3    3  502    0 -0.50733370472E+01  0.14276877459E+02 -0.42386123311E+01  0.16279011434E+02  0.41800000000E+01 0. -1.
         -5    1    3    3    0  502  0.21634215730E+02 -0.14450601052E+03 -0.43565427317E+03  0.45952382364E+03  0.41800000000E+01 0. -1.
        -11    1    1    2    0    0 -0.52549379535E+02  0.59396963818E+02 -0.27793768385E+02  0.84035291166E+02  0.00000000000E+00 0.  1.
         11    1    1    2    0    0  0.35988500852E+02  0.70832169240E+02 -0.19495835732E+02  0.81807432448E+02  0.00000000000E+00 0. -1.
</event>
<event>
 7    1  0.2384639E-009  0.1028351E+03  0.7561462E-02  0.1274445E+00
          1   -1    0    0  501    0  0.00000000000E+00  0.00000000000E+00  0.68153798303E+02  0.68153798303E+02  0.00000000000E+00 0. -1.
         -1   -1    0    0    0  501 -0.00000000000E+00 -0.00000000000E+00 -0.20188381834E+03  0.20188381834E+03  0.00000000000E+00 0.  1.
         25    2    1    2    0    0 -0.42184103249E+02 -0.10673439841E+02 -0.51064026075E+02  0.14194914579E+03  0.12509438175E+03 0.  0.
          5    1    3    3  502    0  0.82545313451E+01 -0.60510482627E+02 -0.19729854180E+02  0.64314814324E+02  0.41800000000E+01 0. -1.
         -5    1    3    3    0  502 -0.50438634594E+02  0.49837042786E+02 -0.31334171895E+02  0.77634331463E+02  0.41800000000E+01 0. -1.
        -11    1    1    2    0    0  0.55751945098E+02 -0.64754758169E+00 -0.14417682042E+02  0.57589654067E+02  0.00000000000E+00 0. -1.
         11    1    1    2    0    0 -0.13567841849E+02  0.11320987423E+02 -0.68248311918E+02  0.70498816787E+02  0.00000000000E+00 0.  1.
</event>
<event>
 7    1  0.2384639E-009  0.1603746E+03  0.7561462E-02  0.1188275E+00
         -1   -1    0    0    0  501 -0.00000000000E+00  0.00000000000E+00  0.25983836296E+03  0.25983836296E+03  0.00000000000E+00 0.  1.
          1   -1    0    0  501    0  0.00000000000E+00 -0.00000000000E+00 -0.13435346612E+03  0.13435346612E+03  0.00000000000E+00 0. -1.
         25    2    1    2    0    0  0.37290614231E+02 -0.13993540007E+03  0.16980841098E+02  0.19211639938E+03  0.12509138997E+03 0.  0.
          5    1    3    3  502    0 -0.51216905405E+01 -0.53718602028E+02  0.65030008123E+02  0.84606703483E+02  0.41800000000E+01 0.  1.
         -5    1    3    3    0  502  0.42412304772E+02 -0.86216798038E+02 -0.48049167025E+02  0.10750969590E+03  0.41800000000E+01 0.  1.
        -11    1    1    2    0    0 -0.61558081442E+02  0.56495708041E+02  0.54866234645E+02  0.99957321502E+02  0.00000000000E+00 0. -1.
         11    1    1    2    0    0  0.24267467211E+02  0.83439692026E+02  0.53637821096E+02  0.10211810820E+03  0.00000000000E+00 0.  1.
</event>
<event>
 7    1  0.2384639E-009  0.1141769E+03  0.7561462E-02  0.1253025E+00
         -2   -1    0    0    0  501 -0.00000000000E+00  0.00000000000E+00  0.35839123433E+02  0.35839123433E+02  0.00000000000E+00 0. -1.
          2   -1    0    0  501    0  0.00000000000E+00 -0.00000000000E+00 -0.61672235431E+03  0.61672235431E+03  0.00000000000E+00 0.  1.
         25    2    1    2    0    0 -0.20684405833E+02 -0.36898045222E+02 -0.11356262545E+03  0.17416325753E+03  0.12508820883E+03 0.  0.
          5    1    3    3  502    0 -0.28001603463E+02  0.41417848659E+02 -0.63113213183E+02  0.80624301934E+02  0.41800000000E+01 0. -1.
         -5    1    3    3    0  502  0.73171976301E+01 -0.78315893882E+02 -0.50449412268E+02  0.93538955595E+02  0.41800000000E+01 0. -1.
        -11    1    1    2    0    0  0.50288528994E+02  0.46298225580E+02 -0.36934111629E+03  0.37561326124E+03  0.00000000000E+00 0.  1.
         11    1    1    2    0    0 -0.29604123161E+02 -0.94001803578E+01 -0.97979489139E+02  0.10278495897E+03  0.00000000000E+00 0. -1.
</event>
<event>
 7    1  0.2384639E-009  0.1467093E+03  0.7561462E-02  0.1204576E+00
         -2   -1    0    0    0  501 -0.00000000000E+00  0.00000000000E+00  0.78697724619E+02  0.78697724619E+02  0.00000000000E+00 0.  1.
          2   -1    0    0  501    0  0.00000000000E+00 -0.00000000000E+00 -0.32842690160E+03  0.32842690160E+03  0.00000000000E+00 0. -1.
         25    2    1    2    0    0  0.91422490523E+02  0.74773940380E+02 -0.12093461342E+03  0.21029418845E+03  0.12509696655E+03 0.  0.
          5    1    3    3  502    0 -0.26693620772E+02  0.14514317283E+01 -0.17277442588E+01  0.27112977413E+02  0.41800000000E+01 0. -1.
         -5    1    3    3    0  502  0.11811611129E+03  0.73322508651E+02 -0.11920686916E+03  0.18318121104E+03  0.41800000000E+01 0. -1.
        -11    1    1    2    0    0 -0.75459041924E+02 -0.32636828243E+02 -0.12755380180E+03  0.15175375421E+03  0.00000000000E+00 0. -1.
         11    1    1    2    0    0 -0.15963448599E+02 -0.42137112137E+02 -0.12407617647E+01  0.45076683554E+02  0.00000000000E+00 0.  1.
</event>
<event>
 7    1  0.2384639E-009  0.3860017E+03  0.7561462E-02  0.1048738E+00
         -1   -1    0    0    0  501 -0.00000000000E+00  0.00000000000E+00  0.13150906572E+04  0.13150906572E+04  0.00000000000E+00 0.  1.
          1   -1    0    0  501    0  0.00000000000E+00 -0.00000000000E+00 -0.11652425586E+03  0.11652425586E+03  0.00000000000E+00 0. -1.
         25    2    1    2    0    0  0.37570456707E+03 -0.15875674193E+00  0.63484255410E+03  0.74821584053E+03  0.12509168079E+03 0.  0.
          5    1    3    3  502    0  0.22383017535E+03  0.61261963217E+02  0.37031928726E+03  0.43704327297E+03  0.41800000000E+01 0. -1.
         -5    1    3    3    0  502  0.15187439172E+03 -0.61420719959E+02  0.26452326685E+03  0.31117256756E+03  0.41800000000E+01 0. -1.
        -11    1    1    2    0    0 -0.84036841395E+02 -0.64420188002E+01  0.20066359822E+03  0.21764551447E+03  0.00000000000E+00 0.  1.
         11    1    1    2    0    0 -0.29166772567E+03  0.66007755421E+01  0.36306024903E+03  0.46575355808E+03  0.00000000000E+00 0. -1.
</event>
<event>
 7    1  0.2384639E-009  0.1098243E+03  0.7561462E-02  0.1260896E+00
         -1   -1    0    0    0  501 -0.00000000000E+00  0.00000000000E+00  0.16183865309E+03  0.16183865309E+03  0.00000000000E+00 0.  1.
          1   -1    0    0  501    0  0.00000000000E+00 -0.00000000000E+00 -0.90331378695E+02  0.90331378695E+02  0.00000000000E+00 0. -1.
         25    2    1    2    0    0 -0.76121140321E+02  0.32994948477E+02  0.71005125069E+02  0.16604802355E+03  0.12508846354E+03 0.  0.
          5    1    3    3  502    0  0.19597203189E+01  0.54108807125E+02  0.65190840168E+02  0.84846458700E+02  0.41800000000E+01 0. -1.
         -5    1    3    3    0  502 -0.78080860640E+02 -0.21113858648E+02  0.58142849017E+01  0.81201564850E+02  0.41800000000E+01 0. -1.
        -11    1    1    2    0    0  0.45089796007E+02 -0.11291790474E+02 -0.83674558197E+01  0.47229318786E+02  0.00000000000E+00 0.  1.
         11    1    1    2    0    0  0.31031344314E+02 -0.21703158003E+02  0.88696051478E+01  0.38892689451E+02  0.00000000000E+00 0. -1.
</event>
<event>
 7    1  0.2384639E-009  0.9232494E+02  0.7561462E-02  0.1297317E+00
         -1   -1    0    0    0  501 -0.00000000000E+00  0.00000000000E+00  0.67798431913E+03  0.67798431913E+03  0.00000000000E+00 0.  1.
          1   -1    0    0  501    0  0.00000000000E+00 -0.00000000000E+00 -0.26853796502E+02  0.26853796502E+02  0.00000000000E+00 0. -1.
         25    2    1    2    0    0  0.22050080573E+02  0.41669354190E+02  0.52960337680E+03  0.54621397545E+03  0.12508968431E+03 0.  0.
          5    1    3    3  502    0  0.57696421384E+02  0.32263995656E+02  0.14033343672E+03  0.15517985796E+03  0.41800000000E+01 0. -1.
         -5    1    3    3    0  502 -0.35646340811E+02  0.94053585348E+01  0.38926994009E+03  0.39103411749E+03  0.41800000000E+01 0. -1.
        -11    1    1    2    0    0 -0.45585752903E+02 -0.32798180943E+02  0.29929834991E+02  0.63636283388E+02  0.00000000000E+00 0. -1.
         11    1    1    2    0    0  0.23535672330E+02 -0.88711732477E+01  0.91597310830E+02  0.94987856793E+02  0.00000000000E+00 0.  1.
</event>
<event>
 7    1  0.2835890E-009  0.3063954E+03  0.7561462E-02  0.1082087E+00
         -2   -1    0    0    0  501 -0.00000000000E+00  0.00000000000E+00  0.43877662113E+02  0.43877662113E+02  0.00000000000E+00 0.  1.
          2   -1    0    0  501    0  0.00000000000E+00 -0.00000000000E+00 -0.26395904385E+04  0.26395904385E+04  0.00000000000E+00 0. -1.
         25    2    1    2    0    0  0.21350017705E+03 -0.20075217757E+03 -0.18442991181E+04  0.18716223588E+04  0.12508898739E+03 0.  0.
          5    1    3    3  502    0  0.22272507814E+03 -0.17325555915E+03 -0.15179503756E+04  0.15439607392E+04  0.41800000000E+01 0. -1.
         -5    1    3    3    0  502 -0.92249010901E+01 -0.27496618419E+02 -0.32634874252E+03  0.32766161962E+03  0.41800000000E+01 0. -1.
        -11    1    1    2    0    0 -0.97150792772E+02  0.13892346948E+03 -0.50069542717E+03  0.52861509409E+03  0.00000000000E+00 0. -1.
         11    1    1    2    0    0 -0.11634938428E+03  0.61828708092E+02 -0.25071823117E+03  0.28323064772E+03  0.00000000000E+00 0.  1.
</event>
<event>
 7    1  0.2384639E-009  0.1502467E+03  0.7561462E-02  0.1200170E+00
         -1   -1    0    0    0  501 -0.00000000000E+00  0.00000000000E+00  0.12565191720E+04  0.12565191720E+04  0.00000000000E+00 0.  1.
          1   -1    0    0  501    0  0.00000000000E+00 -0.00000000000E+00 -0.19334044040E+02  0.19334044040E+02  0.00000000000E+00 0. -1.
         25    2    1    2    0    0 -0.10791970881E+03 -0.15220488209E+02  0.56912521386E+03  0.59281419139E+03  0.12508728814E+03 0.  0.
          5    1    3    3  502    0 -0.11164309075E+03 -0.51355240484E+02  0.49655364204E+03  0.51155110425E+03  0.41800000000E+01 0. -1.
         -5    1    3    3    0  502  0.37233819415E+01  0.36134752275E+02  0.72571571818E+02  0.81263087138E+02  0.41800000000E+01 0. -1.
        -11    1    1    2    0    0  0.65869206765E+02  0.52918667990E+02  0.35417786584E+03  0.36411687474E+03  0.00000000000E+00 0. -1.
         11    1    1    2    0    0  0.42050502042E+02 -0.37698179781E+02  0.31388204829E+03  0.31892214994E+03  0.00000000000E+00 0.  1.
</event>
<event>
 7    1  0.2384639E-009  0.3067151E+03  0.7561462E-02  0.1081931E+00
         -3   -1    0    0    0  501 -0.00000000000E+00  0.00000000000E+00  0.70814857026E+03  0.70814857026E+03  0.00000000000E+00 0.  1.
          3   -1    0    0  501    0  0.00000000000E+00 -0.00000000000E+00 -0.19232738056E+03  0.19232738056E+03  0.00000000000E+00 0. -1.
         25    2    1    2    0    0 -0.22235103375E+03  0.20443212799E+03  0.48265853474E+03  0.58295514232E+03  0.12507981309E+03 0.  0.
          5    1    3    3  502    0 -0.19155163420E+02  0.51124422013E+00  0.11155695002E+03  0.11326785578E+03  0.41800000000E+01 0.  1.
         -5    1    3    3    0  502 -0.20319587033E+03  0.20392088377E+03  0.37110158472E+03  0.46968728654E+03  0.41800000000E+01 0.  1.
        -11    1    1    2    0    0  0.14856438128E+03 -0.10426270772E+03  0.58223474852E+02  0.19060970760E+03  0.00000000000E+00 0.  1.
         11    1    1    2    0    0  0.73786652468E+02 -0.10016942026E+03 -0.25060819891E+02  0.12691110090E+03  0.00000000000E+00 0. -1.
</event>
<event>
 7    1  0.2384639E-009  0.9108052E+02  0.7561462E-02  0.1300256E+00
         -2   -1    0    0    0  501 -0.00000000000E+00  0.00000000000E+00  0.21876079790E+02  0.21876079790E+02  0.00000000000E+00 0.  1.
          2   -1    0    0  501    0  0.00000000000E+00 -0.00000000000E+00 -0.10081479927E+04  0.10081479927E+04  0.00000000000E+00 0. -1.
         25    2    1    2    0    0  0.52561415621E+01 -0.34194547411E+00 -0.88783567367E+03  0.89661869369E+03  0.12508059193E+03 0.  0.
          5    1    3    3  502    0  0.49098783613E+02  0.27703411628E+02 -0.67921546604E+03  0.68156385708E+03  0.41800000000E+01 0.  1.
         -5    1    3    3    0  502 -0.43842642051E+02 -0.28045357102E+02 -0.20862020763E+03  0.21505483661E+03  0.41800000000E+01 0.  1.
        -11    1    1    2    0    0 -0.37541673550E+02 -0.11127045424E+02 -0.89957351216E+02  0.98109701002E+02  0.00000000000E+00 0. -1.
         11    1    1    2    0    0  0.32285531988E+02  0.11468990898E+02 -0.84788879966E+01  0.35295677775E+02  0.00000000000E+00 0.  1.
</event>
<event>
 7    1  0.2384639E-009  0.1046181E+03  0.7561462E-02  0.1270874E+00
         -2   -1    0    0    0  501 -0.00000000000E+00  0.00000000000E+00  0.28683682293E+02  0.28683682293E+02  0.00000000000E+00 0.  1.
          2   -1    0    0  501    0  0.00000000000E+00 -0.00000000000E+00 -0.50462885077E+03  0.50462885077E+03  0.00000000000E+00 0. -1.
         25    2    1    2    0    0 -0.32503866535E+02  0.33707848165E+02 -0.33408405485E+03  0.35979430475E+03  0.12508823149E+03 0.  0.
          5    1    3    3  502    0  0.46065960320E+02  0.18020845899E+02 -0.88943691654E+02  0.10185910009E+03  0.41800000000E+01 0. -1.
         -5    1    3    3    0  502 -0.78569826855E+02  0.15687002266E+02 -0.24514036320E+03  0.25793520466E+03  0.41800000000E+01 0. -1.
        -11    1    1    2    0    0  0.13088337248E+02  0.19069948463E+02 -0.10199634477E+03  0.10458595437E+03  0.00000000000E+00 0. -1.
         11    1    1    2    0    0  0.19415529287E+02 -0.52777796628E+02 -0.39864768859E+02  0.68932273940E+02  0.00000000000E+00 0.  1.
</event>
<event>
 7    1  0.2384639E-009  0.1341694E+03  0.7561462E-02  0.1221397E+00
         -2   -1    0    0    0  501 -0.00000000000E+00  0.00000000000E+00  0.14162498813E+03  0.14162498813E+03  0.00000000000E+00 0.  1.
          2   -1    0    0  501    0  0.00000000000E+00 -0.00000000000E+00 -0.14196272409E+03  0.14196272409E+03  0.00000000000E+00 0. -1.
         25    2    1    2    0    0  0.75885879595E+02 -0.35413612162E+02  0.41558322343E+02  0.15616637411E+03  0.12509217241E+03 0.  0.
          5    1    3    3  502    0  0.53248204853E+02  0.43033240320E+02  0.15062071166E+02  0.70225134250E+02  0.41800000000E+01 0.  1.
         -5    1    3    3    0  502  0.22637674742E+02 -0.78446852483E+02  0.26496251177E+02  0.85941239859E+02  0.41800000000E+01 0.  1.
        -11    1    1    2    0    0 -0.75569856158E+02 -0.67110363913E+01 -0.14696724175E+02  0.77277647937E+02  0.00000000000E+00 0.  1.
         11    1    1    2    0    0 -0.31602343688E+00  0.42124648554E+02 -0.27199334132E+02  0.50143690169E+02  0.00000000000E+00 0. -1.
</event>
<event>
 7    1  0.2384639E-009  0.1308661E+03  0.7561462E-02  0.1226176E+00
          1   -1    0    0  501    0  0.00000000000E+00  0.00000000000E+00  0.47396798594E+03  0.47396798594E+03  0.00000000000E+00 0. -1.
         -1   -1    0    0    0  501 -0.00000000000E+00 -0.00000000000E+00 -0.45122324795E+02  0.45122324795E+02  0.00000000000E+00 0.  1.
         25    2    1    2    0    0 -0.14727587453E+02 -0.93279150273E+02  0.17397370583E+03  0.23416244401E+03  0.12508916083E+03 0.  0.
          5    1    3    3  502    0 -0.69599204409E+02 -0.59196723877E+02  0.92220863029E+02  0.12988634012E+03  0.41800000000E+01 0. -1.
         -5    1    3    3    0  502  0.54871616956E+02 -0.34082426396E+02  0.81752842798E+02  0.10427610389E+03  0.41800000000E+01 0. -1.
        -11    1    1    2    0    0  0.30786778728E+02  0.43951050667E+02  0.20867257733E+03  0.21546174864E+03  0.00000000000E+00 0. -1.
         11    1    1    2    0    0 -0.16059191275E+02  0.49328099606E+02  0.46199377994E+02  0.69466118088E+02  0.00000000000E+00 0.  1.
</event>
<event>
 7    1  0.2384639E-009  0.1307333E+03  0.7561462E-02  0.1226372E+00
          1   -1    0    0  501    0  0.00000000000E+00  0.00000000000E+00  0.27252671480E+03  0.27252671480E+03  0.00000000000E+00 0. -1.
         -1   -1    0    0    0  501 -0.00000000000E+00 -0.00000000000E+00 -0.68546896387E+02  0.68546896387E+02  0.00000000000E+00 0.  1.
         25    2    1    2    0    0  0.30052302368E+02 -0.79785989098E+02  0.10888581663E+03  0.18647329298E+03  0.12508886041E+03 0.  0.
          5    1    3    3  502    0  0.58471974549E+02 -0.38076481704E+01  0.11850669153E+02  0.59928129886E+02  0.41800000000E+01 0.  1.
         -5    1    3    3    0  502 -0.28419672181E+02 -0.75978340928E+02  0.97035147479E+02  0.12654516310E+03  0.41800000000E+01 0.  1.
        -11    1    1    2    0    0 -0.13218378815E+02  0.96718782867E+02  0.81200820884E+02  0.12697567409E+03  0.00000000000E+00 0.  1.
         11    1    1    2    0    0 -0.16833923553E+02 -0.16932793769E+02  0.13893180892E+02  0.27624644112E+02  0.00000000000E+00 0. -1.
</event>
<event>
 7    1  0.2384639E-009  0.9569297E+02  0.7561462E-02  0.1289623E+00
         -3   -1    0    0    0  501 -0.00000000000E+00  0.00000000000E+00  0.26297044317E+02  0.26297044317E+02  0.00000000000E+00 0.  1.
          3   -1    0    0  501    0  0.00000000000E+00 -0.00000000000E+00 -0.18917694937E+04  0.18917694937E+04  0.00000000000E+00 0. -1.
         25    2    1    2    0    0 -0.36088755361E+02 -0.14762623742E+02 -0.17850254723E+04  0.17898279975E+04  0.12509192843E+03 0.  0.
          5    1    3    3  502    0 -0.66787221325E+02 -0.34381113573E+01 -0.16278442685E+04  0.16292227559E+04  0.41800000000E+01 0. -1.
         -5    1    3    3    0  502  0.30698465963E+02 -0.11324512385E+02 -0.15718120378E+03  0.16060524156E+03  0.41800000000E+01 0. -1.
        -11    1    1    2    0    0  0.62871993365E+02  0.57505698826E+01 -0.28858471177E+02  0.69417346264E+02  0.00000000000E+00 0.  1.
         11    1    1    2    0    0 -0.26783238004E+02  0.90120538594E+01 -0.51588505987E+02  0.58821194332E+02  0.00000000000E+00 0. -1.
</event>
<event>
 7    1  0.2384639E-009  0.1299064E+03  0.7561462E-02  0.1227595E+00
         -2   -1    0    0    0  501 -0.00000000000E+00  0.00000000000E+00  0.29340496045E+02  0.29340496045E+02  0.00000000000E+00 0. -1.
          2   -1    0    0  501    0  0.00000000000E+00 -0.00000000000E+00 -0.67857455070E+03  0.67857455070E+03  0.00000000000E+00 0.  1.
         25    2    1    2    0    0  0.44813076621E+02  0.76154773396E+02 -0.31827188628E+03  0.35320278841E+03  0.12508978695E+03 0.  0.
          5    1    3    3  502    0  0.20856587210E+02  0.10395899317E+03 -0.17000413557E+03  0.20040296405E+03  0.41800000000E+01 0. -1.
         -5    1    3    3    0  502  0.23956489411E+02 -0.27804219777E+02 -0.14826775071E+03  0.15279982436E+03  0.41800000000E+01 0. -1.
        -11    1    1    2    0    0 -0.66554210176E+02 -0.53823558288E+02 -0.16532840694E+03  0.18617174990E+03  0.00000000000E+00 0.  1.
         11    1    1    2    0    0  0.21741133555E+02 -0.22331215108E+02 -0.16563376143E+03  0.16854050843E+03  0.00000000000E+00 0. -1.
</event>
<event>
 7    1  0.2384639E-009  0.1205580E+03  0.7561462E-02  0.1242179E+00
          1   -1    0    0  501    0  0.00000000000E+00  0.00000000000E+00  0.50083054174E+02  0.50083054174E+02  0.00000000000E+00 0. -1.
         -1   -1    0    0    0  501 -0.00000000000E+00 -0.00000000000E+00 -0.40335683931E+03  0.40335683931E+03  0.00000000000E+00 0.  1.
         25    2    1    2    0    0 -0.43259963797E+01 -0.59507242221E+02 -0.30342516852E+03  0.33357684565E+03  0.12508738124E+03 0.  0.
          5    1    3    3  502    0 -0.44866681411E+02 -0.76187377829E+02 -0.24439305089E+03  0.25992878133E+03  0.41800000000E+01 0. -1.
         -5    1    3    3    0  502  0.40540685031E+02  0.16680135608E+02 -0.59032117628E+02  0.73648064322E+02  0.41800000000E+01 0. -1.
        -11    1    1    2    0    0 -0.42742534896E+02  0.20364656766E+02 -0.16416139661E+02  0.50111208086E+02  0.00000000000E+00 0. -1.
         11    1    1    2    0    0  0.47068531275E+02  0.39142585455E+02 -0.33432476963E+02  0.69751839750E+02  0.00000000000E+00 0.  1.
</event>
<event>
 7    1  0.4080948E-009  0.1111418E+03  0.7561462E-02  0.1258470E+00
          1   -1    0    0  501    0  0.00000000000E+00  0.00000000000E+00  0.15731895081E+04  0.15731895081E+04  0.00000000000E+00 0. -1.
         -1   -1    0    0    0  501 -0.00000000000E+00 -0.00000000000E+00 -0.14417130255E+02  0.14417130255E+02  0.00000000000E+00 0.  1.
         25    2    1    2    0    0 -0.48907097256E+02  0.35250589611E+02  0.12937590712E+04  0.13011894769E+04  0.12508801830E+03 0.  0.
          5    1    3    3  502    0 -0.35350869523E+02 -0.44928600658E+02  0.50894405881E+03  0.51216187922E+03  0.41800000000E+01 0.  1.
         -5    1    3    3    0  502 -0.13556227733E+02  0.80179190268E+02  0.78481501235E+03  0.78902759766E+03  0.41800000000E+01 0.  1.
        -11    1    1    2    0    0  0.42260071091E+02  0.51691934699E+01  0.42472297377E+02  0.60137594018E+02  0.00000000000E+00 0.  1.
         11    1    1    2    0    0  0.66470261645E+01 -0.40419783081E+02  0.22254100931E+03  0.22627956745E+03  0.00000000000E+00 0. -1.
</event>
<event>
 7    1  0.2384639E-009  0.9126475E+02  0.7561462E-02  0.1299818E+00
          2   -1    0    0  501    0  0.00000000000E+00  0.00000000000E+00  0.34343013967E+03  0.34343013967E+03  0.00000000000E+00 0.  1.
         -2   -1    0    0    0  501 -0.00000000000E+00 -0.00000000000E+00 -0.45830831650E+02  0.45830831650E+02  0.00000000000E+00 0. -1.
         25    2    1    2    0    0  0.21339963530E+02  0.11066267735E+02  0.73390329283E+02  0.14701116341E+03  0.12509310696E+03 0.  0.
          5    1    3    3  502    0  0.44041585334E+02 -0.47132930306E+02  0.33964920799E+02  0.73022343175E+02  0.41800000000E+01 0.  1.
         -5    1    3    3    0  502 -0.22701621804E+02  0.58199198041E+02  0.39425408484E+02  0.73988820232E+02  0.41800000000E+01 0.  1.
        -11    1    1    2    0    0  0.16485250783E+01  0.18080667207E+02  0.35617898812E+01  0.18501743397E+02  0.00000000000E+00 0. -1.
         11    1    1    2    0    0 -0.22988488608E+02 -0.29146934942E+02  0.22064718885E+03  0.22374806452E+03  0.00000000000E+00 0.  1.
</event>
<event>
 7    1  0.2384639E-009  0.2362390E+03  0.7561462E-02  0.1122324E+00
          1   -1    0    0  501    0  0.00000000000E+00  0.00000000000E+00  0.66031389357E+03  0.66031389357E+03  0.00000000000E+00 0.  1.
         -1   -1    0    0    0  501 -0.00000000000E+00 -0.00000000000E+00 -0.26439214264E+03  0.26439214264E+03  0.00000000000E+00 0. -1.
         25    2    1    2    0    0  0.18850838992E+03 -0.10231607520E+03  0.57791514550E+03  0.62899660654E+03  0.12508726286E+03 0.  0.
          5    1    3    3  502    0 -0.70989981712E+01 -0.40538533659E+02  0.71620957182E+02  0.82709143352E+02  0.41800000000E+01 0.  1.
         -5    1    3    3    0  502  0.19560738809E+03 -0.61777541536E+02  0.50629418831E+03  0.54628746319E+03  0.41800000000E+01 0.  1.
        -11    1    1    2    0    0 -0.79272743443E+02  0.83421403485E+02 -0.56297728925E+02  0.12811218792E+03  0.00000000000E+00 0.  1.
         11    1    1    2    0    0 -0.10923564648E+03  0.18894671710E+02 -0.12569566565E+03  0.16759724175E+03  0.00000000000E+00 0. -1.
</event>
<event>
 7    1  0.3258511E-009  0.9528861E+02  0.7561462E-02  0.1290527E+00
         -1   -1    0    0    0  501 -0.00000000000E+00  0.00000000000E+00  0.97058958527E+02  0.97058958527E+02  0.00000000000E+00 0.  1.
          1   -1    0    0  501    0  0.00000000000E+00 -0.00000000000E+00 -0.18313581793E+03  0.18313581793E+03  0.00000000000E+00 0. -1.
         25    2    1    2    0    0  0.19936986297E+02  0.64273205886E+02 -0.79532400334E+01  0.14227069373E+03  0.12509663404E+03 0.  0.
          5    1    3    3  502    0  0.30738117144E+02  0.85945126989E+02  0.30765659391E+02  0.96412628304E+02  0.41800000000E+01 0.  1.
         -5    1    3    3    0  502 -0.10801130847E+02 -0.21671921102E+02 -0.38718899424E+02  0.45858065424E+02  0.41800000000E+01 0.  1.
        -11    1    1    2    0    0 -0.19392174732E+02 -0.12977452861E+02  0.17663383921E+02  0.29265437894E+02  0.00000000000E+00 0.  1.
         11    1    1    2    0    0 -0.54481156526E+00 -0.51295753025E+02 -0.95787003286E+02  0.10865864483E+03  0.00000000000E+00 0. -1.
</event>
<event>
 7    1  0.2384639E-009  0.1568118E+03  0.7561462E-02  0.1192344E+00
         -2   -1    0    0    0  501 -0.00000000000E+00  0.00000000000E+00  0.66446899049E+02  0.66446899049E+02  0.00000000000E+00 0.  1.
          2   -1    0    0  501    0  0.00000000000E+00 -0.00000000000E+00 -0.44877602456E+03  0.44877602456E+03  0.00000000000E+00 0. -1.
         25    2    1    2    0    0  0.37490397206E+02 -0.10899399704E+03 -0.30700443714E+03  0.35097529843E+03  0.12508682750E+03 0.  0.
          5    1    3    3  502    0 -0.45077045178E+02 -0.23468720447E+02 -0.98990861856E+02  0.11135252118E+03  0.41800000000E+01 0. -1.
         -5    1    3    3    0  502  0.82567442383E+02 -0.85525276597E+02 -0.20801357528E+03  0.23962277726E+03  0.41800000000E+01 0. -1.
        -11    1    1    2    0    0 -0.64727868702E+02  0.63621556903E+02 -0.33319118761E+02  0.96682796632E+02  0.00000000000E+00 0.  1.
         11    1    1    2    0    0  0.27237471496E+02  0.45372440140E+02 -0.42005569610E+02  0.67564828543E+02  0.00000000000E+00 0. -1.
</event>
<event>
 7    1  0.2384639E-009  0.2730087E+03  0.7561462E-02  0.1099570E+00
         -2   -1    0    0    0  501 -0.00000000000E+00  0.00000000000E+00  0.30886983694E+03  0.30886983694E+03  0.00000000000E+00 0.  1.
          2   -1    0    0  501    0  0.00000000000E+00 -0.00000000000E+00 -0.26164778131E+03  0.26164778131E+03  0.00000000000E+00 0. -1.
         25    2    1    2    0    0  0.23387289215E+03  0.11931200373E+03  0.21969103467E+02  0.29165305618E+03  0.12508788814E+03 0.  0.
          5    1    3    3  502    0  0.17083280279E+03  0.42857556802E+02 -0.31511384220E+02  0.17897222248E+03  0.41800000000E+01 0.  1.
         -5    1    3    3    0  502  0.63040089356E+02  0.76454446929E+02  0.53480487687E+02  0.11268083371E+03  0.41800000000E+01 0.  1.
        -11    1    1    2    0    0 -0.15899236830E+03 -0.11390770552E+03 -0.10175546248E+02  0.19584963695E+03  0.00000000000E+00 0.  1.
         11    1    1    2    0    0 -0.74880523850E+02 -0.54042982152E+01  0.35428498411E+02  0.83014925109E+02  0.00000000000E+00 0. -1.
</event>
<event>
 7    1  0.2384639E-009  0.1316304E+03  0.7561462E-02  0.1225056E+00
         -1   -1    0    0    0  501 -0.00000000000E+00  0.00000000000E+00  0.34561178165E+02  0.34561178165E+02  0.00000000000E+00 0.  1.
          1   -1    0    0  501    0  0.00000000000E+00 -0.00000000000E+00 -0.60197006023E+03  0.60197006023E+03  0.00000000000E+00 0. -1.
         25    2    1    2    0    0  0.59450375052E+02  0.72348721786E+02 -0.33051706953E+03  0.36559055511E+03  0.12508491556E+03 0.  0.
          5    1    3    3  502    0 -0.27692335728E+02  0.58038393680E+02 -0.17794894455E+03  0.18925807741E+03  0.41800000000E+01 0. -1.
         -5    1    3    3    0  502  0.87142710780E+02  0.14310328106E+02 -0.15256812497E+03  0.17633247770E+03  0.41800000000E+01 0. -1.
        -11    1    1    2    0    0 -0.37336709529E+02 -0.28129282815E+01 -0.20735305114E+02  0.42800646282E+02  0.00000000000E+00 0.  1.
         11    1    1    2    0    0 -0.22113665523E+02 -0.69535793504E+02 -0.21615650743E+03  0.22814003700E+03  0.00000000000E+00 0. -1.
</event>
<event>
 7    1  0.2384639E-009  0.4991912E+02  0.7561462E-02  0.1445778E+00
          3   -1    0    0  501    0  0.00000000000E+00  0.00000000000E+00  0.14356678475E+03  0.14356678475E+03  0.00000000000E+00 0. -1.
         -3   -1    0    0    0  501 -0.00000000000E+00 -0.00000000000E+00 -0.92247941726E+02  0.92247941726E+02  0.00000000000E+00 0.  1.
         25    2    1    2    0    0 -0.19342166147E+02 -0.20128883219E+02  0.12688680939E+02  0.12879240996E+03  0.12508873214E+03 0.  0.
          5    1    3    3  502    0 -0.32608692752E+02 -0.80965951090E+01  0.65028792747E+02  0.73315059719E+02  0.41800000000E+01 0.  1.
         -5    1    3    3    0  502  0.13266526605E+02 -0.12032288110E+02 -0.52340111808E+02  0.55477350238E+02  0.41800000000E+01 0.  1.
        -11    1    1    2    0    0 -0.10735873821E+01  0.26252535252E+02  0.66751370553E+02  0.71736278602E+02  0.00000000000E+00 0. -1.
         11    1    1    2    0    0  0.20415753529E+02 -0.61236520329E+01 -0.28121208467E+02  0.35286037919E+02  0.00000000000E+00 0.  1.
</event>
<event>
 7    1  0.2384639E-009  0.1013357E+03  0.7561462E-02  0.1277512E+00
         -1   -1    0    0    0  501 -0.00000000000E+00  0.00000000000E+00  0.56719748172E+03  0.56719748172E+03  0.00000000000E+00 0.  1.
          1   -1    0    0  501    0  0.00000000000E+00 -0.00000000000E+00 -0.52099455915E+02  0.52099455915E+02  0.00000000000E+00 0. -1.
         25    2    1    2    0    0 -0.39042548341E+02 -0.21284533722E+02  0.50102836518E+03  0.51831857667E+03  0.12508945699E+03 0.  0.
          5    1    3    3  502    0 -0.56342259817E+02  0.30740467670E+02  0.15294134914E+03  0.16591550642E+03  0.41800000000E+01 0. -1.
         -5    1    3    3    0  502  0.17299711477E+02 -0.52025001391E+02  0.34808701604E+03  0.35240307025E+03  0.41800000000E+01 0. -1.
        -11    1    1    2    0    0  0.49881455466E+02 -0.94580660980E+01  0.35515124862E+02  0.61959169681E+02  0.00000000000E+00 0.  1.
         11    1    1    2    0    0 -0.10838907125E+02  0.30742599820E+02 -0.21445464242E+02  0.39019191277E+02  0.00000000000E+00 0. -1.
</event>
<event>
 7    1  0.2384639E-009  0.1032900E+03  0.7561462E-02  0.1273526E+00
         -2   -1    0    0    0  501 -0.00000000000E+00  0.00000000000E+00  0.24426633153E+02  0.24426633153E+02  0.00000000000E+00 0.  1.
          2   -1    0    0  501    0  0.00000000000E+00 -0.00000000000E+00 -0.52014735073E+03  0.52014735073E+03  0.00000000000E+00 0. -1.
         25    2    1    2    0    0 -0.12474979779E+02 -0.16175161117E+02 -0.31001004850E+03  0.33491887286E+03  0.12508860966E+03 0.  0.
          5    1    3    3  502    0  0.18818200023E+02 -0.64651817933E+02 -0.14161615933E+03  0.15686488198E+03  0.41800000000E+01 0.  1.
         -5    1    3    3    0  502 -0.31293179802E+02  0.48476656816E+02 -0.16839388917E+03  0.17805399088E+03  0.41800000000E+01 0.  1.
        -11    1    1    2    0    0 -0.30095041232E+02  0.23354133250E+02 -0.31240224846E+02  0.49265390438E+02  0.00000000000E+00 0.  1.
         11    1    1    2    0    0  0.42570021010E+02 -0.71789721326E+01 -0.15447044423E+03  0.16038972059E+03  0.00000000000E+00 0. -1.
</event>
<event>
 7    1  0.2384639E-009  0.1122572E+03  0.7561462E-02  0.1256446E+00
          1   -1    0    0  501    0  0.00000000000E+00  0.00000000000E+00  0.21864026479E+03  0.21864026479E+03  0.00000000000E+00 0. -1.
         -1   -1    0    0    0  501 -0.00000000000E+00 -0.00000000000E+00 -0.82296099500E+02  0.82296099500E+02  0.00000000000E+00 0.  1.
         25    2    1    2    0    0 -0.60717883604E+02  0.14994276982E+02  0.24310289454E+02  0.14196022195E+03  0.12510085815E+03 0.  0.
          5    1    3    3  502    0  0.17682448255E+02 -0.19039073566E+02  0.46614215194E+02  0.53530484369E+02  0.41800000000E+01 0. -1.
         -5    1    3    3    0  502 -0.78400331859E+02  0.34033350548E+02 -0.22303925740E+02  0.88429737581E+02  0.41800000000E+01 0. -1.
        -11    1    1    2    0    0 -0.76969336389E+01  0.29848179741E+02  0.34574000504E+02  0.46319738041E+02  0.00000000000E+00 0. -1.
         11    1    1    2    0    0  0.68414817243E+02 -0.44842456722E+02  0.77459875329E+02  0.11265640430E+03  0.00000000000E+00 0.  1.
</event>
<event>
 7    1  0.2384639E-009  0.1690627E+03  0.7561462E-02  0.1178829E+00
         -1   -1    0    0    0  501 -0.00000000000E+00  0.00000000000E+00  0.13408065640E+03  0.13408065640E+03  0.00000000000E+00 0.  1.
          1   -1    0    0  501    0  0.00000000000E+00 -0.00000000000E+00 -0.30888148044E+03  0.30888148044E+03  0.00000000000E+00 0. -1.
         25    2    1    2    0    0 -0.12760247260E+03  0.10672090964E+03 -0.13595114829E+03  0.24859968573E+03  0.12508934989E+03 0.  0.
          5    1    3    3  502    0 -0.97878669932E+01  0.45765521250E+01  0.23089275288E+02  0.25832812525E+02  0.41800000000E+01 0.  1.
         -5    1    3    3    0  502 -0.11781460561E+03  0.10214435752E+03 -0.15904042358E+03  0.22276687321E+03  0.41800000000E+01 0.  1.
        -11    1    1    2    0    0  0.44759392749E+02 -0.15587515247E+02  0.27162309171E+02  0.54627510563E+02  0.00000000000E+00 0.  1.
         11    1    1    2    0    0  0.82843079850E+02 -0.91133394396E+02 -0.66011984924E+02  0.13973494054E+03  0.00000000000E+00 0. -1.
</event>
<event>
 7    1  0.2384639E-009  0.7584893E+02  0.7561462E-02  0.1341262E+00
         -1   -1    0    0    0  501 -0.00000000000E+00  0.00000000000E+00  0.14153480074E+02  0.14153480074E+02  0.00000000000E+00 0.  1.
          1   -1    0    0  501    0  0.00000000000E+00 -0.00000000000E+00 -0.99284157342E+03  0.99284157342E+03  0.00000000000E+00 0. -1.
         25    2    1    2    0    0  0.15586172684E+02  0.41302054269E+01 -0.76269098136E+03  0.77304913710E+03  0.12508975958E+03 0.  0.
          5    1    3    3  502    0  0.14864757382E+02 -0.31183577251E+02 -0.59271913463E+02  0.68731423874E+02  0.41800000000E+01 0.  1.
         -5    1    3    3    0  502  0.72141530240E+00  0.35313782678E+02 -0.70341906789E+03  0.70431771323E+03  0.41800000000E+01 0.  1.
        -11    1    1    2    0    0 -0.46522315048E+02  0.95741708877E+01 -0.73685397970E+02  0.87667145611E+02  0.00000000000E+00 0.  1.
         11    1    1    2    0    0  0.30936142364E+02 -0.13704376315E+02 -0.14231171402E+03  0.14627877079E+03  0.00000000000E+00 0. -1.
</event>
<event>
 7    1  0.2384639E-009  0.1073545E+03  0.7561462E-02  0.1265549E+00
         -1   -1    0    0    0  501 -0.00000000000E+00  0.00000000000E+00  0.30535875848E+02  0.30535875848E+02  0.00000000000E+00 0.  1.
          1   -1    0    0  501    0  0.00000000000E+00 -0.00000000000E+00 -0.47947382519E+03  0.47947382519E+03  0.00000000000E+00 0. -1.
         25    2    1    2    0    0 -0.45762710660E+02 -0.17049883965E+02 -0.19975728685E+03  0.24069796802E+03  0.12509042301E+03 0.  0.
          5    1    3    3  502    0  0.33643638499E+02 -0.19134584875E+02 -0.12723245512E+03  0.13305486382E+03  0.41800000000E+01 0.  1.
         -5    1    3    3    0  502 -0.79406349159E+02  0.20847009096E+01 -0.72524831728E+02  0.10764310420E+03  0.41800000000E+01 0.  1.
        -11    1    1    2    0    0 -0.24080453258E+02 -0.98951222913E+00 -0.10931127046E+03  0.11193659461E+03  0.00000000000E+00 0. -1.
         11    1    1    2    0    0  0.69843163918E+02  0.18039396194E+02 -0.13986939202E+03  0.15737513840E+03  0.00000000000E+00 0.  1.
</event>
<event>
 7    1  0.2384639E-009  0.1304269E+03  0.7561462E-02  0.1226824E+00
         -1   -1    0    0    0  501 -0.00000000000E+00  0.00000000000E+00  0.30503879241E+02  0.30503879241E+02  0.00000000000E+00 0.  1.
          1   -1    0    0  501    0  0.00000000000E+00 -0.00000000000E+00 -0.58597603861E+03  0.58597603861E+03  0.00000000000E+00 0. -1.
         25    2    1    2    0    0  0.33670994076E+00  0.76167509295E+02 -0.25891577798E+03  0.29746989608E+03  0.12509738664E+03 0.  0.
          5    1    3    3  502    0  0.60973034589E+02  0.22144889410E+02 -0.10862233620E+03  0.12658748514E+03  0.41800000000E+01 0. -1.
         -5    1    3    3    0  502 -0.60636324648E+02  0.54022619885E+02 -0.15029344178E+03  0.17088241094E+03  0.41800000000E+01 0. -1.
        -11    1    1    2    0    0  0.15695402647E+02  0.15151415403E+02 -0.32441772182E+02  0.39094496227E+02  0.00000000000E+00 0. -1.
         11    1    1    2    0    0 -0.16032112587E+02 -0.91318924698E+02 -0.26411460921E+03  0.27991552554E+03  0.00000000000E+00 0.  1.
</event>
<event>
 7    1  0.2384639E-009  0.2201488E+03  0.7561462E-02  0.1133772E+00
         -2   -1    0    0    0  501 -0.00000000000E+00  0.00000000000E+00  0.18056956898E+03  0.18056956898E+03  0.00000000000E+00 0.  1.
          2   -1    0    0  501    0  0.00000000000E+00 -0.00000000000E+00 -0.31123631868E+03  0.31123631868E+03  0.00000000000E+00 0. -1.
         25    2    1    2    0    0  0.17994014434E+03 -0.80411915703E+02 -0.14443062562E+03  0.27450537180E+03  0.12509381200E+03 0.  0.
          5    1    3    3  502    0 -0.15044698114E+02 -0.26428603330E+02 -0.13906302823E+02  0.33699728092E+02  0.41800000000E+01 0. -1.
         -5    1    3    3    0  502  0.19498484245E+03 -0.53983312374E+02 -0.13052432279E+03  0.24080564371E+03  0.41800000000E+01 0. -1.
        -11    1    1    2    0    0 -0.13990122248E+02  0.31123432354E+02  0.27239216264E+02  0.43661956721E+02  0.00000000000E+00 0. -1.
         11    1    1    2    0    0 -0.16595002209E+03  0.49288483349E+02 -0.13475340341E+02  0.17363855914E+03  0.00000000000E+00 0.  1.
</event>
<event>
 7    1  0.2384639E-009  0.6785299E+02  0.7561462E-02  0.1367550E+00
          2   -1    0    0  501    0  0.00000000000E+00  0.00000000000E+00  0.89377650246E+03  0.89377650246E+03  0.00000000000E+00 0. -1.
         -2   -1    0    0    0  501 -0.00000000000E+00 -0.00000000000E+00 -0.23533224771E+02  0.23533224771E+02  0.00000000000E+00 0.  1.
         25    2    1    2    0    0  0.20201719649E+02  0.52549829598E+02  0.73491405657E+03  0.74760669999E+03  0.12509002064E+03 0.  0.
          5    1    3    3  502    0  0.19037638189E+02  0.39291082148E+02  0.73205290431E+03  0.73336563044E+03  0.41800000000E+01 0. -1.
         -5    1    3    3    0  502  0.11640814599E+01  0.13258747450E+02  0.28611522540E+01  0.14241069546E+02  0.41800000000E+01 0. -1.
        -11    1    1    2    0    0  0.85662195342E+01 -0.48013845882E+02  0.23489838436E+02  0.54133926730E+02  0.00000000000E+00 0.  1.
         11    1    1    2    0    0 -0.28767939183E+02 -0.45359837154E+01  0.11183938268E+03  0.11556910051E+03  0.00000000000E+00 0. -1.
</event>
<event>
 7    1  0.2384639E-009  0.1015132E+03  0.7561462E-02  0.1277146E+00
          2   -1    0    0  501    0  0.00000000000E+00  0.00000000000E+00  0.11168091356E+04  0.11168091356E+04  0.00000000000E+00 0. -1.
         -2   -1    0    0    0  501 -0.00000000000E+00 -0.00000000000E+00 -0.12473347950E+02  0.12473347950E+02  0.00000000000E+00 0.  1.
         25    2    1    2    0    0 -0.46143358045E+01  0.32307715142E+02  0.75553241282E+03  0.76651301672E+03  0.12509155617E+03 0.  0.
          5    1    3    3  502    0 -0.52267031123E+02  0.28149033048E+02  0.19378735484E+03  0.20271956467E+03  0.41800000000E+01 0.  1.
         -5    1    3    3    0  502  0.47652695319E+02  0.41586820937E+01  0.56174505798E+03  0.56379345205E+03  0.41800000000E+01 0.  1.
        -11    1    1    2    0    0 -0.60993183121E+00  0.31485509745E+02  0.70715958468E+02  0.77410956090E+02  0.00000000000E+00 0.  1.
         11    1    1    2    0    0  0.52242676357E+01 -0.63793224887E+02  0.27808741634E+03  0.28535851072E+03  0.00000000000E+00 0. -1.
</event>
<event>
 7    1  0.2384639E-009  0.1415677E+03  0.7561462E-02  0.1211235E+00
         -2   -1    0    0    0  501 -0.00000000000E+00  0.00000000000E+00  0.13125624990E+03  0.13125624990E+03  0.00000000000E+00 0.  1.
          2   -1    0    0  501    0  0.00000000000E+00 -0.00000000000E+00 -0.22550134657E+03  0.22550134657E+03  0.00000000000E+00 0. -1.
         25    2    1    2    0    0 -0.59886106393E+02  0.10091774751E+03  0.15372769059E+02  0.17220476000E+03  0.12508964720E+03 0.  0.
          5    1    3    3  502    0 -0.42007453813E+01 -0.14875238586E+02 -0.31528480791E+02  0.35361511361E+02  0.41800000000E+01 0.  1.
         -5    1    3    3    0  502 -0.55685361012E+02  0.11579298609E+03  0.46901249850E+02  0.13684324864E+03  0.41800000000E+01 0.  1.
        -11    1    1    2    0    0  0.73946054183E-01 -0.72233692817E+02 -0.89951217732E+02  0.11536435072E+03  0.00000000000E+00 0. -1.
         11    1    1    2    0    0  0.59812160339E+02 -0.28684054692E+02 -0.19666647999E+02  0.69188485758E+02  0.00000000000E+00 0.  1.
</event>
<event>
 7    1  0.2384639E-009  0.7495680E+02  0.7561462E-02  0.1344005E+00
         -2   -1    0    0    0  501 -0.00000000000E+00  0.00000000000E+00  0.22728332913E+03  0.22728332913E+03  0.00000000000E+00 0.  1.
          2   -1    0    0  501    0  0.00000000000E+00 -0.00000000000E+00 -0.54409625132E+02  0.54409625132E+02  0.00000000000E+00 0. -1.
         25    2    1    2    0    0 -0.11100296450E+02  0.13244001403E+02  0.76341569805E+02  0.14756166778E+03  0.12509112824E+03 0.  0.
          5    1    3    3  502    0 -0.21133445127E+02 -0.16370987670E+02  0.10285420244E+03  0.10635361348E+03  0.41800000000E+01 0. -1.
         -5    1    3    3    0  502  0.10033148676E+02  0.29614989073E+02 -0.26512632637E+02  0.41208054304E+02  0.41800000000E+01 0. -1.
        -11    1    1    2    0    0 -0.46093135398E+01  0.37709089935E+02  0.27468997602E+02  0.46880348381E+02  0.00000000000E+00 0. -1.
         11    1    1    2    0    0  0.15709609990E+02 -0.50953091338E+02  0.69063136589E+02  0.87250938095E+02  0.00000000000E+00 0.  1.
</event>
<event>
 7    1  0.2384639E-009  0.8357080E+02  0.7561462E-02  0.1319213E+00
          3   -1    0    0  501    0  0.00000000000E+00  0.00000000000E+00  0.12131947495E+03  0.12131947495E+03  0.00000000000E+00 0. -1.
         -3   -1    0    0    0  501 -0.00000000000E+00 -0.00000000000E+00 -0.83251796375E+02  0.83251796375E+02  0.00000000000E+00 0.  1.
         25    2    1    2    0    0  0.28311113177E-01 -0.64095250274E+01  0.25328037133E+02  0.12779108265E+03  0.12509184037E+03 0.  0.
          5    1    3    3  502    0  0.46224970054E+02 -0.62192107251E+01  0.55377260864E+02  0.72522685136E+02  0.41800000000E+01 0. -1.
         -5    1    3    3    0  502 -0.46196658941E+02 -0.19031430233E+00 -0.30049223731E+02  0.55268397513E+02  0.41800000000E+01 0. -1.
        -11    1    1    2    0    0  0.16392489156E+02 -0.29888067873E+02 -0.23733544359E+01  0.34170793278E+02  0.00000000000E+00 0. -1.
         11    1    1    2    0    0 -0.16420800270E+02  0.36297592901E+02  0.15112995879E+02  0.42609395400E+02  0.00000000000E+00 0.  1.
</event>
<event>
 7    1  0.2384639E-009  0.1064946E+03  0.7561462E-02  0.1267203E+00
          1   -1    0    0  501    0  0.00000000000E+00  0.00000000000E+00  0.90198873251E+03  0.90198873251E+03  0.00000000000E+00 0. -1.
         -1   -1    0    0    0  501 -0.00000000000E+00 -0.00000000000E+00 -0.23332624711E+02  0.23332624711E+02  0.00000000000E+00 0.  1.
         25    2    1    2    0    0  0.55215387511E+02  0.51807821520E+02  0.65836038984E+03  0.67440282620E+03  0.12509188495E+03 0.  0.
          5    1    3    3  502    0  0.14856531986E+02 -0.32775976711E+02  0.72162489421E+02  0.80745764418E+02  0.41800000000E+01 0.  1.
         -5    1    3    3    0  502  0.40358855526E+02  0.84583798231E+02  0.58619790042E+03  0.59365706178E+03  0.41800000000E+01 0.  1.
        -11    1    1    2    0    0 -0.41893845243E+02 -0.16175535094E+02  0.23898802018E+02  0.50871356800E+02  0.00000000000E+00 0.  1.
         11    1    1    2    0    0 -0.13321542269E+02 -0.35632286426E+02  0.19639691594E+03  0.20004717422E+03  0.00000000000E+00 0. -1.
</event>
<event>
 7    1  0.2384639E-009  0.1203655E+03  0.7561462E-02  0.1242495E+00
          1   -1    0    0  501    0  0.00000000000E+00  0.00000000000E+00  0.84185479193E+02  0.84185479193E+02  0.00000000000E+00 0. -1.
         -1   -1    0    0    0  501 -0.00000000000E+00 -0.00000000000E+00 -0.30836878772E+03  0.30836878772E+03  0.00000000000E+00 0.  1.
         25    2    1    2    0    0 -0.10019441263E+03  0.30358012041E+02 -0.18967391237E+03  0.25017175868E+03  0.12509670895E+03 0.  0.
          5    1    3    3  502    0 -0.43114093852E+02 -0.18625820911E+02 -0.11625030061E+01  0.47165348578E+02  0.41800000000E+01 0.  1.
         -5    1    3    3    0  502 -0.57080318777E+02  0.48983832952E+02 -0.18851140936E+03  0.20300641010E+03  0.41800000000E+01 0.  1.
        -11    1    1    2    0    0  0.71668778569E+02  0.61318009903E+01  0.16171028319E+02  0.73725944971E+02  0.00000000000E+00 0. -1.
         11    1    1    2    0    0  0.28525634060E+02 -0.36489813031E+02 -0.50680424473E+02  0.68656563257E+02  0.00000000000E+00 0.  1.
</event>
<event>
 7    1  0.2384639E-009  0.1221206E+03  0.7561462E-02  0.1239639E+00
          2   -1    0    0  501    0  0.00000000000E+00  0.00000000000E+00  0.12564380333E+03  0.12564380333E+03  0.00000000000E+00 0. -1.
         -2   -1    0    0    0  501 -0.00000000000E+00 -0.00000000000E+00 -0.14844306268E+03  0.14844306268E+03  0.00000000000E+00 0.  1.
         25    2    1    2    0    0 -0.13092930744E+02 -0.72222312308E+02  0.26887279006E+02  0.14750432652E+03  0.12508842208E+03 0.  0.
          5    1    3    3  502    0  0.21183051169E+02 -0.87879430203E+02 -0.14196249904E+02  0.91599791599E+02  0.41800000000E+01 0.  1.
         -5    1    3    3    0  502 -0.34275981913E+02  0.15657117895E+02  0.41083528910E+02  0.55904534919E+02  0.41800000000E+01 0.  1.
        -11    1    1    2    0    0  0.50923249671E+02  0.52623961412E+02 -0.37479333601E+02  0.82262744416E+02  0.00000000000E+00 0. -1.
         11    1    1    2    0    0 -0.37830318927E+02  0.19598350896E+02 -0.12207204749E+02  0.44319795078E+02  0.00000000000E+00 0.  1.
</event>
<event>
 7    1  0.2578571E-009  0.1414127E+03  0.7561462E-02  0.1211441E+00
          1   -1    0    0  501    0  0.00000000000E+00  0.00000000000E+00  0.36101716226E+03  0.36101716226E+03  0.00000000000E+00 0. -1.
         -1   -1    0    0    0  501 -0.00000000000E+00 -0.00000000000E+00 -0.59625152791E+02  0.59625152791E+02  0.00000000000E+00 0.  1.
         25    2    1    2    0    0 -0.80667266621E+02 -0.42674144861E+02  0.21547477745E+03  0.26533894497E+03  0.12508831063E+03 0.  0.
          5    1    3    3  502    0 -0.70654853642E+02 -0.85042747311E+02  0.14492548119E+03  0.18233278562E+03  0.41800000000E+01 0. -1.
         -5    1    3    3    0  502 -0.10012412979E+02  0.42368602450E+02  0.70549296266E+02  0.83006159355E+02  0.41800000000E+01 0. -1.
        -11    1    1    2    0    0 -0.70817428175E+01  0.40036593186E+02  0.18782908495E+02  0.44787024090E+02  0.00000000000E+00 0.  1.
         11    1    1    2    0    0  0.87749009439E+02  0.26375516748E+01  0.67134323519E+02  0.11051634599E+03  0.00000000000E+00 0. -1.
</event>
<event>
 7    1  0.2384639E-009  0.1324375E+03  0.7561462E-02  0.1223883E+00
          2   -1    0    0  501    0  0.00000000000E+00  0.00000000000E+00  0.11100259094E+04  0.11100259094E+04  0.00000000000E+00 0. -1.
         -2   -1    0    0    0  501 -0.00000000000E+00 -0.00000000000E+00 -0.30457026134E+02  0.30457026134E+02  0.00000000000E+00 0.  1.
         25    2    1    2    0    0  0.61365678864E+02  0.76121007741E+02  0.91143207626E+03  0.92515716786E+03  0.12508877348E+03 0.  0.
          5    1    3    3  502    0 -0.33734185100E+02  0.15166159800E+02  0.38105809589E+03  0.38287171806E+03  0.41800000000E+01 0.  1.
         -5    1    3    3    0  502  0.95099863964E+02  0.60954847941E+02  0.53037398037E+03  0.54228544981E+03  0.41800000000E+01 0.  1.
        -11    1    1    2    0    0  0.11293994663E+02 -0.19368647329E+02 -0.12685602583E+01  0.22456804313E+02  0.00000000000E+00 0.  1.
         11    1    1    2    0    0 -0.72659673527E+02 -0.56752360412E+02  0.16940536727E+03  0.19286896336E+03  0.00000000000E+00 0. -1.
</event>
<event>
 7    1  0.2384639E-009  0.1132851E+03  0.7561462E-02  0.1254605E+00
          2   -1    0    0  501    0  0.00000000000E+00  0.00000000000E+00  0.52556583902E+02  0.52556583902E+02  0.00000000000E+00 0. -1.
         -2   -1    0    0    0  501 -0.00000000000E+00 -0.00000000000E+00 -0.24728207787E+03  0.24728207787E+03  0.00000000000E+00 0.  1.
         25    2    1    2    0    0 -0.30948203524E+02  0.14624697674E+02 -0.12126739588E+03  0.17754960072E+03  0.12508559602E+03 0.  0.
          5    1    3    3  502    0 -0.75337648231E+02 -0.12692751155E+02 -0.82036392226E+02  0.11217980755E+03  0.41800000000E+01 0.  1.
         -5    1    3    3    0  502  0.44389444708E+02  0.27317448828E+02 -0.39231003649E+02  0.65369793171E+02  0.41800000000E+01 0.  1.
        -11    1    1    2    0    0  0.49882261002E+02  0.23544930194E+02 -0.41334975427E+02  0.68928832095E+02  0.00000000000E+00 0.  1.
         11    1    1    2    0    0 -0.18934057478E+02 -0.38169627867E+02 -0.32123122665E+02  0.53360228952E+02  0.00000000000E+00 0. -1.
</event>
<event>
 7    1  0.2384639E-009  0.9243453E+02  0.7561462E-02  0.1297061E+00
         -1   -1    0    0    0  501 -0.00000000000E+00  0.00000000000E+00  0.99145233161E+02  0.99145233161E+02  0.00000000000E+00 0.  1.
          1   -1    0    0  501    0  0.00000000000E+00 -0.00000000000E+00 -0.14387485470E+03  0.14387485470E+03  0.00000000000E+00 0. -1.
         25    2    1    2    0    0  0.39191672939E+02  0.28268975535E+02 -0.39480312705E+02  0.13979124434E+03  0.12509106562E+03 0.  0.
          5    1    3    3  502    0  0.16064675138E+02 -0.22681792775E+02  0.36042360526E+02  0.45706254092E+02  0.41800000000E+01 0.  1.
         -5    1    3    3    0  502  0.23126997801E+02  0.50950768311E+02 -0.75522673231E+02  0.94084990252E+02  0.41800000000E+01 0.  1.
        -11    1    1    2    0    0 -0.61104552792E+02  0.44574767463E+01 -0.14084053377E+02  0.62864903010E+02  0.00000000000E+00 0. -1.
         11    1    1    2    0    0  0.21912879853E+02 -0.32726452281E+02  0.88347445404E+01  0.40363940510E+02  0.00000000000E+00 0.  1.
</event>
<event>
 7    1  0.2384639E-009  0.9202769E+02  0.7561462E-02  0.1298014E+00
         -2   -1    0    0    0  501 -0.00000000000E+00  0.00000000000E+00  0.16007850927E+03  0.16007850927E+03  0.00000000000E+00 0.  1.
          2   -1    0    0  501    0  0.00000000000E+00 -0.00000000000E+00 -0.16447901575E+03  0.16447901575E+03  0.00000000000E+00 0. -1.
         25    2    1    2    0    0  0.81966801405E+02 -0.36571323946E+02  0.79683116876E+02  0.17336132562E+03  0.12509489134E+03 0.  0.
          5    1    3    3  502    0  0.63099363046E+02 -0.34827837381E+02 -0.17479705588E+02  0.74280013334E+02  0.41800000000E+01 0.  1.
         -5    1    3    3    0  502  0.18867438358E+02 -0.17434865646E+01  0.97162822464E+02  0.99081312288E+02  0.41800000000E+01 0.  1.
        -11    1    1    2    0    0 -0.35957019766E+02  0.28192048504E+02 -0.92971586908E+02  0.10359254240E+03  0.00000000000E+00 0. -1.
         11    1    1    2    0    0 -0.46009781639E+02  0.83792754416E+01  0.88879635491E+01  0.47603656997E+02  0.00000000000E+00 0.  1.
</event>
<event>
 7    1  0.2725740E-009  0.1336158E+03  0.7561462E-02  0.1222187E+00
          1   -1    0    0  501    0  0.00000000000E+00  0.00000000000E+00  0.63256399688E+03  0.63256399688E+03  0.00000000000E+00 0. -1.
         -1   -1    0    0    0  501 -0.00000000000E+00 -0.00000000000E+00 -0.32881597255E+02  0.32881597255E+02  0.00000000000E+00 0.  1.
         25    2    1    2    0    0  0.87487995809E+02  0.35420158903E+02  0.32377236094E+03  0.35970074332E+03  0.12508935196E+03 0.  0.
          5    1    3    3  502    0 -0.31676242443E+02 -0.10935030529E+01  0.63209305462E+02  0.70834093354E+02  0.41800000000E+01 0. -1.
         -5    1    3    3    0  502  0.11916423825E+03  0.36513661956E+02  0.26056305547E+03  0.28886664997E+03  0.41800000000E+01 0. -1.
        -11    1    1    2    0    0 -0.47916735359E+02  0.11402194571E+02  0.21013600033E+03  0.21583132813E+03  0.00000000000E+00 0. -1.
         11    1    1    2    0    0 -0.39571260450E+02 -0.46822353474E+02  0.65774038357E+02  0.89913522677E+02  0.00000000000E+00 0.  1.
</event>
<event>
 7    1  0.2384639E-009  0.1033991E+03  0.7561462E-02  0.1273306E+00
          4   -1    0    0  501    0  0.00000000000E+00  0.00000000000E+00  0.36901260749E+03  0.36901260749E+03  0.00000000000E+00 0. -1.
         -4   -1    0    0    0  501 -0.00000000000E+00 -0.00000000000E+00 -0.31964046428E+02  0.31964046428E+02  0.00000000000E+00 0.  1.
         25    2    1    2    0    0  0.14925187666E+01  0.54634970155E+01  0.20933735572E+03  0.24392948569E+03  0.12508952026E+03 0.  0.
          5    1    3    3  502    0 -0.14913794818E+02  0.58724605470E+02  0.64060212907E+02  0.88273347287E+02  0.41800000000E+01 0. -1.
         -5    1    3    3    0  502  0.16406313585E+02 -0.53261108455E+02  0.14527714281E+03  0.15565613841E+03  0.41800000000E+01 0. -1.
        -11    1    1    2    0    0  0.30439802013E+02  0.29804692309E+02  0.47656875216E+02  0.63922445084E+02  0.00000000000E+00 0. -1.
         11    1    1    2    0    0 -0.31932320779E+02 -0.35268189324E+02  0.80054330128E+02  0.93124723145E+02  0.00000000000E+00 0.  1.
</event>
<event>
 7    1  0.2384639E-009  0.1020457E+03  0.7561462E-02  0.1276052E+00
         -1   -1    0    0    0  501 -0.00000000000E+00  0.00000000000E+00  0.16060771222E+03  0.16060771222E+03  0.00000000000E+00 0.  1.
          1   -1    0    0  501    0  0.00000000000E+00 -0.00000000000E+00 -0.72959453027E+02  0.72959453027E+02  0.00000000000E+00 0. -1.
         25    2    1    2    0    0  0.14920351132E+02 -0.74126987590E+01  0.38833273127E+02  0.13203474251E+03  0.12509030797E+03 0.  0.
          5    1    3    3  502    0  0.35050184109E+02  0.50029242554E+02  0.30485166898E+01  0.61304211687E+02  0.41800000000E+01 0.  1.
         -5    1    3    3    0  502 -0.20129832977E+02 -0.57441941313E+02  0.35784756438E+02  0.70730530825E+02  0.41800000000E+01 0.  1.
        -11    1    1    2    0    0  0.32236039166E+02 -0.60789297477E+01  0.39944558542E+02  0.51688329100E+02  0.00000000000E+00 0.  1.
         11    1    1    2    0    0 -0.47156390298E+02  0.13491628507E+02  0.88704275226E+01  0.49844093634E+02  0.00000000000E+00 0. -1.
</event>
<event>
 7    1  0.2384639E-009  0.1365925E+03  0.7561462E-02  0.1217989E+00
         -1   -1    0    0    0  501 -0.00000000000E+00  0.00000000000E+00  0.49068175320E+02  0.49068175320E+02  0.00000000000E+00 0.  1.
          1   -1    0    0  501    0  0.00000000000E+00 -0.00000000000E+00 -0.51851463098E+03  0.51851463098E+03  0.00000000000E+00 0. -1.
         25    2    1    2    0    0  0.10221061284E+03  0.52721697122E+02 -0.21977877043E+03  0.27780606833E+03  0.12508763706E+03 0.  0.
          5    1    3    3  502    0 -0.58566699193E+01  0.48836871613E+02 -0.12334310288E+03  0.13285455973E+03  0.41800000000E+01 0.  1.
         -5    1    3    3    0  502  0.10806728276E+03  0.38848255084E+01 -0.96435667549E+02  0.14495150861E+03  0.41800000000E+01 0.  1.
        -11    1    1    2    0    0 -0.37752255631E+02 -0.13200462683E+02 -0.14154889834E+02  0.42424591059E+02  0.00000000000E+00 0.  1.
         11    1    1    2    0    0 -0.64458357205E+02 -0.39521234439E+02 -0.23551279539E+03  0.24735214691E+03  0.00000000000E+00 0. -1.
</event>
<event>
 7    1  0.2384639E-009  0.1831085E+03  0.7561462E-02  0.1164828E+00
          1   -1    0    0  501    0  0.00000000000E+00  0.00000000000E+00  0.63791823613E+03  0.63791823613E+03  0.00000000000E+00 0. -1.
         -1   -1    0    0    0  501 -0.00000000000E+00 -0.00000000000E+00 -0.14703672567E+03  0.14703672567E+03  0.00000000000E+00 0.  1.
         25    2    1    2    0    0 -0.40073788074E+02  0.16290379597E+03  0.54852195290E+03  0.58708413571E+03  0.12509154394E+03 0.  0.
          5    1    3    3  502    0 -0.63876826602E+02  0.45363708018E+02  0.31389129996E+03  0.32354804214E+03  0.41800000000E+01 0.  1.
         -5    1    3    3    0  502  0.23803038528E+02  0.11754008795E+03  0.23463065294E+03  0.26353609357E+03  0.41800000000E+01 0.  1.
        -11    1    1    2    0    0  0.23318432105E+02 -0.94271514771E+02  0.12983248397E+02  0.97976693719E+02  0.00000000000E+00 0.  1.
         11    1    1    2    0    0  0.16755355970E+02 -0.68632281195E+02 -0.70623690826E+02  0.99894132368E+02  0.00000000000E+00 0. -1.
</event>
<event>
 7    1  0.2384639E-009  0.1050722E+03  0.7561462E-02  0.1269977E+00
         -1   -1    0    0    0  501 -0.00000000000E+00  0.00000000000E+00  0.35718860235E+02  0.35718860235E+02  0.00000000000E+00 0.  1.
          1   -1    0    0  501    0  0.00000000000E+00 -0.00000000000E+00 -0.46980806927E+03  0.46980806927E+03  0.00000000000E+00 0. -1.
         25    2    1    2    0    0 -0.60459625943E+02 -0.24446390332E+02 -0.18596982159E+03  0.23342197882E+03  0.12509217915E+03 0.  0.
          5    1    3    3  502    0  0.26940103036E+02 -0.29217746218E+02 -0.11142666540E+03  0.11837575769E+03  0.41800000000E+01 0. -1.
         -5    1    3    3    0  502 -0.87399728979E+02  0.47713558860E+01 -0.74543156188E+02  0.11504622113E+03  0.41800000000E+01 0. -1.
        -11    1    1    2    0    0  0.27352234630E+02  0.37965328231E+02 -0.41907531021E+02  0.62815221429E+02  0.00000000000E+00 0.  1.
         11    1    1    2    0    0  0.33107391314E+02 -0.13518937899E+02 -0.20621185642E+03  0.20928972925E+03  0.00000000000E+00 0. -1.
</event>
<event>
 7    1  0.2384639E-009  0.1007704E+03  0.7561462E-02  0.1278684E+00
          3   -1    0    0  501    0  0.00000000000E+00  0.00000000000E+00  0.37499448014E+02  0.37499448014E+02  0.00000000000E+00 0. -1.
         -3   -1    0    0    0  501 -0.00000000000E+00 -0.00000000000E+00 -0.52912128624E+03  0.52912128624E+03  0.00000000000E+00 0.  1.
         25    2    1    2    0    0  0.10343828055E+02 -0.39802567115E+02 -0.42950048974E+03  0.44923151093E+03  0.12508813130E+03 0.  0.
          5    1    3    3  502    0  0.40333191549E+02  0.11959937227E+02 -0.33259838589E+03  0.33527446240E+03  0.41800000000E+01 0.  1.
         -5    1    3    3    0  502 -0.29989363494E+02 -0.51762504342E+02 -0.96902103854E+02  0.11395704853E+03  0.41800000000E+01 0.  1.
        -11    1    1    2    0    0  0.36755892115E+02 -0.13071650712E+01 -0.18598203015E+02  0.41214044222E+02  0.00000000000E+00 0. -1.
         11    1    1    2    0    0 -0.47099720170E+02  0.41109732186E+02 -0.43523145470E+02  0.76175179108E+02  0.00000000000E+00 0.  1.
</event>
<event>
 7    1  0.2384639E-009  0.1156778E+03  0.7561462E-02  0.1250403E+00
         -1   -1    0    0    0  501 -0.00000000000E+00  0.00000000000E+00  0.19899829983E+03  0.19899829983E+03  0.00000000000E+00 0. -1.
          1   -1    0    0  501    0  0.00000000000E+00 -0.00000000000E+00 -0.11223427791E+03  0.11223427791E+03  0.00000000000E+00 0.  1.
         25    2    1    2    0    0 -0.62175675314E+02 -0.77061123561E+02  0.22558486143E+02  0.16112318166E+03  0.12509021946E+03 0.  0.
          5    1    3    3  502    0 -0.20693603209E+02 -0.17391164890E+02 -0.50851824716E+02  0.57741305034E+02  0.41800000000E+01 0. -1.
         -5    1    3    3    0  502 -0.41482072105E+02 -0.59669958671E+02  0.73410310859E+02  0.10338187662E+03  0.41800000000E+01 0. -1.
        -11    1    1    2    0    0  0.80969681532E+02  0.77953116474E+02  0.67355180683E+02  0.13103243133E+03  0.00000000000E+00 0. -1.
         11    1    1    2    0    0 -0.18794006218E+02 -0.89199291296E+00 -0.31496449026E+01  0.19076964750E+02  0.00000000000E+00 0.  1.
</event>
<event>
 7    1  0.2384639E-009  0.2987228E+03  0.7561462E-02  0.1085881E+00
          1   -1    0    0  501    0  0.00000000000E+00  0.00000000000E+00  0.43338217777E+03  0.43338217777E+03  0.00000000000E+00 0. -1.
         -1   -1    0    0    0  501 -0.00000000000E+00 -0.00000000000E+00 -0.25391174168E+03  0.25391174168E+03  0.00000000000E+00 0.  1.
         25    2    1    2    0    0  0.13378529220E+03 -0.25577364175E+03  0.21684442104E+03  0.38208427820E+03  0.12509289543E+03 0.  0.
          5    1    3    3  502    0  0.99140188527E+02 -0.90200135566E+02  0.14713879818E+03  0.19907822525E+03  0.41800000000E+01 0.  1.
         -5    1    3    3    0  502  0.34645103669E+02 -0.16557350618E+03  0.69705622860E+02  0.18300605295E+03  0.41800000000E+01 0.  1.
        -11    1    1    2    0    0 -0.78442526968E+02  0.90092812143E+02 -0.51235673738E+02  0.12998091822E+03  0.00000000000E+00 0.  1.
         11    1    1    2    0    0 -0.55342765228E+02  0.16568082960E+03  0.13861688785E+02  0.17522872304E+03  0.00000000000E+00 0. -1.
</event>
<event>
 7    1  0.2384639E-009  0.9050558E+02  0.7561462E-02  0.1301632E+00
          2   -1    0    0  501    0  0.00000000000E+00  0.00000000000E+00  0.48535652652E+03  0.48535652652E+03  0.00000000000E+00 0. -1.
         -2   -1    0    0    0  501 -0.00000000000E+00 -0.00000000000E+00 -0.26331971665E+02  0.26331971665E+02  0.00000000000E+00 0.  1.
         25    2    1    2    0    0 -0.57563834765E+01  0.15970840199E+02  0.27905052514E+03  0.30627524894E+03  0.12508848408E+03 0.  0.
          5    1    3    3  502    0 -0.11939896758E+02 -0.34233558790E+02  0.18670956571E+02  0.40994813102E+02  0.41800000000E+01 0. -1.
         -5    1    3    3    0  502  0.61835132817E+01  0.50204398989E+02  0.26037956856E+03  0.26528043584E+03  0.41800000000E+01 0. -1.
        -11    1    1    2    0    0 -0.74566377364E+01  0.37728236565E+02  0.42955522950E+02  0.57655860349E+02  0.00000000000E+00 0.  1.
         11    1    1    2    0    0  0.13213021213E+02 -0.53699076765E+02  0.13701850677E+03  0.14775738889E+03  0.00000000000E+00 0. -1.
</event>
<event>
 7    1  0.2384639E-009  0.9476951E+02  0.7561462E-02  0.1291696E+00
          2   -1    0    0  501    0  0.00000000000E+00  0.00000000000E+00  0.83936705261E+02  0.83936705261E+02  0.00000000000E+00 0.  1.
         -2   -1    0    0    0  501 -0.00000000000E+00 -0.00000000000E+00 -0.18432891819E+03  0.18432891819E+03  0.00000000000E+00 0. -1.
         25    2    1    2    0    0  0.42820418546E+02  0.37451899635E+02 -0.35283860178E+02  0.14187812688E+03  0.12509284179E+03 0.  0.
          5    1    3    3  502    0  0.44539331527E+02  0.65223958237E+02 -0.63949905924E+02  0.10171027307E+03  0.41800000000E+01 0. -1.
         -5    1    3    3    0  502 -0.17189129809E+01 -0.27772058602E+02  0.28666045746E+02  0.40167853808E+02  0.41800000000E+01 0. -1.
        -11    1    1    2    0    0 -0.21566279176E+02 -0.52174045724E+02 -0.13168141010E+00  0.56455759535E+02  0.00000000000E+00 0.  1.
         11    1    1    2    0    0 -0.21254139371E+02  0.14722146090E+02 -0.64976671338E+02  0.69931737030E+02  0.00000000000E+00 0. -1.
</event>
<event>
 7    1  0.2384639E-009  0.3966196E+03  0.7561462E-02  0.1044957E+00
          1   -1    0    0  501    0  0.00000000000E+00  0.00000000000E+00  0.49526529771E+03  0.49526529771E+03  0.00000000000E+00 0. -1.
         -1   -1    0    0    0  501 -0.00000000000E+00 -0.00000000000E+00 -0.49780738644E+03  0.49780738644E+03  0.00000000000E+00 0.  1.
         25    2    1    2    0    0 -0.36530047315E+03  0.14615204998E+03  0.28058726293E+03  0.49918211089E+03  0.12509480534E+03 0.  0.
          5    1    3    3  502    0 -0.31760738494E+03  0.13850938801E+03  0.28743688863E+03  0.45021854569E+03  0.41800000000E+01 0. -1.
         -5    1    3    3    0  502 -0.47693088209E+02  0.76426619670E+01 -0.68496257089E+01  0.48963565201E+02  0.41800000000E+01 0. -1.
        -11    1    1    2    0    0  0.60494972101E+02 -0.50416716863E+02 -0.93972554296E+02  0.12260639441E+03  0.00000000000E+00 0. -1.
         11    1    1    2    0    0  0.30480550105E+03 -0.95735333117E+02 -0.18915679736E+03  0.37128417885E+03  0.00000000000E+00 0.  1.
</event>
<event>
 7    1  0.2384639E-009  0.2016803E+03  0.7561462E-02  0.1148329E+00
          2   -1    0    0  501    0  0.00000000000E+00  0.00000000000E+00  0.11573096969E+03  0.11573096969E+03  0.00000000000E+00 0. -1.
         -2   -1    0    0    0  501 -0.00000000000E+00 -0.00000000000E+00 -0.43027553576E+03  0.43027553576E+03  0.00000000000E+00 0.  1.
         25    2    1    2    0    0  0.39897537885E+00 -0.19342933791E+03 -0.14573511576E+03  0.27258366430E+03  0.12509221451E+03 0.  0.
          5    1    3    3  502    0  0.79263119295E+01 -0.11028182546E+03 -0.73224533905E+01  0.11088732196E+03  0.41800000000E+01 0. -1.
         -5    1    3    3    0  502 -0.75273365507E+01 -0.83147512454E+02 -0.13841266237E+03  0.16169634234E+03  0.41800000000E+01 0. -1.
        -11    1    1    2    0    0 -0.39366516784E+02  0.11491080326E+03 -0.12888290767E+03  0.17710172003E+03  0.00000000000E+00 0.  1.
         11    1    1    2    0    0  0.38967541405E+02  0.78518534652E+02 -0.39926542647E+02  0.96321121125E+02  0.00000000000E+00 0. -1.
</event>
<event>
 7    1  0.2384639E-009  0.1538238E+03  0.7561462E-02  0.1195852E+00
          1   -1    0    0  501    0  0.00000000000E+00  0.00000000000E+00  0.27568930112E+03  0.27568930112E+03  0.00000000000E+00 0. -1.
         -1   -1    0    0    0  501 -0.00000000000E+00 -0.00000000000E+00 -0.93631519561E+02  0.93631519561E+02  0.00000000000E+00 0.  1.
         25    2    1    2    0    0 -0.11547470527E+03  0.27886887844E+02  0.11086047155E+03  0.20505995789E+03  0.12508979218E+03 0.  0.
          5    1    3    3  502    0  0.21378140887E+02  0.26282411765E+01  0.47034029110E+02  0.51899950421E+02  0.41800000000E+01 0.  1.
         -5    1    3    3    0  502 -0.13685284616E+03  0.25258646668E+02  0.63826442440E+02  0.15316000747E+03  0.41800000000E+01 0.  1.
        -11    1    1    2    0    0  0.57616906472E+02 -0.57572035886E+02  0.51285217162E+02  0.96251860900E+02  0.00000000000E+00 0.  1.
         11    1    1    2    0    0  0.57857798801E+02  0.29685148042E+02  0.19912092845E+02  0.68009001888E+02  0.00000000000E+00 0. -1.
</event>
<event>
 7    1  0.2384639E-009  0.1049618E+03  0.7561462E-02  0.1270195E+00
         -3   -1    0    0    0  501 -0.00000000000E+00  0.00000000000E+00  0.19531348698E+03  0.19531348698E+03  0.00000000000E+00 0.  1.
          3   -1    0    0  501    0  0.00000000000E+00 -0.00000000000E+00 -0.69437050836E+02  0.69437050836E+02  0.00000000000E+00 0. -1.
         25    2    1    2    0    0 -0.30154526505E+02  0.93702744352E+01  0.43833788274E+02  0.13625600793E+03  0.12508877325E+03 0.  0.
          5    1    3    3  502    0  0.22295370122E+02 -0.43452172381E+02  0.36947536684E+02  0.61382144640E+02  0.41800000000E+01 0. -1.
         -5    1    3    3    0  502 -0.52449896626E+02  0.52822446816E+02  0.68862515892E+01  0.74873863295E+02  0.41800000000E+01 0. -1.
        -11    1    1    2    0    0 -0.12268220303E+02  0.27520369003E+02  0.13662818199E+01  0.30162006986E+02  0.00000000000E+00 0. -1.
         11    1    1    2    0    0  0.42422746807E+02 -0.36890643438E+02  0.80676366050E+02  0.98332522895E+02  0.00000000000E+00 0.  1.
</event>
<event>
 7    1  0.2384639E-009  0.9864547E+02  0.7561462E-02  0.1283170E+00
          2   -1    0    0  501    0  0.00000000000E+00  0.00000000000E+00  0.56906731677E+03  0.56906731677E+03  0.00000000000E+00 0. -1.
         -2   -1    0    0    0  501 -0.00000000000E+00 -0.00000000000E+00 -0.32891607808E+02  0.32891607808E+02  0.00000000000E+00 0.  1.
         25    2    1    2    0    0  0.76058947872E+02  0.32928291924E+02  0.27525947012E+03  0.31350421030E+03  0.12509147862E+03 0.  0.
          5    1    3    3  502    0  0.92139888424E+01  0.39122995439E+02  0.12539779994E+02  0.42311048732E+02  0.41800000000E+01 0. -1.
         -5    1    3    3    0  502  0.66844959029E+02 -0.61947035152E+01  0.26271969013E+03  0.27119316157E+03  0.41800000000E+01 0. -1.
        -11    1    1    2    0    0 -0.26728477032E+02 -0.30032517157E+02  0.24832575622E+02  0.47254845077E+02  0.00000000000E+00 0.  1.
         11    1    1    2    0    0 -0.49330470840E+02 -0.28957747668E+01  0.23608366321E+03  0.24119986920E+03  0.00000000000E+00 0. -1.
</event>
<event>
 7    1  0.2384639E-009  0.5628805E+02  0.7561462E-02  0.1414104E+00
          1   -1    0    0  501    0  0.00000000000E+00  0.00000000000E+00  0.23178412954E+03  0.23178412954E+03  0.00000000000E+00 0. -1.
         -1   -1    0    0    0  501 -0.00000000000E+00 -0.00000000000E+00 -0.62231006942E+02  0.62231006942E+02  0.00000000000E+00 0.  1.
         25    2    1    2    0    0  0.89854920277E+01 -0.34609144532E+02  0.14591818932E+03  0.19549024532E+03  0.12508311672E+03 0.  0.
          5    1    3    3  502    0 -0.11893502710E+01 -0.19809332269E+02 -0.20039629505E+02  0.28511109233E+02  0.41800000000E+01 0.  1.
         -5    1    3    3    0  502  0.10174842299E+02 -0.14799812263E+02  0.16595781883E+03  0.16697913609E+03  0.41800000000E+01 0.  1.
        -11    1    1    2    0    0 -0.35262211942E+02  0.31703542415E+02 -0.16721089506E+02  0.50280543225E+02  0.00000000000E+00 0.  1.
         11    1    1    2    0    0  0.26276719914E+02  0.29056021173E+01  0.40356022786E+02  0.48244347941E+02  0.00000000000E+00 0. -1.
</event>
<event>
 7    1  0.2384639E-009  0.1460403E+03  0.7561462E-02  0.1205425E+00
         -1   -1    0    0    0  501 -0.00000000000E+00  0.00000000000E+00  0.30818767140E+03  0.30818767140E+03  0.00000000000E+00 0.  1.
          1   -1    0    0  501    0  0.00000000000E+00 -0.00000000000E+00 -0.73034591723E+02  0.73034591723E+02  0.00000000000E+00 0. -1.
         25    2    1    2    0    0  0.15219965830E+02  0.97393725110E+02  0.16097909666E+03  0.22644919536E+03  0.12509110067E+03 0.  0.
          5    1    3    3  502    0  0.62190882089E+02  0.17634410076E+02  0.83409034661E+02  0.10560879555E+03  0.41800000000E+01 0. -1.
         -5    1    3    3    0  502 -0.46970916259E+02  0.79759315034E+02  0.77570062003E+02  0.12084039982E+03  0.41800000000E+01 0. -1.
        -11    1    1    2    0    0 -0.14734534015E+02 -0.11554883037E+03  0.70762958719E+02  0.13629392877E+03  0.00000000000E+00 0.  1.
         11    1    1    2    0    0 -0.48543181461E+00  0.18155105261E+02  0.34110242933E+01  0.18479138990E+02  0.00000000000E+00 0. -1.
</event>
<event>
 7    1  0.2384639E-009  0.9170652E+02  0.7561462E-02  0.1298771E+00
          2   -1    0    0  501    0  0.00000000000E+00  0.00000000000E+00  0.71913542107E+03  0.71913542107E+03  0.00000000000E+00 0. -1.
         -2   -1    0    0    0  501 -0.00000000000E+00 -0.00000000000E+00 -0.29155989397E+02  0.29155989397E+02  0.00000000000E+00 0.  1.
         25    2    1    2    0    0  0.29546215052E+01  0.20315952665E+01  0.61506529771E+03  0.62766747924E+03  0.12509311283E+03 0.  0.
          5    1    3    3  502    0  0.51787430263E+02  0.34333316529E+02  0.39634371156E+03  0.40120633675E+03  0.41800000000E+01 0.  1.
         -5    1    3    3    0  502 -0.48832808757E+02 -0.32301721263E+02  0.21872158615E+03  0.22646114249E+03  0.41800000000E+01 0.  1.
        -11    1    1    2    0    0 -0.31449813189E+02  0.76097014839E+01 -0.72210046932E+01  0.33153298705E+02  0.00000000000E+00 0.  1.
         11    1    1    2    0    0  0.28495191683E+02 -0.96412967504E+01  0.82135138655E+02  0.87470632523E+02  0.00000000000E+00 0. -1.
</event>
<event>
 7    1  0.2384639E-009  0.1385353E+03  0.7561462E-02  0.1215314E+00
         -2   -1    0    0    0  501 -0.00000000000E+00  0.00000000000E+00  0.38648964256E+03  0.38648964256E+03  0.00000000000E+00 0.  1.
          2   -1    0    0  501    0  0.00000000000E+00 -0.00000000000E+00 -0.52146990891E+02  0.52146990891E+02  0.00000000000E+00 0. -1.
         25    2    1    2    0    0  0.32115972546E+02  0.82683792765E+02  0.15156024491E+03  0.21560766223E+03  0.12509240943E+03 0.  0.
          5    1    3    3  502    0 -0.10295871405E+02 -0.30105129852E+02  0.23923789913E+02  0.40026790219E+02  0.41800000000E+01 0. -1.
         -5    1    3    3    0  502  0.42411843952E+02  0.11278892262E+03  0.12763645500E+03  0.17558087201E+03  0.41800000000E+01 0. -1.
        -11    1    1    2    0    0 -0.61303107552E+02 -0.68601989817E+02  0.15545008432E+03  0.18063508164E+03  0.00000000000E+00 0.  1.
         11    1    1    2    0    0  0.29187135006E+02 -0.14081802947E+02  0.27332322434E+02  0.42393889580E+02  0.00000000000E+00 0. -1.
</event>
<event>
 7    1  0.2384639E-009  0.1080766E+03  0.7561462E-02  0.1264174E+00
         -1   -1    0    0    0  501 -0.00000000000E+00  0.00000000000E+00  0.93088387397E+02  0.93088387397E+02  0.00000000000E+00 0.  1.
          1   -1    0    0  501    0  0.00000000000E+00 -0.00000000000E+00 -0.17178774729E+03  0.17178774729E+03  0.00000000000E+00 0. -1.
         25    2    1    2    0    0  0.17512272703E+02  0.44398228016E+02 -0.93790648891E+02  0.16347557086E+03  0.12509873741E+03 0.  0.
          5    1    3    3  502    0  0.35523054896E+02 -0.30410306669E+02 -0.70926279865E+01  0.47481069413E+02  0.41800000000E+01 0. -1.
         -5    1    3    3    0  502 -0.18010782193E+02  0.74808534686E+02 -0.86698020905E+02  0.11599450145E+03  0.41800000000E+01 0. -1.
        -11    1    1    2    0    0 -0.30842685778E+02 -0.62481666134E+02  0.28449292640E+02  0.75263484643E+02  0.00000000000E+00 0.  1.
         11    1    1    2    0    0  0.13330413075E+02  0.18083438118E+02 -0.13358003639E+02  0.26137079181E+02  0.00000000000E+00 0. -1.
</event>
<event>
 7    1  0.2384639E-009  0.9613104E+02  0.7561462E-02  0.1288649E+00
         -4   -1    0    0    0  501 -0.00000000000E+00  0.00000000000E+00  0.12389336727E+03  0.12389336727E+03  0.00000000000E+00 0.  1.
          4   -1    0    0  501    0  0.00000000000E+00 -0.00000000000E+00 -0.12764538030E+03  0.12764538030E+03  0.00000000000E+00 0. -1.
         25    2    1    2    0    0  0.30305814608E+02  0.50281045498E+02  0.26142616733E+02  0.14062702479E+03  0.12508356309E+03 0.  0.
          5    1    3    3  502    0  0.32949312948E+02 -0.17793425919E+01 -0.42730773203E+02  0.54149927630E+02  0.41800000000E+01 0.  1.
         -5    1    3    3    0  502 -0.26434983403E+01  0.52060388090E+02  0.68873389936E+02  0.86477097157E+02  0.41800000000E+01 0.  1.
        -11    1    1    2    0    0 -0.60886442642E+02 -0.44909982117E+02 -0.18997235303E+02  0.78006155786E+02  0.00000000000E+00 0.  1.
         11    1    1    2    0    0  0.30580628034E+02 -0.53710633808E+01 -0.10897394460E+02  0.32905566988E+02  0.00000000000E+00 0. -1.
</event>
<event>
 7    1  0.2384639E-009  0.1240020E+03  0.7561462E-02  0.1236637E+00
          1   -1    0    0  501    0  0.00000000000E+00  0.00000000000E+00  0.28739218597E+02  0.28739218597E+02  0.00000000000E+00 0. -1.
         -1   -1    0    0    0  501 -0.00000000000E+00 -0.00000000000E+00 -0.89651182768E+03  0.89651182768E+03  0.00000000000E+00 0.  1.
         25    2    1    2    0    0 -0.53133344168E+01 -0.10737756229E+03 -0.31304699672E+03  0.35384059351E+03  0.12508625445E+03 0.  0.
          5    1    3    3  502    0 -0.16331023333E+02 -0.72745947893E+02 -0.53825729416E+02  0.92050838156E+02  0.41800000000E+01 0.  1.
         -5    1    3    3    0  502  0.11017688916E+02 -0.34631614393E+02 -0.25922126730E+03  0.26178975535E+03  0.41800000000E+01 0.  1.
        -11    1    1    2    0    0  0.37865676221E+02  0.94388696275E+02 -0.42910971069E+03  0.44099680184E+03  0.00000000000E+00 0. -1.
         11    1    1    2    0    0 -0.32552341804E+02  0.12988866011E+02 -0.12561590167E+03  0.13041365093E+03  0.00000000000E+00 0.  1.
</event>
<event>
 7    1  0.2384639E-009  0.1072419E+03  0.7561462E-02  0.1265764E+00
         -1   -1    0    0    0  501 -0.00000000000E+00  0.00000000000E+00  0.31320869215E+03  0.31320869215E+03  0.00000000000E+00 0.  1.
          1   -1    0    0  501    0  0.00000000000E+00 -0.00000000000E+00 -0.66008687979E+02  0.66008687979E+02  0.00000000000E+00 0. -1.
         25    2    1    2    0    0  0.87532554779E+02 -0.33970821276E+02  0.15453640792E+03  0.21987650713E+03  0.12509281422E+03 0.  0.
          5    1    3    3  502    0  0.54307070210E+02 -0.38537788173E+02  0.53801067459E+01  0.66939053927E+02  0.41800000000E+01 0. -1.
         -5    1    3    3    0  502  0.33225484569E+02  0.45669668973E+01  0.14915630118E+03  0.15293745320E+03  0.41800000000E+01 0. -1.
        -11    1    1    2    0    0 -0.34189780258E+02 -0.18725176893E+02  0.71488889688E+02  0.81426252970E+02  0.00000000000E+00 0.  1.
         11    1    1    2    0    0 -0.53342774521E+02  0.52695998169E+02  0.21174706563E+02  0.77914620032E+02  0.00000000000E+00 0. -1.
</event>
<event>
 7    1  0.2384639E-009  0.1791637E+03  0.7561462E-02  0.1168615E+00
         -1   -1    0    0    0  501 -0.00000000000E+00  0.00000000000E+00  0.14245459071E+03  0.14245459071E+03  0.00000000000E+00 0.  1.
          1   -1    0    0  501    0  0.00000000000E+00 -0.00000000000E+00 -0.27825463974E+03  0.27825463974E+03  0.00000000000E+00 0. -1.
         25    2    1    2    0    0  0.43722289434E+02  0.14636732446E+03 -0.13751463920E+03  0.24060966866E+03  0.12509078461E+03 0.  0.
          5    1    3    3  502    0  0.38239120053E+02  0.72788766948E+01 -0.81673529204E+02  0.90571795394E+02  0.41800000000E+01 0.  1.
         -5    1    3    3    0  502  0.54831693814E+01  0.13908844776E+03 -0.55841109993E+02  0.15003787326E+03  0.41800000000E+01 0.  1.
        -11    1    1    2    0    0  0.30448104864E+02 -0.43796114272E+02  0.41106434387E+01  0.53498449553E+02  0.00000000000E+00 0.  1.
         11    1    1    2    0    0 -0.74170394298E+02 -0.10257121019E+03 -0.23960532699E+01  0.12660111224E+03  0.00000000000E+00 0. -1.
</event>
<event>
 7    1  0.2384639E-009  0.1167332E+03  0.7561462E-02  0.1248586E+00
         -1   -1    0    0    0  501 -0.00000000000E+00  0.00000000000E+00  0.97504922015E+03  0.97504922015E+03  0.00000000000E+00 0.  1.
          1   -1    0    0  501    0  0.00000000000E+00 -0.00000000000E+00 -0.20534763319E+02  0.20534763319E+02  0.00000000000E+00 0. -1.
         25    2    1    2    0    0 -0.25185067438E+02  0.74484668862E+02  0.36240822976E+03  0.39136896585E+03  0.12509072273E+03 0.  0.
          5    1    3    3  502    0 -0.39723933075E+02  0.28224827858E+01  0.27575337056E+02  0.48619223377E+02  0.41800000000E+01 0.  1.
         -5    1    3    3    0  502  0.14538865637E+02  0.71662186076E+02  0.33483289271E+03  0.34274974247E+03  0.41800000000E+01 0.  1.
        -11    1    1    2    0    0 -0.34458173770E+02 -0.23403507894E+02  0.22101854441E+03  0.22490950824E+03  0.00000000000E+00 0.  1.
         11    1    1    2    0    0  0.59643241208E+02 -0.51081160968E+02  0.37108768266E+03  0.37930550938E+03  0.00000000000E+00 0. -1.
</event>
<event>
 7    1  0.2384639E-009  0.1110197E+03  0.7561462E-02  0.1258693E+00
          2   -1    0    0  501    0  0.00000000000E+00  0.00000000000E+00  0.83096902268E+03  0.83096902268E+03  0.00000000000E+00 0. -1.
         -2   -1    0    0    0  501 -0.00000000000E+00 -0.00000000000E+00 -0.17106875899E+02  0.17106875899E+02  0.00000000000E+00 0.  1.
         25    2    1    2    0    0 -0.18569889351E+02 -0.31976005348E+02  0.33513199405E+03  0.35962434552E+03  0.12509560641E+03 0.  0.
          5    1    3    3  502    0 -0.60879664550E+02  0.17348785055E+02  0.19590254708E+03  0.20591890212E+03  0.41800000000E+01 0. -1.
         -5    1    3    3    0  502  0.42309775200E+02 -0.49324790404E+02  0.13922944697E+03  0.15370544340E+03  0.41800000000E+01 0. -1.
        -11    1    1    2    0    0  0.32026430439E+02  0.56820225927E+02  0.38734761200E+03  0.39280071645E+03  0.00000000000E+00 0. -1.
         11    1    1    2    0    0 -0.13456541088E+02 -0.24844220579E+02  0.91382540728E+02  0.95650836610E+02  0.00000000000E+00 0.  1.
</event>
<event>
 7    1  0.2384639E-009  0.7584812E+02  0.7561462E-02  0.1341265E+00
         -1   -1    0    0    0  501 -0.00000000000E+00  0.00000000000E+00  0.10995792795E+03  0.10995792795E+03  0.00000000000E+00 0.  1.
          1   -1    0    0  501    0  0.00000000000E+00 -0.00000000000E+00 -0.12166958956E+03  0.12166958956E+03  0.00000000000E+00 0. -1.
         25    2    1    2    0    0  0.12543102029E+02  0.36720032859E+02 -0.26801891409E-01  0.13097032559E+03  0.12509010851E+03 0.  0.
          5    1    3    3  502    0  0.23751461570E+02  0.27796236612E+02  0.59302506268E+02  0.69792709835E+02  0.41800000000E+01 0.  1.
         -5    1    3    3    0  502 -0.11208359542E+02  0.89237962474E+01 -0.59329308159E+02  0.61177615757E+02  0.41800000000E+01 0.  1.
        -11    1    1    2    0    0  0.15922921961E+02 -0.60698743675E+02 -0.78031505339E+01  0.63235797502E+02  0.00000000000E+00 0.  1.
         11    1    1    2    0    0 -0.28466023990E+02  0.23978710815E+02 -0.38817091831E+01  0.37421394420E+02  0.00000000000E+00 0. -1.
</event>
<event>
 7    1  0.2384639E-009  0.1522895E+03  0.7561462E-02  0.1197688E+00
          1   -1    0    0  501    0  0.00000000000E+00  0.00000000000E+00  0.39120928473E+03  0.39120928473E+03  0.00000000000E+00 0. -1.
         -1   -1    0    0    0  501 -0.00000000000E+00 -0.00000000000E+00 -0.75463799854E+02  0.75463799854E+02  0.00000000000E+00 0.  1.
         25    2    1    2    0    0 -0.10731413264E+03  0.50218712887E+02  0.85801864017E+02  0.19247841996E+03  0.12509092730E+03 0.  0.
          5    1    3    3  502    0  0.82199995095E+01 -0.22736866725E+02  0.42510236171E+02  0.49082849141E+02  0.41800000000E+01 0. -1.
         -5    1    3    3    0  502 -0.11553413215E+03  0.72955579612E+02  0.43291627845E+02  0.14339557081E+03  0.41800000000E+01 0. -1.
        -11    1    1    2    0    0  0.95306276520E+02 -0.37891605021E+01  0.11346273541E+03  0.14822765062E+03  0.00000000000E+00 0.  1.
         11    1    1    2    0    0  0.12007856118E+02 -0.46429552385E+02  0.11648088544E+03  0.12596701400E+03  0.00000000000E+00 0. -1.
</event>
<event>
 7    1  0.2384639E-009  0.2106039E+03  0.7561462E-02  0.1141089E+00
          2   -1    0    0  501    0  0.00000000000E+00  0.00000000000E+00  0.89651461392E+03  0.89651461392E+03  0.00000000000E+00 0. -1.
         -2   -1    0    0    0  501 -0.00000000000E+00 -0.00000000000E+00 -0.58678769820E+02  0.58678769820E+02  0.00000000000E+00 0.  1.
         25    2    1    2    0    0 -0.17092065952E+03 -0.10552369870E+03  0.39224439378E+03  0.45809725236E+03  0.12509318658E+03 0.  0.
          5    1    3    3  502    0 -0.63764044377E+02 -0.48902851813E+02  0.49358120902E+02  0.94398298553E+02  0.41800000000E+01 0. -1.
         -5    1    3    3    0  502 -0.10715661514E+03 -0.56620846885E+02  0.34288627288E+03  0.36369895380E+03  0.41800000000E+01 0. -1.
        -11    1    1    2    0    0  0.83599944058E+02  0.10227133183E+03  0.24617534462E+03  0.27937551120E+03  0.00000000000E+00 0.  1.
         11    1    1    2    0    0  0.87320715461E+02  0.32523668688E+01  0.19941610570E+03  0.21772062018E+03  0.00000000000E+00 0. -1.
</event>
<event>
 7    1  0.2384639E-009  0.1048645E+03  0.7561462E-02  0.1270387E+00
         -1   -1    0    0    0  501 -0.00000000000E+00  0.00000000000E+00  0.17931729424E+03  0.17931729424E+03  0.00000000000E+00 0.  1.
          1   -1    0    0  501    0  0.00000000000E+00 -0.00000000000E+00 -0.76785756301E+02  0.76785756301E+02  0.00000000000E+00 0. -1.
         25    2    1    2    0    0 -0.40979719712E+02  0.93410166445E+01  0.39796148757E+02  0.13783384456E+03  0.12509133955E+03 0.  0.
          5    1    3    3  502    0  0.32266351521E+02  0.40691591128E+02  0.13366435623E+02  0.53787145585E+02  0.41800000000E+01 0. -1.
         -5    1    3    3    0  502 -0.73246071232E+02 -0.31350574483E+02  0.26429713134E+02  0.84046698970E+02  0.41800000000E+01 0. -1.
        -11    1    1    2    0    0  0.41773162726E+02  0.21509392309E+02  0.72065028094E+02  0.86029177352E+02  0.00000000000E+00 0.  1.
         11    1    1    2    0    0 -0.79344301395E+00 -0.30850408954E+02 -0.93296389083E+01  0.32240028638E+02  0.00000000000E+00 0. -1.
</event>
<event>
 7    1  0.2384639E-009  0.1075702E+03  0.7561462E-02  0.1265137E+00
          4   -1    0    0  501    0  0.00000000000E+00  0.00000000000E+00  0.92227855793E+02  0.92227855793E+02  0.00000000000E+00 0.  1.
         -4   -1    0    0    0  501 -0.00000000000E+00 -0.00000000000E+00 -0.13687622335E+03  0.13687622335E+03  0.00000000000E+00 0. -1.
         25    2    1    2    0    0  0.15020256762E+02  0.10499683081E+02 -0.14558618090E+01  0.12644448000E+03  0.12510090139E+03 0.  0.
          5    1    3    3  502    0  0.43018409882E+02  0.57197280482E+02 -0.37435690310E+01  0.71788572854E+02  0.41800000000E+01 0.  1.
         -5    1    3    3    0  502 -0.27998153120E+02 -0.46697597401E+02  0.22877072220E+01  0.54655907142E+02  0.41800000000E+01 0.  1.
        -11    1    1    2    0    0 -0.13462677688E+01  0.38217754467E+02 -0.35998652805E+01  0.38410522301E+02  0.00000000000E+00 0.  1.
         11    1    1    2    0    0 -0.13673988993E+02 -0.48717437548E+02 -0.39592640463E+02  0.64249076842E+02  0.00000000000E+00 0. -1.
</event>
<event>
 7    1  0.2384639E-009  0.1112885E+03  0.7561462E-02  0.1258202E+00
          1   -1    0    0  501    0  0.00000000000E+00  0.00000000000E+00  0.76892177140E+02  0.76892177140E+02  0.00000000000E+00 0. -1.
         -1   -1    0    0    0  501 -0.00000000000E+00 -0.00000000000E+00 -0.23929050725E+03  0.23929050725E+03  0.00000000000E+00 0.  1.
         25    2    1    2    0    0 -0.77304177460E+02 -0.79949484656E+01 -0.11634381750E+03  0.18767962798E+03  0.12509158179E+03 0.  0.
          5    1    3    3  502    0  0.24551160830E+02  0.22818423868E+02 -0.59628221712E+01  0.34299673675E+02  0.41800000000E+01 0.  1.
         -5    1    3    3    0  502 -0.10185533829E+03 -0.30813372334E+02 -0.11038099533E+03  0.15337995430E+03  0.41800000000E+01 0.  1.
        -11    1    1    2    0    0  0.37386277127E+02 -0.97231920190E+01  0.24341927406E+02  0.45659649695E+02  0.00000000000E+00 0. -1.
         11    1    1    2    0    0  0.39917900332E+02  0.17718140485E+02 -0.70396440014E+02  0.82843406713E+02  0.00000000000E+00 0.  1.
</event>
<event>
 7    1  0.2745796E-009  0.1078076E+03  0.7561462E-02  0.1264684E+00
         -3   -1    0    0    0  501 -0.00000000000E+00  0.00000000000E+00  0.85026429872E+02  0.85026429872E+02  0.00000000000E+00 0.  1.
          3   -1    0    0  501    0  0.00000000000E+00 -0.00000000000E+00 -0.25824683339E+03  0.25824683339E+03  0.00000000000E+00 0. -1.
         25    2    1    2    0    0 -0.19048456055E+02 -0.59447801222E+02 -0.26726872666E+01  0.13982513750E+03  0.12508813321E+03 0.  0.
          5    1    3    3  502    0  0.42636710715E+02 -0.57376217770E+02 -0.22177811799E+02  0.74961638205E+02  0.41800000000E+01 0. -1.
         -5    1    3    3    0  502 -0.61685166770E+02 -0.20715834523E+01  0.19505124532E+02  0.64863499292E+02  0.41800000000E+01 0. -1.
        -11    1    1    2    0    0  0.30130439453E+02  0.10416689546E+02 -0.73944522826E+01  0.32726575245E+02  0.00000000000E+00 0. -1.
         11    1    1    2    0    0 -0.11081983398E+02  0.49031111677E+02 -0.16315326397E+03  0.17072155052E+03  0.00000000000E+00 0.  1.
</event>
<event>
 7    1  0.2384639E-009  0.2051978E+03  0.7561462E-02  0.1145426E+00
         -4   -1    0    0    0  501 -0.00000000000E+00  0.00000000000E+00  0.21234668863E+03  0.21234668863E+03  0.00000000000E+00 0.  1.
          4   -1    0    0  501    0  0.00000000000E+00 -0.00000000000E+00 -0.24728704936E+03  0.24728704936E+03  0.00000000000E+00 0. -1.
         25    2    1    2    0    0 -0.15809261912E+03  0.10429080131E+03 -0.86672040208E+02  0.24295916470E+03  0.12508903108E+03 0.  0.
          5    1    3    3  502    0  0.56616100722E+01  0.46764371276E+02  0.33187566061E+01  0.47407244118E+02  0.41800000000E+01 0.  1.
         -5    1    3    3    0  502 -0.16375422919E+03  0.57526430039E+02 -0.89990796814E+02  0.19555192058E+03  0.41800000000E+01 0.  1.
        -11    1    1    2    0    0  0.13111190080E+03 -0.83719517906E+02  0.77758881184E+02  0.17391300070E+03  0.00000000000E+00 0.  1.
         11    1    1    2    0    0  0.26980718320E+02 -0.20571283409E+02 -0.26027201705E+02  0.42761572594E+02  0.00000000000E+00 0. -1.
</event>
<event>
 7    1  0.2384639E-009  0.1082962E+03  0.7561462E-02  0.1263758E+00
         -1   -1    0    0    0  501 -0.00000000000E+00  0.00000000000E+00  0.37943140703E+02  0.37943140703E+02  0.00000000000E+00 0.  1.
          1   -1    0    0  501    0  0.00000000000E+00 -0.00000000000E+00 -0.59592792313E+03  0.59592792313E+03  0.00000000000E+00 0. -1.
         25    2    1    2    0    0  0.43089380740E+01 -0.77712323241E+02 -0.15489271206E+03  0.21377002954E+03  0.12509237048E+03 0.  0.
          5    1    3    3  502    0 -0.30163264439E+02 -0.81537524530E+02 -0.15619756451E+03  0.17881091126E+03  0.41800000000E+01 0.  1.
         -5    1    3    3    0  502  0.34472202513E+02  0.38252012892E+01  0.13048524505E+01  0.34959118280E+02  0.41800000000E+01 0.  1.
        -11    1    1    2    0    0  0.22645217808E+02  0.17400468767E+02 -0.30837072139E+02  0.42029837270E+02  0.00000000000E+00 0.  1.
         11    1    1    2    0    0 -0.26954155882E+02  0.60311854475E+02 -0.37225499823E+03  0.37807119702E+03  0.00000000000E+00 0. -1.
</event>
<event>
 7    1  0.2384639E-009  0.1039803E+03  0.7561462E-02  0.1272142E+00
          1   -1    0    0  501    0  0.00000000000E+00  0.00000000000E+00  0.27823651874E+03  0.27823651874E+03  0.00000000000E+00 0. -1.
         -1   -1    0    0    0  501 -0.00000000000E+00 -0.00000000000E+00 -0.48739344712E+02  0.48739344712E+02  0.00000000000E+00 0.  1.
         25    2    1    2    0    0  0.50649631653E+01 -0.40162446722E+02  0.11152526252E+03  0.17240818567E+03  0.12509205540E+03 0.  0.
          5    1    3    3  502    0  0.49589311149E+02  0.82154540105E+01  0.10062040889E+02  0.51432582394E+02  0.41800000000E+01 0. -1.
         -5    1    3    3    0  502 -0.44524347984E+02 -0.48377900732E+02  0.10146322163E+03  0.12097560327E+03  0.41800000000E+01 0. -1.
        -11    1    1    2    0    0  0.37935242640E+02  0.10366179259E+02  0.82404181586E+02  0.91307116094E+02  0.00000000000E+00 0. -1.
         11    1    1    2    0    0 -0.43000205806E+02  0.29796267463E+02  0.35567729918E+02  0.63260561692E+02  0.00000000000E+00 0.  1.
</event>
<event>
 7    1  0.2384639E-009  0.1254622E+03  0.7561462E-02  0.1234349E+00
          1   -1    0    0  501    0  0.00000000000E+00  0.00000000000E+00  0.22120598085E+03  0.22120598085E+03  0.00000000000E+00 0. -1.
         -1   -1    0    0    0  501 -0.00000000000E+00 -0.00000000000E+00 -0.88526488795E+02  0.88526488795E+02  0.00000000000E+00 0.  1.
         25    2    1    2    0    0  0.72378636514E+02 -0.62959593314E+02  0.91059386376E+02  0.18205117405E+03  0.12509292830E+03 0.  0.
          5    1    3    3  502    0 -0.18340001222E+01  0.24241049302E+02  0.57638528658E+02  0.62695011074E+02  0.41800000000E+01 0.  1.
         -5    1    3    3    0  502  0.74212636636E+02 -0.87200642616E+02  0.33420857718E+02  0.11935616297E+03  0.41800000000E+01 0.  1.
        -11    1    1    2    0    0 -0.28225291677E+02  0.61306037323E+02  0.75376967061E+00  0.67495670018E+02  0.00000000000E+00 0.  1.
         11    1    1    2    0    0 -0.44153344837E+02  0.16535559907E+01  0.40866336010E+02  0.60185625581E+02  0.00000000000E+00 0. -1.
</event>
<event>
 7    1  0.2384639E-009  0.7027353E+02  0.7561462E-02  0.1359165E+00
         -1   -1    0    0    0  501 -0.00000000000E+00  0.00000000000E+00  0.96535344722E+02  0.96535344722E+02  0.00000000000E+00 0.  1.
          1   -1    0    0  501    0  0.00000000000E+00 -0.00000000000E+00 -0.12565521564E+03  0.12565521564E+03  0.00000000000E+00 0. -1.
         25    2    1    2    0    0  0.11226848288E+02 -0.10864779589E+02 -0.32868675759E+02  0.13027352101E+03  0.12508698922E+03 0.  0.
          5    1    3    3  502    0 -0.51694422907E+02 -0.14034198787E+02  0.90507004507E+01  0.54485407899E+02  0.41800000000E+01 0. -1.
         -5    1    3    3    0  502  0.62921271195E+02  0.31694191983E+01 -0.41919376210E+02  0.75788113109E+02  0.41800000000E+01 0. -1.
        -11    1    1    2    0    0 -0.62227912808E+00  0.12871303970E+02 -0.42507741950E+02  0.44418079910E+02  0.00000000000E+00 0. -1.
         11    1    1    2    0    0 -0.10604569160E+02 -0.20065243811E+01  0.46256546792E+02  0.47498959444E+02  0.00000000000E+00 0.  1.
</event>
<event>
 7    1  0.2384639E-009  0.1867095E+03  0.7561462E-02  0.1161463E+00
          2   -1    0    0  501    0  0.00000000000E+00  0.00000000000E+00  0.13580792791E+04  0.13580792791E+04  0.00000000000E+00 0. -1.
         -2   -1    0    0    0  501 -0.00000000000E+00 -0.00000000000E+00 -0.29364002492E+02  0.29364002492E+02  0.00000000000E+00 0.  1.
         25    2    1    2    0    0 -0.14439102353E+03 -0.82428212253E+02  0.75963686496E+03  0.78761612949E+03  0.12509125861E+03 0.  0.
          5    1    3    3  502    0 -0.10922114816E+03 -0.96477843441E+02  0.71119910079E+03  0.72598820021E+03  0.41800000000E+01 0.  1.
         -5    1    3    3    0  502 -0.35169875370E+02  0.14049631188E+02  0.48437764173E+02  0.61627929286E+02  0.41800000000E+01 0.  1.
        -11    1    1    2    0    0 -0.79769747487E+01  0.25752165020E+02  0.75892383463E+02  0.80538562174E+02  0.00000000000E+00 0. -1.
         11    1    1    2    0    0  0.15236799828E+03  0.56676047233E+02  0.49318602824E+03  0.51928858997E+03  0.00000000000E+00 0.  1.
</event>
<event>
 7    1  0.2384639E-009  0.1241911E+03  0.7561462E-02  0.1236339E+00
         -4   -1    0    0    0  501 -0.00000000000E+00  0.00000000000E+00  0.32784253535E+02  0.32784253535E+02  0.00000000000E+00 0.  1.
          4   -1    0    0  501    0  0.00000000000E+00 -0.00000000000E+00 -0.50407324448E+03  0.50407324448E+03  0.00000000000E+00 0. -1.
         25    2    1    2    0    0 -0.18550527248E+02  0.58372926796E+02 -0.19702288484E+03  0.24128326756E+03  0.12509227558E+03 0.  0.
          5    1    3    3  502    0  0.53115944848E+02  0.28905380927E+02 -0.71806812613E+02  0.93970821968E+02  0.41800000000E+01 0.  1.
         -5    1    3    3    0  502 -0.71666472096E+02  0.29467545869E+02 -0.12521607223E+03  0.14731244559E+03  0.41800000000E+01 0.  1.
        -11    1    1    2    0    0 -0.24698813133E+02 -0.62025372378E+02 -0.16303540974E+03  0.17617526221E+03  0.00000000000E+00 0. -1.
         11    1    1    2    0    0  0.43249340381E+02  0.36524455814E+01 -0.11123069637E+03  0.11939896824E+03  0.00000000000E+00 0.  1.
</event>
<event>
 7    1  0.2384639E-009  0.9721233E+02  0.7561462E-02  0.1286270E+00
         -1   -1    0    0    0  501 -0.00000000000E+00  0.00000000000E+00  0.37804891001E+03  0.37804891001E+03  0.00000000000E+00 0.  1.
          1   -1    0    0  501    0  0.00000000000E+00 -0.00000000000E+00 -0.56504045329E+02  0.56504045329E+02  0.00000000000E+00 0. -1.
         25    2    1    2    0    0  0.40626156019E+02  0.47811442468E+02  0.16380313641E+03  0.21544739551E+03  0.12509873761E+03 0.  0.
          5    1    3    3  502    0  0.32588972407E+02 -0.22922571131E+02  0.13093274512E+03  0.13692458339E+03  0.41800000000E+01 0.  1.
         -5    1    3    3    0  502  0.80371836123E+01  0.70734013600E+02  0.32870391283E+02  0.78522812121E+02  0.41800000000E+01 0.  1.
        -11    1    1    2    0    0 -0.52100108871E+02 -0.25597440990E+02  0.17780993829E+03  0.18704551447E+03  0.00000000000E+00 0.  1.
         11    1    1    2    0    0  0.11473952851E+02 -0.22214001478E+02 -0.20068210010E+02  0.32060045364E+02  0.00000000000E+00 0. -1.
</event>
<event>
 7    1  0.2384639E-009  0.1159241E+03  0.7561462E-02  0.1249977E+00
         -1   -1    0    0    0  501 -0.00000000000E+00  0.00000000000E+00  0.28803542680E+02  0.28803542680E+02  0.00000000000E+00 0.  1.
          1   -1    0    0  501    0  0.00000000000E+00 -0.00000000000E+00 -0.54890877531E+03  0.54890877531E+03  0.00000000000E+00 0. -1.
         25    2    1    2    0    0 -0.43886220601E+02 -0.26225250145E+02 -0.36869744360E+03  0.39268174250E+03  0.12508949547E+03 0.  0.
          5    1    3    3  502    0 -0.69877751062E+02  0.23861237571E+02 -0.15691373476E+03  0.17346945353E+03  0.41800000000E+01 0.  1.
         -5    1    3    3    0  502  0.25991530461E+02 -0.50086487716E+02 -0.21178370883E+03  0.21921228897E+03  0.41800000000E+01 0.  1.
        -11    1    1    2    0    0 -0.48257555880E+01 -0.28001380003E+02 -0.71137308956E+02  0.76602101306E+02  0.00000000000E+00 0.  1.
         11    1    1    2    0    0  0.48711976189E+02  0.54226630148E+02 -0.80270480075E+02  0.10842847418E+03  0.00000000000E+00 0. -1.
</event>
<event>
 7    1  0.2384639E-009  0.1205576E+03  0.7561462E-02  0.1242180E+00
          2   -1    0    0  501    0  0.00000000000E+00  0.00000000000E+00  0.44617584660E+03  0.44617584660E+03  0.00000000000E+00 0. -1.
         -2   -1    0    0    0  501 -0.00000000000E+00 -0.00000000000E+00 -0.10022347383E+03  0.10022347383E+03  0.00000000000E+00 0.  1.
         25    2    1    2    0    0 -0.69479141960E+02  0.96662959425E+01 -0.35152579213E+02  0.14767900741E+03  0.12511033914E+03 0.  0.
          5    1    3    3  502    0 -0.62667766631E+02 -0.46098972589E+02 -0.45760333018E+02  0.90353996736E+02  0.41800000000E+01 0. -1.
         -5    1    3    3    0  502 -0.68113753285E+01  0.55765268531E+02  0.10607753804E+02  0.57325010676E+02  0.41800000000E+01 0. -1.
        -11    1    1    2    0    0  0.43968143944E+02  0.34485569358E+02  0.11601887401E+03  0.12877434256E+03  0.00000000000E+00 0.  1.
         11    1    1    2    0    0  0.25510998016E+02 -0.44151865301E+02  0.26508607798E+03  0.26994597046E+03  0.00000000000E+00 0. -1.
</event>
<event>
 7    1  0.2384639E-009  0.7690121E+02  0.7561462E-02  0.1338083E+00
         -2   -1    0    0    0  501 -0.00000000000E+00  0.00000000000E+00  0.10654659816E+03  0.10654659816E+03  0.00000000000E+00 0.  1.
          2   -1    0    0  501    0  0.00000000000E+00 -0.00000000000E+00 -0.16433381265E+03  0.16433381265E+03  0.00000000000E+00 0. -1.
         25    2    1    2    0    0  0.30144055034E+02 -0.21754189581E+02 -0.10046474806E+03  0.16468810114E+03  0.12508835371E+03 0.  0.
          5    1    3    3  502    0 -0.88186421000E+01 -0.37941668808E+02 -0.11370971441E+03  0.12026932374E+03  0.41800000000E+01 0. -1.
         -5    1    3    3    0  502  0.38962697134E+02  0.16187479227E+02  0.13244966355E+02  0.44418777396E+02  0.41800000000E+01 0. -1.
        -11    1    1    2    0    0 -0.22996799067E+02 -0.19627099449E+02  0.54710372405E+02  0.62508404626E+02  0.00000000000E+00 0. -1.
         11    1    1    2    0    0 -0.71472559665E+01  0.41381289031E+02 -0.12032838835E+02  0.43683905046E+02  0.00000000000E+00 0.  1.
</event>
<event>
 7    1  0.2384639E-009  0.9127133E+02  0.7561462E-02  0.1299802E+00
         -2   -1    0    0    0  501 -0.00000000000E+00  0.00000000000E+00  0.12586313078E+03  0.12586313078E+03  0.00000000000E+00 0. -1.
          2   -1    0    0  501    0  0.00000000000E+00 -0.00000000000E+00 -0.19381774996E+03  0.19381774996E+03  0.00000000000E+00 0.  1.
         25    2    1    2    0    0  0.44073299701E+02 -0.21491684561E+02 -0.15112691350E+03  0.20221840429E+03  0.12509432759E+03 0.  0.
          5    1    3    3  502    0  0.77086500995E+02 -0.25956478182E+02 -0.49779711395E+02  0.95454488956E+02  0.41800000000E+01 0.  1.
         -5    1    3    3    0  502 -0.33013201294E+02  0.44647936215E+01 -0.10134720211E+03  0.10676391533E+03  0.41800000000E+01 0.  1.
        -11    1    1    2    0    0  0.91092793970E+01  0.91790189920E+01 -0.49126725920E+01  0.13833571946E+02  0.00000000000E+00 0.  1.
         11    1    1    2    0    0 -0.53182579098E+02  0.12312665569E+02  0.88084966912E+02  0.10362890450E+03  0.00000000000E+00 0. -1.
</event>
<event>
 7    1  0.2384639E-009  0.5879348E+02  0.7561462E-02  0.1402966E+00
         -2   -1    0    0    0  501 -0.00000000000E+00  0.00000000000E+00  0.36140648577E+03  0.36140648577E+03  0.00000000000E+00 0. -1.
          2   -1    0    0  501    0  0.00000000000E+00 -0.00000000000E+00 -0.35113428885E+02  0.35113428885E+02  0.00000000000E+00 0.  1.
         25    2    1    2    0    0  0.19211653928E+02 -0.16079620651E+02  0.22582705291E+03  0.25937260875E+03  0.12509456621E+03 0.  0.
          5    1    3    3  502    0  0.46723727469E+02 -0.87745617354E+01  0.20333998090E+02  0.51875268872E+02  0.41800000000E+01 0. -1.
         -5    1    3    3    0  502 -0.27512073540E+02 -0.73050589157E+01  0.20549305482E+03  0.20749733988E+03  0.41800000000E+01 0. -1.
        -11    1    1    2    0    0 -0.16908021023E+02 -0.67069494719E+01 -0.12378516973E+02  0.22002091459E+02  0.00000000000E+00 0.  1.
         11    1    1    2    0    0 -0.23036329054E+01  0.22786570123E+02  0.11284452095E+03  0.11514521445E+03  0.00000000000E+00 0. -1.
</event>
<event>
 7    1  0.2384639E-009  0.1108669E+03  0.7561462E-02  0.1258973E+00
         -1   -1    0    0    0  501 -0.00000000000E+00  0.00000000000E+00  0.19143618749E+02  0.19143618749E+02  0.00000000000E+00 0.  1.
          1   -1    0    0  501    0  0.00000000000E+00 -0.00000000000E+00 -0.98789517007E+03  0.98789517007E+03  0.00000000000E+00 0. -1.
         25    2    1    2    0    0 -0.41433861029E+02  0.54197606034E+02 -0.71493711700E+03  0.72899720237E+03  0.12509074494E+03 0.  0.
          5    1    3    3  502    0 -0.16585909337E+02  0.87326468835E+02 -0.60379485069E+03  0.61031688381E+03  0.41800000000E+01 0. -1.
         -5    1    3    3    0  502 -0.24847951692E+02 -0.33128862801E+02 -0.11114226631E+03  0.11868031856E+03  0.41800000000E+01 0. -1.
        -11    1    1    2    0    0  0.54458411813E+02 -0.26597095845E+02 -0.23384138748E+03  0.24156762744E+03  0.00000000000E+00 0.  1.
         11    1    1    2    0    0 -0.13024550784E+02 -0.27600510189E+02 -0.19973046842E+02  0.36473959012E+02  0.00000000000E+00 0. -1.
</event>
<event>
 7    1  0.2384639E-009  0.1996654E+03  0.7561462E-02  0.1150022E+00
         -2   -1    0    0    0  501 -0.00000000000E+00  0.00000000000E+00  0.47282765618E+02  0.47282765618E+02  0.00000000000E+00 0.  1.
          2   -1    0    0  501    0  0.00000000000E+00 -0.00000000000E+00 -0.10612980508E+04  0.10612980508E+04  0.00000000000E+00 0. -1.
         25    2    1    2    0    0 -0.11763746930E+03  0.14467088938E+03 -0.67159826628E+03  0.70813805103E+03  0.12508807950E+03 0.  0.
          5    1    3    3  502    0 -0.90720885942E+02  0.58719530940E+02 -0.19403772739E+03  0.22214043871E+03  0.41800000000E+01 0. -1.
         -5    1    3    3    0  502 -0.26916583353E+02  0.85951358442E+02 -0.47756053889E+03  0.48599761233E+03  0.41800000000E+01 0. -1.
        -11    1    1    2    0    0  0.23888871819E+02 -0.88640902357E+02 -0.20720363547E+03  0.22663017081E+03  0.00000000000E+00 0. -1.
         11    1    1    2    0    0  0.93748597476E+02 -0.56029987024E+02 -0.13521338342E+03  0.17381259457E+03  0.00000000000E+00 0.  1.
</event>
<event>
 7    1  0.2384639E-009  0.1448013E+03  0.7561462E-02  0.1207011E+00
         -2   -1    0    0    0  501 -0.00000000000E+00  0.00000000000E+00  0.36175181856E+02  0.36175181856E+02  0.00000000000E+00 0.  1.
          2   -1    0    0  501    0  0.00000000000E+00 -0.00000000000E+00 -0.75571063384E+03  0.75571063384E+03  0.00000000000E+00 0. -1.
         25    2    1    2    0    0  0.28940920133E+02 -0.11249630763E+03 -0.27292518615E+03  0.32191323900E+03  0.12508788958E+03 0.  0.
          5    1    3    3  502    0 -0.25738862237E+02 -0.10821054411E+03 -0.21455080754E+03  0.24170546601E+03  0.41800000000E+01 0. -1.
         -5    1    3    3    0  502  0.54679782370E+02 -0.42857635226E+01 -0.58374378614E+02  0.80207772987E+02  0.41800000000E+01 0. -1.
        -11    1    1    2    0    0  0.57821139351E+01  0.60425523580E+02 -0.34745268563E+03  0.35271524704E+03  0.00000000000E+00 0. -1.
         11    1    1    2    0    0 -0.34723034068E+02  0.52070784052E+02 -0.99157580196E+02  0.11725732965E+03  0.00000000000E+00 0.  1.
</event>
<event>
 7    1  0.2384639E-009  0.1230846E+03  0.7561462E-02  0.1238093E+00
          2   -1    0    0  501    0  0.00000000000E+00  0.00000000000E+00  0.87096546247E+03  0.87096546247E+03  0.00000000000E+00 0. -1.
         -2   -1    0    0    0  501 -0.00000000000E+00 -0.00000000000E+00 -0.21144846978E+02  0.21144846978E+02  0.00000000000E+00 0.  1.
         25    2    1    2    0    0  0.39258346046E+02  0.50745651863E+02  0.62571219032E+03  0.64131049109E+03  0.12508821666E+03 0.  0.
          5    1    3    3  502    0  0.72285106270E+02 -0.16412925627E+01  0.42799197783E+03  0.43407653233E+03  0.41800000000E+01 0.  1.
         -5    1    3    3    0  502 -0.33026760223E+02  0.52386944425E+02  0.19772021249E+03  0.20723395876E+03  0.41800000000E+01 0.  1.
        -11    1    1    2    0    0 -0.23298242654E+02 -0.77277327371E+02  0.14687577735E+03  0.16759202669E+03  0.00000000000E+00 0. -1.
         11    1    1    2    0    0 -0.15960103393E+02  0.26531675508E+02  0.77232647816E+02  0.83207791668E+02  0.00000000000E+00 0.  1.
</event>
<event>
 7    1  0.2384639E-009  0.9380235E+02  0.7561462E-02  0.1293896E+00
         -1   -1    0    0    0  501 -0.00000000000E+00  0.00000000000E+00  0.49129112241E+03  0.49129112241E+03  0.00000000000E+00 0.  1.
          1   -1    0    0  501    0  0.00000000000E+00 -0.00000000000E+00 -0.34608961916E+02  0.34608961916E+02  0.00000000000E+00 0. -1.
         25    2    1    2    0    0  0.64880974631E+01 -0.76311636234E+02  0.26088475442E+03  0.29928780070E+03  0.12508705498E+03 0.  0.
          5    1    3    3  502    0 -0.23126068984E+02 -0.17596584662E+02  0.21954708294E+03  0.22150135188E+03  0.41800000000E+01 0.  1.
         -5    1    3    3    0  502  0.29614166447E+02 -0.58715051572E+02  0.41337671480E+02  0.77786448813E+02  0.41800000000E+01 0.  1.
        -11    1    1    2    0    0 -0.29012786583E+02  0.36676740244E+02  0.32190973102E+02  0.56773090540E+02  0.00000000000E+00 0. -1.
         11    1    1    2    0    0  0.22524689119E+02  0.39634895990E+02  0.16360643297E+03  0.16983919309E+03  0.00000000000E+00 0.  1.
</event>
<event>
 7    1  0.2384639E-009  0.8166678E+02  0.7561462E-02  0.1324387E+00
         -2   -1    0    0    0  501 -0.00000000000E+00  0.00000000000E+00  0.55400068496E+02  0.55400068496E+02  0.00000000000E+00 0.  1.
          2   -1    0    0  501    0  0.00000000000E+00 -0.00000000000E+00 -0.43006840510E+03  0.43006840510E+03  0.00000000000E+00 0. -1.
         25    2    1    2    0    0  0.16172056903E+02  0.32508295682E+02 -0.35872761177E+03  0.38164285987E+03  0.12508976111E+03 0.  0.
          5    1    3    3  502    0 -0.35979569764E+02  0.34023411094E+02 -0.57927555182E+02  0.76322971590E+02  0.41800000000E+01 0. -1.
         -5    1    3    3    0  502  0.52151626667E+02 -0.15151154122E+01 -0.30080005658E+03  0.30531988828E+03  0.41800000000E+01 0. -1.
        -11    1    1    2    0    0 -0.39474470091E+01  0.13306700195E+02  0.32927503524E+02  0.35733333126E+02  0.00000000000E+00 0.  1.
         11    1    1    2    0    0 -0.12224609894E+02 -0.45814995877E+02 -0.48868228364E+02  0.68092280603E+02  0.00000000000E+00 0. -1.
</event>
<event>
 7    1  0.2384639E-009  0.1205141E+03  0.7561462E-02  0.1242251E+00
          2   -1    0    0  501    0  0.00000000000E+00  0.00000000000E+00  0.11242524181E+04  0.11242524181E+04  0.00000000000E+00 0. -1.
         -2   -1    0    0    0  501 -0.00000000000E+00 -0.00000000000E+00 -0.19402535650E+02  0.19402535650E+02  0.00000000000E+00 0.  1.
         25    2    1    2    0    0  0.52347841346E+02 -0.31504047519E+02  0.90572144834E+03  0.91635751568E+03  0.12508778146E+03 0.  0.
          5    1    3    3  502    0 -0.24660876084E+02  0.25403943805E+02  0.13227556091E+03  0.13699567724E+03  0.41800000000E+01 0. -1.
         -5    1    3    3    0  502  0.77008717430E+02 -0.56907991324E+02  0.77344588743E+03  0.77936183844E+03  0.41800000000E+01 0. -1.
        -11    1    1    2    0    0 -0.48817987825E+02 -0.23663923481E+02  0.94644592691E+02  0.10909067850E+03  0.00000000000E+00 0. -1.
         11    1    1    2    0    0 -0.35298535205E+01  0.55167971000E+02  0.10448384147E+03  0.11820675961E+03  0.00000000000E+00 0.  1.
</event>
<event>
 7    1  0.2524568E-009  0.8321015E+02  0.7561462E-02  0.1320181E+00
         -1   -1    0    0    0  501 -0.00000000000E+00  0.00000000000E+00  0.35625472908E+02  0.35625472908E+02  0.00000000000E+00 0.  1.
          1   -1    0    0  501    0  0.00000000000E+00 -0.00000000000E+00 -0.49543754474E+03  0.49543754474E+03  0.00000000000E+00 0. -1.
         25    2    1    2    0    0  0.49260771015E+02 -0.12845791376E+02 -0.37002460117E+03  0.39390043189E+03  0.12509079443E+03 0.  0.
          5    1    3    3  502    0  0.12273324597E+01  0.42092910146E+02 -0.24857066081E+03  0.25214711032E+03  0.41800000000E+01 0.  1.
         -5    1    3    3    0  502  0.48033438555E+02 -0.54938701522E+02 -0.12145394037E+03  0.14175332157E+03  0.41800000000E+01 0.  1.
        -11    1    1    2    0    0 -0.16261948059E+02  0.27060305904E+01  0.17747166205E+02  0.24222622990E+02  0.00000000000E+00 0.  1.
         11    1    1    2    0    0 -0.32998822956E+02  0.10139760786E+02 -0.10753463687E+03  0.11293996278E+03  0.00000000000E+00 0. -1.
</event>
<event>
 7    1  0.2384639E-009  0.1552688E+03  0.7561462E-02  0.1194144E+00
          3   -1    0    0  501    0  0.00000000000E+00  0.00000000000E+00  0.43479563673E+03  0.43479563673E+03  0.00000000000E+00 0. -1.
         -3   -1    0    0    0  501 -0.00000000000E+00 -0.00000000000E+00 -0.62172273638E+02  0.62172273638E+02  0.00000000000E+00 0.  1.
         25    2    1    2    0    0 -0.10465255396E+03 -0.61879184777E+02  0.17870047727E+03  0.24972925557E+03  0.12509856095E+03 0.  0.
          5    1    3    3  502    0  0.79248105379E+01 -0.43898578224E+02  0.97215159148E+01  0.45846134666E+02  0.41800000000E+01 0. -1.
         -5    1    3    3    0  502 -0.11257736450E+03 -0.17980606554E+02  0.16897896136E+03  0.20388312091E+03  0.41800000000E+01 0. -1.
        -11    1    1    2    0    0  0.21650698640E+02  0.65082897286E+02  0.69576324445E+02  0.97700569057E+02  0.00000000000E+00 0.  1.
         11    1    1    2    0    0  0.83001855320E+02 -0.32037125086E+01  0.12434656137E+03  0.14953808574E+03  0.00000000000E+00 0. -1.
</event>
<event>
 7    1  0.2384639E-009  0.6841129E+02  0.7561462E-02  0.1365580E+00
         -2   -1    0    0    0  501 -0.00000000000E+00  0.00000000000E+00  0.73047289812E+02  0.73047289812E+02  0.00000000000E+00 0.  1.
          2   -1    0    0  501    0  0.00000000000E+00 -0.00000000000E+00 -0.16544504062E+03  0.16544504062E+03  0.00000000000E+00 0. -1.
         25    2    1    2    0    0 -0.14991177150E+02  0.83788341196E+01 -0.42767828187E+02  0.13330791373E+03  0.12508785905E+03 0.  0.
          5    1    3    3  502    0  0.36715106628E+02  0.27315376026E+02  0.19641659521E+02  0.49973953324E+02  0.41800000000E+01 0. -1.
         -5    1    3    3    0  502 -0.51706283778E+02 -0.18936541906E+02 -0.62409487708E+02  0.83333960409E+02  0.41800000000E+01 0. -1.
        -11    1    1    2    0    0 -0.21976604570E+01 -0.16493443304E+02  0.23964652256E+02  0.29174782626E+02  0.00000000000E+00 0.  1.
         11    1    1    2    0    0  0.17188837607E+02  0.81146091844E+01 -0.73594574872E+02  0.76009634068E+02  0.00000000000E+00 0. -1.
</event>
<event>
 7    1  0.2384639E-009  0.5569783E+02  0.7561462E-02  0.1416827E+00
         -1   -1    0    0    0  501 -0.00000000000E+00  0.00000000000E+00  0.26147976602E+02  0.26147976602E+02  0.00000000000E+00 0.  1.
          1   -1    0    0  501    0  0.00000000000E+00 -0.00000000000E+00 -0.75319181122E+03  0.75319181122E+03  0.00000000000E+00 0. -1.
         25    2    1    2    0    0 -0.31354190420E+02 -0.17053236550E+02 -0.62410166613E+03  0.63751392135E+03  0.12508881691E+03 0.  0.
          5    1    3    3  502    0 -0.14336517952E+01 -0.24163998337E+02 -0.59322862477E+03  0.59373700223E+03  0.41800000000E+01 0.  1.
         -5    1    3    3    0  502 -0.29920538625E+02  0.71107617865E+01 -0.30873041360E+02  0.43776919119E+02  0.41800000000E+01 0.  1.
        -11    1    1    2    0    0  0.35130828993E+02 -0.31213553609E+01  0.15828385649E+01  0.35304721822E+02  0.00000000000E+00 0.  1.
         11    1    1    2    0    0 -0.37766385732E+01  0.20174591911E+02 -0.10452500705E+03  0.10652114464E+03  0.00000000000E+00 0. -1.
</event>
<event>
 7    1  0.2384639E-009  0.7592384E+02  0.7561462E-02  0.1341034E+00
          1   -1    0    0  501    0  0.00000000000E+00  0.00000000000E+00  0.25426296573E+03  0.25426296573E+03  0.00000000000E+00 0. -1.
         -1   -1    0    0    0  501 -0.00000000000E+00 -0.00000000000E+00 -0.46600058445E+02  0.46600058445E+02  0.00000000000E+00 0.  1.
         25    2    1    2    0    0 -0.96693996526E+01  0.11593823692E+02  0.13030050313E+03  0.18125510543E+03  0.12508908062E+03 0.  0.
          5    1    3    3  502    0 -0.46434357177E+02  0.13688116478E+02  0.13539097100E+03  0.14384610348E+03  0.41800000000E+01 0.  1.
         -5    1    3    3    0  502  0.36764957525E+02 -0.20942927863E+01 -0.50904678619E+01  0.37409001953E+02  0.41800000000E+01 0.  1.
        -11    1    1    2    0    0  0.34545731645E+02  0.68632983316E+01 -0.11149356460E+01  0.35238551622E+02  0.00000000000E+00 0.  1.
         11    1    1    2    0    0 -0.24876331993E+02 -0.18457122023E+02  0.78477339800E+02  0.84369367124E+02  0.00000000000E+00 0. -1.
</event>
<event>
 7    1  0.2384639E-009  0.1166595E+03  0.7561462E-02  0.1248712E+00
          1   -1    0    0  501    0  0.00000000000E+00  0.00000000000E+00  0.12044507767E+04  0.12044507767E+04  0.00000000000E+00 0. -1.
         -1   -1    0    0    0  501 -0.00000000000E+00 -0.00000000000E+00 -0.14099989829E+02  0.14099989829E+02  0.00000000000E+00 0.  1.
         25    2    1    2    0    0  0.22107775039E+02  0.56083862897E+02  0.88277740499E+03  0.89363228595E+03  0.12509421386E+03 0.  0.
          5    1    3    3  502    0 -0.32879546210E+02  0.68794181114E+02  0.37392306685E+03  0.38164071617E+03  0.41800000000E+01 0. -1.
         -5    1    3    3    0  502  0.54987321249E+02 -0.12710318217E+02  0.50885433814E+03  0.51199156979E+03  0.41800000000E+01 0. -1.
        -11    1    1    2    0    0 -0.50402296493E+02 -0.19330402903E+02  0.11813375147E+03  0.12988317522E+03  0.00000000000E+00 0.  1.
         11    1    1    2    0    0  0.28294521454E+02 -0.36753459995E+02  0.18943963038E+03  0.19503530533E+03  0.00000000000E+00 0. -1.
</event>
<event>
 7    1  0.2384639E-009  0.1060607E+03  0.7561462E-02  0.1268044E+00
          2   -1    0    0  501    0  0.00000000000E+00  0.00000000000E+00  0.58728060612E+03  0.58728060612E+03  0.00000000000E+00 0.  1.
         -2   -1    0    0    0  501 -0.00000000000E+00 -0.00000000000E+00 -0.27851118960E+02  0.27851118960E+02  0.00000000000E+00 0. -1.
         25    2    1    2    0    0 -0.51116633297E+02  0.34698132913E+02  0.24465159597E+03  0.28163693800E+03  0.12509232914E+03 0.  0.
          5    1    3    3  502    0  0.20609893318E+02  0.35079654776E+02  0.18127041409E+03  0.18582729968E+03  0.41800000000E+01 0.  1.
         -5    1    3    3    0  502 -0.71726526615E+02 -0.38152186285E+00  0.63381181875E+02  0.95809638320E+02  0.41800000000E+01 0.  1.
        -11    1    1    2    0    0  0.70307014172E+02 -0.15035454806E+02  0.14881092718E+03  0.16526897225E+03  0.00000000000E+00 0. -1.
         11    1    1    2    0    0 -0.19190380875E+02 -0.19662678107E+02  0.16596696402E+03  0.16822581482E+03  0.00000000000E+00 0.  1.
</event>
<event>
 7    1  0.2384639E-009  0.9299275E+02  0.7561462E-02  0.1295762E+00
         -2   -1    0    0    0  501 -0.00000000000E+00  0.00000000000E+00  0.60224517851E+02  0.60224517851E+02  0.00000000000E+00 0.  1.
          2   -1    0    0  501    0  0.00000000000E+00 -0.00000000000E+00 -0.20818591359E+03  0.20818591359E+03  0.00000000000E+00 0. -1.
         25    2    1    2    0    0  0.25511889102E+02 -0.10624773063E+02 -0.96993515782E+02  0.16068432567E+03  0.12509183875E+03 0.  0.
          5    1    3    3  502    0  0.76369730793E+02 -0.49725218794E+01 -0.61493065718E+02  0.98264598339E+02  0.41800000000E+01 0.  1.
         -5    1    3    3    0  502 -0.50857841691E+02 -0.56522511835E+01 -0.35500450065E+02  0.62419727328E+02  0.41800000000E+01 0.  1.
        -11    1    1    2    0    0  0.11984259301E+02  0.16135989070E+02 -0.64441486710E+02  0.67503317131E+02  0.00000000000E+00 0. -1.
         11    1    1    2    0    0 -0.37496148403E+02 -0.55112160068E+01  0.13473606757E+02  0.40222788640E+02  0.00000000000E+00 0.  1.
</event>
<event>
 7    1  0.2384639E-009  0.9124614E+02  0.7561462E-02  0.1299862E+00
         -1   -1    0    0    0  501 -0.00000000000E+00  0.00000000000E+00  0.42211330469E+02  0.42211330469E+02  0.00000000000E+00 0.  1.
          1   -1    0    0  501    0  0.00000000000E+00 -0.00000000000E+00 -0.38665640608E+03  0.38665640608E+03  0.00000000000E+00 0. -1.
         25    2    1    2    0    0 -0.54283780820E+02  0.28010400507E+02 -0.14097688945E+03  0.19812607679E+03  0.12509255593E+03 0.  0.
          5    1    3    3  502    0 -0.20247758818E+02  0.44948968398E+02 -0.15074063436E+03  0.15865242747E+03  0.41800000000E+01 0. -1.
         -5    1    3    3    0  502 -0.34036022001E+02 -0.16938567891E+02  0.97637449052E+01  0.39473649318E+02  0.41800000000E+01 0. -1.
        -11    1    1    2    0    0  0.55620683945E+02 -0.48765586281E+02 -0.19450184297E+03  0.20809303161E+03  0.00000000000E+00 0. -1.
         11    1    1    2    0    0 -0.13369031256E+01  0.20755185774E+02 -0.89663431896E+01  0.22648628141E+02  0.00000000000E+00 0.  1.
</event>
<event>
 7    1  0.2384639E-009  0.9883119E+02  0.7561462E-02  0.1282773E+00
         -1   -1    0    0    0  501 -0.00000000000E+00  0.00000000000E+00  0.22666013121E+03  0.22666013121E+03  0.00000000000E+00 0.  1.
          1   -1    0    0  501    0  0.00000000000E+00 -0.00000000000E+00 -0.85723121398E+02  0.85723121398E+02  0.00000000000E+00 0. -1.
         25    2    1    2    0    0  0.80567015824E+02 -0.28118571850E+01  0.40450595995E+02  0.15420944649E+03  0.12508138186E+03 0.  0.
          5    1    3    3  502    0  0.28285204230E+02 -0.74231041999E+01  0.81987262429E+02  0.87146651427E+02  0.41800000000E+01 0. -1.
         -5    1    3    3    0  502  0.52281811594E+02  0.46112470149E+01 -0.41536666434E+02  0.67062795058E+02  0.41800000000E+01 0. -1.
        -11    1    1    2    0    0 -0.49874665836E+02  0.42342298496E+02  0.81816048145E+02  0.10475790313E+03  0.00000000000E+00 0.  1.
         11    1    1    2    0    0 -0.30692349988E+02 -0.39530441311E+02  0.18670365669E+02  0.53415902990E+02  0.00000000000E+00 0. -1.
</event>
<event>
 7    1  0.2384639E-009  0.1191676E+03  0.7561462E-02  0.1244477E+00
          2   -1    0    0  501    0  0.00000000000E+00  0.00000000000E+00  0.53133901709E+03  0.53133901709E+03  0.00000000000E+00 0. -1.
         -2   -1    0    0    0  501 -0.00000000000E+00 -0.00000000000E+00 -0.31856284462E+02  0.31856284462E+02  0.00000000000E+00 0.  1.
         25    2    1    2    0    0  0.46407151819E+02 -0.52790471355E+02  0.24817841410E+03  0.28666621996E+03  0.12507813091E+03 0.  0.
          5    1    3    3  502    0 -0.31041007378E+02 -0.40206239472E+01  0.12779514671E+02  0.34066082123E+02  0.41800000000E+01 0.  1.
         -5    1    3    3    0  502  0.77448159197E+02 -0.48769847407E+02  0.23539889943E+03  0.25260013783E+03  0.41800000000E+01 0.  1.
        -11    1    1    2    0    0 -0.47076217802E+02 -0.13397816140E+02  0.97898993680E+02  0.10945265974E+03  0.00000000000E+00 0. -1.
         11    1    1    2    0    0  0.66906598282E+00  0.66188287494E+02  0.15340532484E+03  0.16707642186E+03  0.00000000000E+00 0.  1.
</event>
<event>
 7    1  0.2384639E-009  0.9852203E+02  0.7561462E-02  0.1283435E+00
         -2   -1    0    0    0  501 -0.00000000000E+00  0.00000000000E+00  0.46345829312E+02  0.46345829312E+02  0.00000000000E+00 0.  1.
          2   -1    0    0  501    0  0.00000000000E+00 -0.00000000000E+00 -0.29784752059E+03  0.29784752059E+03  0.00000000000E+00 0. -1.
         25    2    1    2    0    0  0.32809436350E+02 -0.35651384332E+02 -0.14320268141E+03  0.19621886583E+03  0.12508938814E+03 0.  0.
          5    1    3    3  502    0  0.60530933692E+02 -0.52399964866E+02 -0.14255961872E+03  0.16355570165E+03  0.41800000000E+01 0. -1.
         -5    1    3    3    0  502 -0.27721497342E+02  0.16748580534E+02 -0.64306269407E+00  0.32663164183E+02  0.41800000000E+01 0. -1.
        -11    1    1    2    0    0 -0.28476795968E+02  0.56314349067E+02 -0.35990250971E+02  0.72646624040E+02  0.00000000000E+00 0.  1.
         11    1    1    2    0    0 -0.43326403825E+01 -0.20662964736E+02 -0.72308758897E+02  0.75327860036E+02  0.00000000000E+00 0. -1.
</event>
<event>
 7    1  0.2384639E-009  0.7843535E+02  0.7561462E-02  0.1333551E+00
         -1   -1    0    0    0  501 -0.00000000000E+00  0.00000000000E+00  0.33859637454E+02  0.33859637454E+02  0.00000000000E+00 0.  1.
          1   -1    0    0  501    0  0.00000000000E+00 -0.00000000000E+00 -0.45662118280E+03  0.45662118280E+03  0.00000000000E+00 0. -1.
         25    2    1    2    0    0 -0.21290668302E+02  0.29862277857E+02 -0.14129257948E+03  0.19223617159E+03  0.12508438933E+03 0.  0.
          5    1    3    3  502    0 -0.26381130986E+01 -0.12207462139E+02 -0.14526142407E+03  0.14585724355E+03  0.41800000000E+01 0.  1.
         -5    1    3    3    0  502 -0.18652555204E+02  0.42069739996E+02  0.39688445830E+01  0.46378928042E+02  0.41800000000E+01 0.  1.
        -11    1    1    2    0    0 -0.33173380222E+02 -0.27308609804E+02 -0.10213323583E+03  0.11080357028E+03  0.00000000000E+00 0.  1.
         11    1    1    2    0    0  0.54464048524E+02 -0.25536680525E+01 -0.17933573003E+03  0.18744107839E+03  0.00000000000E+00 0. -1.
</event>
<event>
 7    1  0.2384639E-009  0.1040292E+03  0.7561462E-02  0.1272044E+00
          1   -1    0    0  501    0  0.00000000000E+00  0.00000000000E+00  0.31813213352E+02  0.31813213352E+02  0.00000000000E+00 0. -1.
         -1   -1    0    0    0  501 -0.00000000000E+00 -0.00000000000E+00 -0.50357462422E+03  0.50357462422E+03  0.00000000000E+00 0.  1.
         25    2    1    2    0    0 -0.11922229564E+02 -0.30296480840E+01 -0.13056521853E+03  0.18122973797E+03  0.12508246604E+03 0.  0.
          5    1    3    3  502    0  0.12875564616E+02  0.55731413461E+02 -0.85774217378E+02  0.10318168140E+03  0.41800000000E+01 0. -1.
         -5    1    3    3    0  502 -0.24797794180E+02 -0.58761061545E+02 -0.44791001151E+02  0.78048056569E+02  0.41800000000E+01 0. -1.
        -11    1    1    2    0    0 -0.34073603442E+02 -0.15204612901E+02 -0.22178982681E+03  0.22490646496E+03  0.00000000000E+00 0.  1.
         11    1    1    2    0    0  0.45995833005E+02  0.18234260985E+02 -0.11940636553E+03  0.12925163464E+03  0.00000000000E+00 0. -1.
</event>
<event>
 7    1  0.2384639E-009  0.9838086E+02  0.7561462E-02  0.1283738E+00
          1   -1    0    0  501    0  0.00000000000E+00  0.00000000000E+00  0.65187343891E+03  0.65187343891E+03  0.00000000000E+00 0. -1.
         -1   -1    0    0    0  501 -0.00000000000E+00 -0.00000000000E+00 -0.19562883278E+02  0.19562883278E+02  0.00000000000E+00 0.  1.
         25    2    1    2    0    0  0.27191820622E+02  0.14545815913E+02  0.32281747934E+03  0.34757650585E+03  0.12508927446E+03 0.  0.
          5    1    3    3  502    0  0.31741774763E+02  0.53334826510E+02  0.28938837949E+03  0.29599873406E+03  0.41800000000E+01 0.  1.
         -5    1    3    3    0  502 -0.45499541418E+01 -0.38789010597E+02  0.33429099848E+02  0.51577771787E+02  0.41800000000E+01 0.  1.
        -11    1    1    2    0    0 -0.28452695152E+02  0.35343006928E+02  0.13955558485E+03  0.14674619335E+03  0.00000000000E+00 0.  1.
         11    1    1    2    0    0  0.12608745306E+01 -0.49888822841E+02  0.16993749145E+03  0.17711362299E+03  0.00000000000E+00 0. -1.
</event>
<event>
 7    1  0.2384639E-009  0.9501909E+02  0.7561462E-02  0.1291133E+00
          2   -1    0    0  501    0  0.00000000000E+00  0.00000000000E+00  0.31100597998E+03  0.31100597998E+03  0.00000000000E+00 0. -1.
         -2   -1    0    0    0  501 -0.00000000000E+00 -0.00000000000E+00 -0.33247870838E+02  0.33247870838E+02  0.00000000000E+00 0.  1.
         25    2    1    2    0    0 -0.15873617673E+02  0.37119699863E+02  0.23336759262E+03  0.26783841684E+03  0.12508853022E+03 0.  0.
          5    1    3    3  502    0  0.21342800401E+02 -0.38075014795E+02  0.11160358311E+03  0.11990852365E+03  0.41800000000E+01 0. -1.
         -5    1    3    3    0  502 -0.37216418074E+02  0.75194714657E+02  0.12176400951E+03  0.14792989319E+03  0.41800000000E+01 0. -1.
        -11    1    1    2    0    0  0.28072101025E+02 -0.59257186654E+01  0.19653964384E+02  0.34776936519E+02  0.00000000000E+00 0. -1.
         11    1    1    2    0    0 -0.12198483352E+02 -0.31193981197E+02  0.24736552131E+02  0.41638497456E+02  0.00000000000E+00 0.  1.
</event>
<event>
 7    1  0.2384639E-009  0.9080768E+02  0.7561462E-02  0.1300907E+00
         -2   -1    0    0    0  501 -0.00000000000E+00  0.00000000000E+00  0.32845687018E+02  0.32845687018E+02  0.00000000000E+00 0.  1.
          2   -1    0    0  501    0  0.00000000000E+00 -0.00000000000E+00 -0.49138507565E+03  0.49138507565E+03  0.00000000000E+00 0. -1.
         25    2    1    2    0    0 -0.41594752918E+02  0.22863265208E+02 -0.16464829599E+03  0.21215422998E+03  0.12508998185E+03 0.  0.
          5    1    3    3  502    0 -0.42255531782E+02  0.45889004437E+02 -0.20026185616E+02  0.65649457002E+02  0.41800000000E+01 0. -1.
         -5    1    3    3    0  502  0.66077886423E+00 -0.23025739229E+02 -0.14462211037E+03  0.14650477298E+03  0.41800000000E+01 0. -1.
        -11    1    1    2    0    0  0.24173211035E+02  0.30863194728E+02 -0.61593446304E+02  0.73011187829E+02  0.00000000000E+00 0.  1.
         11    1    1    2    0    0  0.17421541882E+02 -0.53726459936E+02 -0.23229764634E+03  0.23906534486E+03  0.00000000000E+00 0. -1.
</event>
<event>
 7    1  0.2384639E-009  0.7285610E+02  0.7561462E-02  0.1350642E+00
          2   -1    0    0  501    0  0.00000000000E+00  0.00000000000E+00  0.16338912738E+03  0.16338912738E+03  0.00000000000E+00 0.  1.
         -2   -1    0    0    0  501 -0.00000000000E+00 -0.00000000000E+00 -0.87548212243E+02  0.87548212243E+02  0.00000000000E+00 0. -1.
         25    2    1    2    0    0  0.68815716884E+01 -0.28475750286E+02  0.83133576820E+02  0.15302803681E+03  0.12509262198E+03 0.  0.
          5    1    3    3  502    0  0.38997443274E+02 -0.35927741237E+01  0.10103130160E+03  0.10843664008E+03  0.41800000000E+01 0. -1.
         -5    1    3    3    0  502 -0.32115871585E+02 -0.24882976162E+02 -0.17897724783E+02  0.44591396735E+02  0.41800000000E+01 0. -1.
        -11    1    1    2    0    0 -0.56667122481E+01  0.46789412491E+02  0.30330987506E+02  0.56047565086E+02  0.00000000000E+00 0.  1.
         11    1    1    2    0    0 -0.12148594403E+01 -0.18313662205E+02 -0.37623649190E+02  0.41861737723E+02  0.00000000000E+00 0. -1.
</event>
<event>
 7    1  0.2384639E-009  0.7739883E+02  0.7561462E-02  0.1336600E+00
          2   -1    0    0  501    0  0.00000000000E+00  0.00000000000E+00  0.42713872838E+02  0.42713872838E+02  0.00000000000E+00 0. -1.
         -2   -1    0    0    0  501 -0.00000000000E+00 -0.00000000000E+00 -0.25607135324E+03  0.25607135324E+03  0.00000000000E+00 0.  1.
         25    2    1    2    0    0  0.43481417975E+02  0.58209367710E+01 -0.12661224774E+03  0.18330799278E+03  0.12508653776E+03 0.  0.
          5    1    3    3  502    0  0.54139276964E+02 -0.13827947911E+02 -0.14036300672E+01  0.56051012756E+02  0.41800000000E+01 0.  1.
         -5    1    3    3    0  502 -0.10657858989E+02  0.19648884682E+02 -0.12520861767E+03  0.12725698003E+03  0.41800000000E+01 0.  1.
        -11    1    1    2    0    0 -0.33715359025E+02 -0.32978961872E+02 -0.57832518157E+02  0.74625314181E+02  0.00000000000E+00 0. -1.
         11    1    1    2    0    0 -0.97660589502E+01  0.27158025101E+02 -0.28912714507E+02  0.40851919109E+02  0.00000000000E+00 0.  1.
</event>
<event>
 7    1  0.2384639E-009  0.1152910E+03  0.7561462E-02  0.1251074E+00
          4   -1    0    0  501    0  0.00000000000E+00  0.00000000000E+00  0.27169039645E+02  0.27169039645E+02  0.00000000000E+00 0. -1.
         -4   -1    0    0    0  501 -0.00000000000E+00 -0.00000000000E+00 -0.59089250885E+03  0.59089250885E+03  0.00000000000E+00 0.  1.
         25    2    1    2    0    0 -0.41351138475E+02  0.45130792369E+02 -0.25632532288E+03  0.29171340190E+03  0.12508929860E+03 0.  0.
          5    1    3    3  502    0  0.35313444006E+02  0.66759242268E+01 -0.15370103740E+03  0.15790214878E+03  0.41800000000E+01 0.  1.
         -5    1    3    3    0  502 -0.76664582480E+02  0.38454868142E+02 -0.10262428548E+03  0.13381125312E+03  0.41800000000E+01 0.  1.
        -11    1    1    2    0    0  0.51658967558E+02 -0.66853141546E+02 -0.25651421161E+03  0.27006949517E+03  0.00000000000E+00 0.  1.
         11    1    1    2    0    0 -0.10307829084E+02  0.21722349178E+02 -0.50883934709E+02  0.56278651420E+02  0.00000000000E+00 0. -1.
</event>
<event>
 7    1  0.2384639E-009  0.7942038E+02  0.7561462E-02  0.1330704E+00
         -2   -1    0    0    0  501 -0.00000000000E+00  0.00000000000E+00  0.33682776102E+02  0.33682776102E+02  0.00000000000E+00 0.  1.
          2   -1    0    0  501    0  0.00000000000E+00 -0.00000000000E+00 -0.37479811638E+03  0.37479811638E+03  0.00000000000E+00 0. -1.
         25    2    1    2    0    0 -0.12138181367E+02  0.31508112751E+01 -0.24723716586E+03  0.27736478300E+03  0.12509094134E+03 0.  0.
          5    1    3    3  502    0  0.14871256575E+02  0.47723992877E+02 -0.41547239620E+02  0.65133549637E+02  0.41800000000E+01 0.  1.
         -5    1    3    3    0  502 -0.27009437941E+02 -0.44573181602E+02 -0.20568992624E+03  0.21223123336E+03  0.41800000000E+01 0.  1.
        -11    1    1    2    0    0  0.26104084769E+02 -0.21160506745E+02 -0.10163177110E+03  0.10704301557E+03  0.00000000000E+00 0. -1.
         11    1    1    2    0    0 -0.13965903402E+02  0.18009695470E+02  0.77535966827E+01  0.24073093907E+02  0.00000000000E+00 0.  1.
</event>
<event>
 7    1  0.2384639E-009  0.9093254E+02  0.7561462E-02  0.1300609E+00
         -2   -1    0    0    0  501 -0.00000000000E+00  0.00000000000E+00  0.12161943085E+03  0.12161943085E+03  0.00000000000E+00 0.  1.
          2   -1    0    0  501    0  0.00000000000E+00 -0.00000000000E+00 -0.11086630623E+03  0.11086630623E+03  0.00000000000E+00 0. -1.
         25    2    1    2    0    0  0.21348462658E+02 -0.30046246931E+02  0.27216085305E+02  0.13321622527E+03  0.12508922242E+03 0.  0.
          5    1    3    3  502    0  0.19018761637E+02 -0.59109213880E+02 -0.29830772892E+02  0.69014200502E+02  0.41800000000E+01 0. -1.
         -5    1    3    3    0  502  0.23297010207E+01  0.29062966949E+02  0.57046858196E+02  0.64202024772E+02  0.41800000000E+01 0. -1.
        -11    1    1    2    0    0 -0.41741383608E+02  0.47571314301E+02  0.68815030382E+01  0.63661040943E+02  0.00000000000E+00 0.  1.
         11    1    1    2    0    0  0.20392920950E+02 -0.17525067370E+02 -0.23344463720E+02  0.35608470868E+02  0.00000000000E+00 0. -1.
</event>
<event>
 7    1  0.3467421E-009  0.8197105E+02  0.7561462E-02  0.1323549E+00
          2   -1    0    0  501    0  0.00000000000E+00  0.00000000000E+00  0.10961386475E+03  0.10961386475E+03  0.00000000000E+00 0. -1.
         -2   -1    0    0    0  501 -0.00000000000E+00 -0.00000000000E+00 -0.12006349903E+03  0.12006349903E+03  0.00000000000E+00 0.  1.
         25    2    1    2    0    0 -0.31560737603E+02  0.35600258533E+01  0.13281088989E+02  0.12974234015E+03  0.12509170060E+03 0.  0.
          5    1    3    3  502    0  0.48040308018E+02 -0.67062618289E+01  0.44161735870E+01  0.48885786598E+02  0.41800000000E+01 0.  1.
         -5    1    3    3    0  502 -0.79601045621E+02  0.10266287682E+02  0.88649154019E+01  0.80856553549E+02  0.41800000000E+01 0.  1.
        -11    1    1    2    0    0  0.11716342393E+02  0.56524211718E+01 -0.57910001723E+02  0.59353103067E+02  0.00000000000E+00 0.  1.
         11    1    1    2    0    0  0.19844395210E+02 -0.92124470251E+01  0.34179278448E+02  0.40581920564E+02  0.00000000000E+00 0. -1.
</event>
<event>
 7    1  0.2384639E-009  0.1657175E+03  0.7561462E-02  0.1182389E+00
          1   -1    0    0  501    0  0.00000000000E+00  0.00000000000E+00  0.25640167502E+03  0.25640167502E+03  0.00000000000E+00 0. -1.
         -1   -1    0    0    0  501 -0.00000000000E+00 -0.00000000000E+00 -0.11646681336E+03  0.11646681336E+03  0.00000000000E+00 0.  1.
         25    2    1    2    0    0 -0.48057410967E+02  0.11845408088E+03  0.11144633464E+03  0.21074280351E+03  0.12510539436E+03 0.  0.
          5    1    3    3  502    0 -0.86526297741E+02  0.10066801354E+03  0.10111366496E+03  0.16692002514E+03  0.41800000000E+01 0.  1.
         -5    1    3    3    0  502  0.38468886774E+02  0.17786067343E+02  0.10332669677E+02  0.43822778367E+02  0.41800000000E+01 0.  1.
        -11    1    1    2    0    0 -0.21851191813E+02 -0.63382679681E+02 -0.45460917095E+01  0.67197511986E+02  0.00000000000E+00 0.  1.
         11    1    1    2    0    0  0.69908602780E+02 -0.55071401199E+02  0.33034618726E+02  0.94928172884E+02  0.00000000000E+00 0. -1.
</event>
<event>
 7    1  0.2384639E-009  0.8095026E+02  0.7561462E-02  0.1326376E+00
         -1   -1    0    0    0  501 -0.00000000000E+00  0.00000000000E+00  0.23976158889E+03  0.23976158889E+03  0.00000000000E+00 0.  1.
          1   -1    0    0  501    0  0.00000000000E+00 -0.00000000000E+00 -0.51027643427E+02  0.51027643427E+02  0.00000000000E+00 0. -1.
         25    2    1    2    0    0  0.56172287588E+01 -0.22109115836E+02  0.11084598964E+03  0.16868708585E+03  0.12509249878E+03 0.  0.
          5    1    3    3  502    0 -0.40375838282E+02  0.26100523760E+02  0.83705172150E+02  0.96620256169E+02  0.41800000000E+01 0.  1.
         -5    1    3    3    0  502  0.45993067041E+02 -0.48209639597E+02  0.27140817488E+02  0.72066829678E+02  0.41800000000E+01 0.  1.
        -11    1    1    2    0    0 -0.23421666163E+02  0.14275713658E+02  0.93323117578E+02  0.97270626198E+02  0.00000000000E+00 0.  1.
         11    1    1    2    0    0  0.17804437404E+02  0.78334021784E+01 -0.15435161750E+02  0.24831520276E+02  0.00000000000E+00 0. -1.
</event>
<event>
 7    1  0.2384639E-009  0.7754805E+02  0.7561462E-02  0.1336157E+00
          2   -1    0    0  501    0  0.00000000000E+00  0.00000000000E+00  0.10641634602E+03  0.10641634602E+03  0.00000000000E+00 0. -1.
         -2   -1    0    0    0  501 -0.00000000000E+00 -0.00000000000E+00 -0.22458828315E+03  0.22458828315E+03  0.00000000000E+00 0.  1.
         25    2    1    2    0    0  0.24849050742E+02  0.26203774436E+02  0.48186178987E+02  0.13883022353E+03  0.12509120673E+03 0.  0.
          5    1    3    3  502    0 -0.17610351855E+02  0.49503064141E+01 -0.36846456890E+02  0.41349290337E+02  0.41800000000E+01 0. -1.
         -5    1    3    3    0  502  0.42459402596E+02  0.21253468022E+02  0.85032635877E+02  0.97480933192E+02  0.41800000000E+01 0. -1.
        -11    1    1    2    0    0  0.32586187601E+01  0.27691199183E+02 -0.21918582726E+02  0.35466115901E+02  0.00000000000E+00 0. -1.
         11    1    1    2    0    0 -0.28107669502E+02 -0.53894973619E+02 -0.14443953340E+03  0.15670828974E+03  0.00000000000E+00 0.  1.
</event>
<event>
 7    1  0.2384639E-009  0.1313655E+03  0.7561462E-02  0.1225444E+00
          1   -1    0    0  501    0  0.00000000000E+00  0.00000000000E+00  0.25331247106E+03  0.25331247106E+03  0.00000000000E+00 0. -1.
         -1   -1    0    0    0  501 -0.00000000000E+00 -0.00000000000E+00 -0.79605811016E+02  0.79605811016E+02  0.00000000000E+00 0.  1.
         25    2    1    2    0    0  0.58759632696E+02  0.62723376259E+02  0.13030559732E+03  0.20002279793E+03  0.12507059861E+03 0.  0.
          5    1    3    3  502    0  0.95113660911E+02  0.64632764341E+02  0.10078196625E+03  0.15296561653E+03  0.41800000000E+01 0. -1.
         -5    1    3    3    0  502 -0.36354028215E+02 -0.19093880818E+01  0.29523631072E+02  0.47057181408E+02  0.41800000000E+01 0. -1.
        -11    1    1    2    0    0 -0.46905099277E+02 -0.78401102907E+02  0.71268531158E+01  0.91638492516E+02  0.00000000000E+00 0.  1.
         11    1    1    2    0    0 -0.11854533419E+02  0.15677726648E+02  0.36274209606E+02  0.41256991625E+02  0.00000000000E+00 0. -1.
</event>
<event>
 7    1  0.2384639E-009  0.2205767E+03  0.7561462E-02  0.1133454E+00
          2   -1    0    0  501    0  0.00000000000E+00  0.00000000000E+00  0.38281059171E+03  0.38281059171E+03  0.00000000000E+00 0. -1.
         -2   -1    0    0    0  501 -0.00000000000E+00 -0.00000000000E+00 -0.19114468303E+03  0.19114468303E+03  0.00000000000E+00 0.  1.
         25    2    1    2    0    0 -0.13968756934E+03  0.15495948953E+03 -0.42669941535E+02  0.24696639695E+03  0.12508643765E+03 0.  0.
          5    1    3    3  502    0 -0.13197786555E+03  0.10862380452E+03  0.15959141913E+02  0.17172493854E+03  0.41800000000E+01 0.  1.
         -5    1    3    3    0  502 -0.77097037914E+01  0.46335685010E+02 -0.58629083448E+02  0.75241458411E+02  0.41800000000E+01 0.  1.
        -11    1    1    2    0    0  0.11116498878E+03 -0.15920677446E+03  0.22378085544E+03  0.29628081785E+03  0.00000000000E+00 0. -1.
         11    1    1    2    0    0  0.28522580564E+02  0.42472849294E+01  0.10554994774E+02  0.30708059951E+02  0.00000000000E+00 0.  1.
</event>
<event>
 7    1  0.2384639E-009  0.1914304E+03  0.7561462E-02  0.1157177E+00
         -1   -1    0    0    0  501 -0.00000000000E+00  0.00000000000E+00  0.23272229363E+03  0.23272229363E+03  0.00000000000E+00 0.  1.
          1   -1    0    0  501    0  0.00000000000E+00 -0.00000000000E+00 -0.20861665786E+03  0.20861665786E+03  0.00000000000E+00 0. -1.
         25    2    1    2    0    0 -0.12831473491E+03  0.14097996446E+03  0.26455715460E+02  0.22953203121E+03  0.12508008194E+03 0.  0.
          5    1    3    3  502    0 -0.42634425895E+02  0.54379660275E+02 -0.50222895967E+02  0.85525747014E+02  0.41800000000E+01 0.  1.
         -5    1    3    3    0  502 -0.85680309014E+02  0.86600304183E+02  0.76678611426E+02  0.14400628419E+03  0.41800000000E+01 0.  1.
        -11    1    1    2    0    0  0.89801790803E+02 -0.11191879773E+03 -0.41829943648E+02  0.14946545789E+03  0.00000000000E+00 0. -1.
         11    1    1    2    0    0  0.38512944105E+02 -0.29061166727E+02  0.39479863960E+02  0.62341462394E+02  0.00000000000E+00 0.  1.
</event>
<event>
 7    1  0.2384639E-009  0.1265862E+03  0.7561462E-02  0.1232611E+00
         -3   -1    0    0    0  501 -0.00000000000E+00  0.00000000000E+00  0.56718714206E+02  0.56718714206E+02  0.00000000000E+00 0.  1.
          3   -1    0    0  501    0  0.00000000000E+00 -0.00000000000E+00 -0.28295118827E+03  0.28295118827E+03  0.00000000000E+00 0. -1.
         25    2    1    2    0    0 -0.14011409170E+02  0.61509680216E+02 -0.13157285564E+03  0.19219416449E+03  0.12508964855E+03 0.  0.
          5    1    3    3  502    0  0.44067395966E+02 -0.12432458595E+02 -0.43639304262E+02  0.63390556792E+02  0.41800000000E+01 0. -1.
         -5    1    3    3    0  502 -0.58078805135E+02  0.73942138810E+02 -0.87933551374E+02  0.12880360769E+03  0.41800000000E+01 0. -1.
        -11    1    1    2    0    0  0.18499290659E+02 -0.86108034446E+02 -0.74525581667E+02  0.11537278567E+03  0.00000000000E+00 0.  1.
         11    1    1    2    0    0 -0.44878814899E+01  0.24598354231E+02 -0.20134036762E+02  0.32102952317E+02  0.00000000000E+00 0. -1.
</event>
<event>
 7    1  0.2384639E-009  0.6808838E+02  0.7561462E-02  0.1366717E+00
          1   -1    0    0  501    0  0.00000000000E+00  0.00000000000E+00  0.48679863394E+02  0.48679863394E+02  0.00000000000E+00 0. -1.
         -1   -1    0    0    0  501 -0.00000000000E+00 -0.00000000000E+00 -0.32057094553E+03  0.32057094553E+03  0.00000000000E+00 0.  1.
         25    2    1    2    0    0  0.10967687612E+02  0.22919890406E+02 -0.23748072087E+03  0.26961134417E+03  0.12509025772E+03 0.  0.
          5    1    3    3  502    0 -0.15637349299E+02  0.25844138825E+02  0.96442739248E-01  0.30494719312E+02  0.41800000000E+01 0. -1.
         -5    1    3    3    0  502  0.26605036912E+02 -0.29242484193E+01 -0.23757716361E+03  0.23911662486E+03  0.41800000000E+01 0. -1.
        -11    1    1    2    0    0 -0.39148497597E+02 -0.30250083345E+02 -0.46700140540E+02  0.68033635306E+02  0.00000000000E+00 0.  1.
         11    1    1    2    0    0  0.28180809985E+02  0.73301929391E+01  0.12289779276E+02  0.31605829440E+02  0.00000000000E+00 0. -1.
</event>
<event>
 7    1  0.2384639E-009  0.1545486E+03  0.7561462E-02  0.1194993E+00
          2   -1    0    0  501    0  0.00000000000E+00  0.00000000000E+00  0.25920272369E+04  0.25920272369E+04  0.00000000000E+00 0. -1.
         -2   -1    0    0    0  501 -0.00000000000E+00 -0.00000000000E+00 -0.36014901902E+02  0.36014901902E+02  0.00000000000E+00 0.  1.
         25    2    1    2    0    0  0.39538584631E+02  0.12489191330E+03  0.23933166883E+04  0.24001610939E+04  0.12508883530E+03 0.  0.
          5    1    3    3  502    0  0.49655884145E+02  0.14598726070E+03  0.21974664888E+04  0.22028741292E+04  0.41800000000E+01 0. -1.
         -5    1    3    3    0  502 -0.10117299515E+02 -0.21095347393E+02  0.19585019947E+03  0.19728696476E+03  0.41800000000E+01 0. -1.
        -11    1    1    2    0    0 -0.15124268656E+02 -0.40998575842E+02  0.12555276850E+03  0.13294030391E+03  0.00000000000E+00 0. -1.
         11    1    1    2    0    0 -0.24414315975E+02 -0.83893337460E+02  0.37142878221E+02  0.94940740977E+02  0.00000000000E+00 0.  1.
</event>
<event>
 7    1  0.2384639E-009  0.1200096E+03  0.7561462E-02  0.1243081E+00
         -2   -1    0    0    0  501 -0.00000000000E+00  0.00000000000E+00  0.60533876148E+02  0.60533876148E+02  0.00000000000E+00 0.  1.
          2   -1    0    0  501    0  0.00000000000E+00 -0.00000000000E+00 -0.33715912820E+03  0.33715912820E+03  0.00000000000E+00 0. -1.
         25    2    1    2    0    0  0.63886568901E+02  0.25032359637E+02 -0.96234143416E+02  0.17209648740E+03  0.12509227755E+03 0.  0.
          5    1    3    3  502    0  0.61700835650E+01  0.49851141342E+02  0.72880669895E+01  0.50929309289E+02  0.41800000000E+01 0.  1.
         -5    1    3    3    0  502  0.57716485336E+02 -0.24818781704E+02 -0.10352221041E+03  0.12116717811E+03  0.41800000000E+01 0.  1.
        -11    1    1    2    0    0 -0.77943472042E+02 -0.53746965604E+02 -0.16472132978E+03  0.18999220413E+03  0.00000000000E+00 0. -1.
         11    1    1    2    0    0  0.14056903142E+02  0.28714605967E+02 -0.15669778860E+02  0.35604312819E+02  0.00000000000E+00 0.  1.
</event>
<event>
 7    1  0.2384639E-009  0.6254274E+02  0.7561462E-02  0.1387461E+00
          3   -1    0    0  501    0  0.00000000000E+00  0.00000000000E+00  0.14949653281E+02  0.14949653281E+02  0.00000000000E+00 0.  1.
         -3   -1    0    0    0  501 -0.00000000000E+00 -0.00000000000E+00 -0.84151610544E+03  0.84151610544E+03  0.00000000000E+00 0. -1.
         25    2    1    2    0    0  0.14438081654E+02  0.19563767992E+02 -0.61134417232E+03  0.62448420341E+03  0.12509046349E+03 0.  0.
          5    1    3    3  502    0  0.21746547137E+02 -0.81470708101E+01 -0.58455960685E+03  0.58503563433E+03  0.41800000000E+01 0. -1.
         -5    1    3    3    0  502 -0.73084654826E+01  0.27710838802E+02 -0.26784565468E+02  0.39448569076E+02  0.41800000000E+01 0. -1.
        -11    1    1    2    0    0  0.26790119751E+02  0.23776680157E+00 -0.14967984154E+03  0.15205861374E+03  0.00000000000E+00 0. -1.
         11    1    1    2    0    0 -0.41228201406E+02 -0.19801534794E+02 -0.65542438297E+02  0.79922941570E+02  0.00000000000E+00 0.  1.
</event>
<event>
 7    1  0.2384639E-009  0.1111480E+03  0.7561462E-02  0.1258459E+00
          1   -1    0    0  501    0  0.00000000000E+00  0.00000000000E+00  0.23187237786E+02  0.23187237786E+02  0.00000000000E+00 0. -1.
         -1   -1    0    0    0  501 -0.00000000000E+00 -0.00000000000E+00 -0.67527810418E+03  0.67527810418E+03  0.00000000000E+00 0.  1.
         25    2    1    2    0    0 -0.72194439891E+00 -0.36032004099E+02 -0.22977267516E+03  0.26408719781E+03  0.12509092403E+03 0.  0.
          5    1    3    3  502    0  0.55583778753E+02 -0.25371096473E+01 -0.15418626676E+03  0.16397216423E+03  0.41800000000E+01 0.  1.
         -5    1    3    3    0  502 -0.56305723152E+02 -0.33494894452E+02 -0.75586408401E+02  0.10011503358E+03  0.41800000000E+01 0.  1.
        -11    1    1    2    0    0  0.43609729868E+02  0.38103952887E+02 -0.26885256831E+03  0.27501895072E+03  0.00000000000E+00 0.  1.
         11    1    1    2    0    0 -0.42887785469E+02 -0.20719487875E+01 -0.15346562293E+03  0.15935919344E+03  0.00000000000E+00 0. -1.
</event>
<event>
 7    1  0.2384639E-009  0.1045883E+03  0.7561462E-02  0.1270933E+00
          2   -1    0    0  501    0  0.00000000000E+00  0.00000000000E+00  0.78765055131E+02  0.78765055131E+02  0.00000000000E+00 0. -1.
         -2   -1    0    0    0  501 -0.00000000000E+00 -0.00000000000E+00 -0.15933752156E+03  0.15933752156E+03  0.00000000000E+00 0.  1.
         25    2    1    2    0    0 -0.26236741527E+02 -0.43658817713E+02 -0.59983385286E+02  0.14778405893E+03  0.12509061753E+03 0.  0.
          5    1    3    3  502    0 -0.66024824044E+02 -0.53210973188E+01 -0.64034904093E+02  0.92225445561E+02  0.41800000000E+01 0.  1.
         -5    1    3    3    0  502  0.39788082517E+02 -0.38337720394E+02  0.40515188067E+01  0.55558613373E+02  0.41800000000E+01 0.  1.
        -11    1    1    2    0    0 -0.24000903833E+02  0.22450286342E+02 -0.29075552931E+01  0.32992614620E+02  0.00000000000E+00 0.  1.
         11    1    1    2    0    0  0.50237645360E+02  0.21208531370E+02 -0.17681525850E+02  0.57325903138E+02  0.00000000000E+00 0. -1.
</event>
<event>
 7    1  0.2384639E-009  0.1048171E+03  0.7561462E-02  0.1270480E+00
          2   -1    0    0  501    0  0.00000000000E+00  0.00000000000E+00  0.16003847466E+03  0.16003847466E+03  0.00000000000E+00 0. -1.
         -2   -1    0    0    0  501 -0.00000000000E+00 -0.00000000000E+00 -0.83469479295E+02  0.83469479295E+02  0.00000000000E+00 0.  1.
         25    2    1    2    0    0  0.32298535566E+02  0.34932661076E+01  0.60725482001E+02  0.14279611873E+03  0.12509096311E+03 0.  0.
          5    1    3    3  502    0 -0.24437950822E+02  0.46832500942E+02  0.72228516576E+01  0.53480263378E+02  0.41800000000E+01 0. -1.
         -5    1    3    3    0  502  0.56736486388E+02 -0.43339234835E+02  0.53502630344E+02  0.89315855353E+02  0.41800000000E+01 0. -1.
        -11    1    1    2    0    0 -0.44789210444E+02  0.26913897648E+02  0.34784700482E+02  0.62772658430E+02  0.00000000000E+00 0. -1.
         11    1    1    2    0    0  0.12490674878E+02 -0.30407163756E+02 -0.18941187116E+02  0.37939176796E+02  0.00000000000E+00 0.  1.
</event>
<event>
 7    1  0.2384639E-009  0.7085931E+02  0.7561462E-02  0.1357195E+00
          1   -1    0    0  501    0  0.00000000000E+00  0.00000000000E+00  0.10833825040E+04  0.10833825040E+04  0.00000000000E+00 0. -1.
         -1   -1    0    0    0  501 -0.00000000000E+00 -0.00000000000E+00 -0.11255927155E+02  0.11255927155E+02  0.00000000000E+00 0.  1.
         25    2    1    2    0    0 -0.13704939674E+02 -0.11963883041E+02  0.75586175438E+03  0.76635952541E+03  0.12509584559E+03 0.  0.
          5    1    3    3  502    0  0.81017242990E+01 -0.25952937449E+02  0.72633635516E+03  0.72685704655E+03  0.41800000000E+01 0. -1.
         -5    1    3    3    0  502 -0.21806663973E+02  0.13989054408E+02  0.29525399228E+02  0.39502478864E+02  0.41800000000E+01 0. -1.
        -11    1    1    2    0    0  0.46928977825E+02  0.23900693521E+02  0.19350132821E+03  0.20054011102E+03  0.00000000000E+00 0.  1.
         11    1    1    2    0    0 -0.33224038151E+02 -0.11936810479E+02  0.12276349430E+03  0.12773879477E+03  0.00000000000E+00 0. -1.
</event>
<event>
 7    1  0.2384639E-009  0.9902290E+02  0.7561462E-02  0.1282364E+00
          2   -1    0    0  501    0  0.00000000000E+00  0.00000000000E+00  0.78201866507E+03  0.78201866507E+03  0.00000000000E+00 0. -1.
         -2   -1    0    0    0  501 -0.00000000000E+00 -0.00000000000E+00 -0.15961982290E+02  0.15961982290E+02  0.00000000000E+00 0.  1.
         25    2    1    2    0    0 -0.98046942049E+01  0.12773402839E+02  0.53511837927E+03  0.54978027764E+03  0.12508949595E+03 0.  0.
          5    1    3    3  502    0  0.30796742288E+02  0.46144529028E+02  0.13223493646E+03  0.14346186850E+03  0.41800000000E+01 0.  1.
         -5    1    3    3    0  502 -0.40601436493E+02 -0.33371126189E+02  0.40288344282E+03  0.40631840914E+03  0.41800000000E+01 0.  1.
        -11    1    1    2    0    0 -0.16634051541E+02 -0.45017104698E+02  0.10285198936E+03  0.11349785505E+03  0.00000000000E+00 0.  1.
         11    1    1    2    0    0  0.26438745746E+02  0.32243701859E+02  0.12808631414E+03  0.13470251467E+03  0.00000000000E+00 0. -1.
</event>
<event>
 7    1  0.2384639E-009  0.1065948E+03  0.7561462E-02  0.1267009E+00
          2   -1    0    0  501    0  0.00000000000E+00  0.00000000000E+00  0.76079391872E+03  0.76079391872E+03  0.00000000000E+00 0. -1.
         -2   -1    0    0    0  501 -0.00000000000E+00 -0.00000000000E+00 -0.20250480511E+02  0.20250480511E+02  0.00000000000E+00 0.  1.
         25    2    1    2    0    0  0.40163692443E+00 -0.79600707953E+00  0.22525059283E+03  0.25765652465E+03  0.12509300613E+03 0.  0.
          5    1    3    3  502    0  0.20357148102E+02 -0.57660039290E+02  0.14321392577E+03  0.15577802972E+03  0.41800000000E+01 0.  1.
         -5    1    3    3    0  502 -0.19955511178E+02  0.56864032210E+02  0.82036667066E+02  0.10187849493E+03  0.41800000000E+01 0.  1.
        -11    1    1    2    0    0  0.44211569431E+02 -0.10558010327E+02  0.23849237799E+03  0.24278539662E+03  0.00000000000E+00 0.  1.
         11    1    1    2    0    0 -0.44613206355E+02  0.11354017407E+02  0.27680046738E+03  0.28060247796E+03  0.00000000000E+00 0. -1.
</event>
<event>
 7    1  0.2384639E-009  0.1022603E+03  0.7561462E-02  0.1275613E+00
          1   -1    0    0  501    0  0.00000000000E+00  0.00000000000E+00  0.44023336390E+02  0.44023336390E+02  0.00000000000E+00 0. -1.
         -1   -1    0    0    0  501 -0.00000000000E+00 -0.00000000000E+00 -0.33951615078E+03  0.33951615078E+03  0.00000000000E+00 0.  1.
         25    2    1    2    0    0 -0.20680151583E+02 -0.50410633538E+02 -0.15941693877E+03  0.20983391782E+03  0.12509041554E+03 0.  0.
          5    1    3    3  502    0  0.38738167803E+02 -0.64387458353E+02 -0.88263762289E+02  0.11599290742E+03  0.41800000000E+01 0.  1.
         -5    1    3    3    0  502 -0.59418319386E+02  0.13976824815E+02 -0.71153176483E+02  0.93841010407E+02  0.41800000000E+01 0.  1.
        -11    1    1    2    0    0 -0.99711839458E+01  0.29063770937E+02  0.18783835362E+01  0.30784015578E+02  0.00000000000E+00 0. -1.
         11    1    1    2    0    0  0.30651335529E+02  0.21346862601E+02 -0.13795425915E+03  0.14292155377E+03  0.00000000000E+00 0.  1.
</event>
<event>
 7    1  0.2384639E-009  0.1187362E+03  0.7561462E-02  0.1245197E+00
         -1   -1    0    0    0  501 -0.00000000000E+00  0.00000000000E+00  0.13092156082E+02  0.13092156082E+02  0.00000000000E+00 0.  1.
          1   -1    0    0  501    0  0.00000000000E+00 -0.00000000000E+00 -0.11864756486E+04  0.11864756486E+04  0.00000000000E+00 0. -1.
         25    2    1    2    0    0  0.35467125990E+02 -0.49401363292E+02 -0.68662524735E+03  0.70057097959E+03  0.12508819060E+03 0.  0.
          5    1    3    3  502    0 -0.50652150799E+01  0.34630893804E+02 -0.89571520595E+02  0.96257388866E+02  0.41800000000E+01 0.  1.
         -5    1    3    3    0  502  0.40532341070E+02 -0.84032257096E+02 -0.59705372676E+03  0.60431359073E+03  0.41800000000E+01 0.  1.
        -11    1    1    2    0    0 -0.52580005115E+02 -0.40250406017E+01 -0.20235794747E+03  0.20911622796E+03  0.00000000000E+00 0.  1.
         11    1    1    2    0    0  0.17112879124E+02  0.53426403893E+02 -0.28440029772E+03  0.28988059716E+03  0.00000000000E+00 0. -1.
</event>
<event>
 7    1  0.2384639E-009  0.1531023E+03  0.7561462E-02  0.1196712E+00
         -2   -1    0    0    0  501 -0.00000000000E+00  0.00000000000E+00  0.26972738925E+02  0.26972738925E+02  0.00000000000E+00 0. -1.
          2   -1    0    0  501    0  0.00000000000E+00 -0.00000000000E+00 -0.10478958809E+04  0.10478958809E+04  0.00000000000E+00 0.  1.
         25    2    1    2    0    0  0.91230240487E+02 -0.29150268811E+02 -0.64730831199E+03  0.66620484629E+03  0.12509257169E+03 0.  0.
          5    1    3    3  502    0  0.10390939311E+01  0.39664841096E+02 -0.10941285929E+03  0.11646040320E+03  0.41800000000E+01 0. -1.
         -5    1    3    3    0  502  0.90191146556E+02 -0.68815109907E+02 -0.53789545270E+03  0.54974444309E+03  0.41800000000E+01 0. -1.
        -11    1    1    2    0    0 -0.20300846630E+02  0.68655999662E+02 -0.98176428860E+02  0.12150877272E+03  0.00000000000E+00 0. -1.
         11    1    1    2    0    0 -0.70929393857E+02 -0.39505730851E+02 -0.27543840114E+03  0.28715500084E+03  0.00000000000E+00 0.  1.
</event>
<event>
 7    1  0.2384639E-009  0.1181904E+03  0.7561462E-02  0.1246113E+00
         -1   -1    0    0    0  501 -0.00000000000E+00  0.00000000000E+00  0.16093622108E+03  0.16093622108E+03  0.00000000000E+00 0.  1.
          1   -1    0    0  501    0  0.00000000000E+00 -0.00000000000E+00 -0.12343818243E+03  0.12343818243E+03  0.00000000000E+00 0. -1.
         25    2    1    2    0    0 -0.54494688779E+02 -0.71898510493E+02  0.12284214473E+02  0.15471660654E+03  0.12508900631E+03 0.  0.
          5    1    3    3  502    0  0.17030311165E+02  0.17692003181E+02  0.29615617895E+02  0.38698781612E+02  0.41800000000E+01 0.  1.
         -5    1    3    3    0  502 -0.71524999945E+02 -0.89590513674E+02 -0.17331403422E+02  0.11601782493E+03  0.41800000000E+01 0.  1.
        -11    1    1    2    0    0  0.11243836109E+02  0.43700157877E+02  0.54137591245E+02  0.70476992237E+02  0.00000000000E+00 0.  1.
         11    1    1    2    0    0  0.43250852671E+02  0.28198352616E+02 -0.28923767070E+02  0.59180804730E+02  0.00000000000E+00 0. -1.
</event>
<event>
 7    1  0.3242666E-009  0.9895029E+02  0.7561462E-02  0.1282519E+00
         -3   -1    0    0    0  501 -0.00000000000E+00  0.00000000000E+00  0.23186339102E+03  0.23186339102E+03  0.00000000000E+00 0.  1.
          3   -1    0    0  501    0  0.00000000000E+00 -0.00000000000E+00 -0.90496263336E+02  0.90496263336E+02  0.00000000000E+00 0. -1.
         25    2    1    2    0    0  0.79095538539E+02 -0.47841280035E+02  0.10662678929E+03  0.18857835451E+03  0.12509049246E+03 0.  0.
          5    1    3    3  502    0  0.21337560626E+02  0.90109252926E+01  0.10479524999E+03  0.10740579634E+03  0.41800000000E+01 0.  1.
         -5    1    3    3    0  502  0.57757977913E+02 -0.56852205328E+02  0.18315393007E+01  0.81172558167E+02  0.41800000000E+01 0.  1.
        -11    1    1    2    0    0 -0.48560937932E+02  0.22447085900E+02  0.64758783941E+02  0.83998431270E+02  0.00000000000E+00 0.  1.
         11    1    1    2    0    0 -0.30534600606E+02  0.25394194135E+02 -0.30018445550E+02  0.49782868571E+02  0.00000000000E+00 0. -1.
</event>
<event>
 7    1  0.2384639E-009  0.1162923E+03  0.7561462E-02  0.1249342E+00
         -2   -1    0    0    0  501 -0.00000000000E+00  0.00000000000E+00  0.17820467065E+02  0.17820467065E+02  0.00000000000E+00 0.  1.
          2   -1    0    0  501    0  0.00000000000E+00 -0.00000000000E+00 -0.92564823069E+03  0.92564823069E+03  0.00000000000E+00 0. -1.
         25    2    1    2    0    0  0.63876783352E+02  0.18153563485E+02 -0.56885544126E+03  0.58622009781E+03  0.12509074589E+03 0.  0.
          5    1    3    3  502    0  0.70316613071E+02 -0.41314494882E+02 -0.32853324933E+03  0.33853047407E+03  0.41800000000E+01 0. -1.
         -5    1    3    3    0  502 -0.64398297189E+01  0.59468058368E+02 -0.24032219193E+03  0.24768962374E+03  0.41800000000E+01 0. -1.
        -11    1    1    2    0    0 -0.36257181811E+02  0.21862204062E+02 -0.56396947593E+02  0.70520599098E+02  0.00000000000E+00 0.  1.
         11    1    1    2    0    0 -0.27619601541E+02 -0.40015767547E+02 -0.28257537478E+03  0.28672800085E+03  0.00000000000E+00 0. -1.
</event>
<event>
 7    1  0.2384639E-009  0.1038342E+03  0.7561462E-02  0.1272434E+00
          2   -1    0    0  501    0  0.00000000000E+00  0.00000000000E+00  0.17984496050E+04  0.17984496050E+04  0.00000000000E+00 0.  1.
         -2   -1    0    0    0  501 -0.00000000000E+00 -0.00000000000E+00 -0.12182015301E+02  0.12182015301E+02  0.00000000000E+00 0. -1.
         25    2    1    2    0    0 -0.50082273411E+00  0.59514175702E+02  0.14650219724E+04  0.14715564280E+04  0.12508698353E+03 0.  0.
          5    1    3    3  502    0 -0.15093299877E+01  0.85044107392E+02  0.58623254129E+03  0.59238572159E+03  0.41800000000E+01 0.  1.
         -5    1    3    3    0  502  0.10085072536E+01 -0.25529931690E+02  0.87878943107E+03  0.87917070644E+03  0.41800000000E+01 0.  1.
        -11    1    1    2    0    0  0.25689266298E+02 -0.65817716150E+02  0.28983336243E+03  0.29832078061E+03  0.00000000000E+00 0.  1.
         11    1    1    2    0    0 -0.25188443564E+02  0.63035404483E+01  0.31412254878E+02  0.40754411637E+02  0.00000000000E+00 0. -1.
</event>
<event>
 7    1  0.2384639E-009  0.1188884E+03  0.7561462E-02  0.1244942E+00
          2   -1    0    0  501    0  0.00000000000E+00  0.00000000000E+00  0.80534827042E+03  0.80534827042E+03  0.00000000000E+00 0. -1.
         -2   -1    0    0    0  501 -0.00000000000E+00 -0.00000000000E+00 -0.30252718474E+02  0.30252718474E+02  0.00000000000E+00 0.  1.
         25    2    1    2    0    0  0.76306616895E+01  0.10532917762E+03  0.31933709011E+03  0.35885355204E+03  0.12508889654E+03 0.  0.
          5    1    3    3  502    0 -0.67522507072E+01  0.13317209595E+02 -0.87330912691E+01  0.17795511909E+02  0.41800000000E+01 0.  1.
         -5    1    3    3    0  502  0.14382912397E+02  0.92011968021E+02  0.32807018138E+03  0.34105804013E+03  0.41800000000E+01 0.  1.
        -11    1    1    2    0    0 -0.33909667538E+02 -0.94898802753E+02  0.41554117591E+03  0.42758638565E+03  0.00000000000E+00 0. -1.
         11    1    1    2    0    0  0.26279005848E+02 -0.10430374862E+02  0.40217285925E+02  0.49161051202E+02  0.00000000000E+00 0.  1.
</event>
<event>
 7    1  0.2384639E-009  0.8131810E+02  0.7561462E-02  0.1325352E+00
          3   -1    0    0  501    0  0.00000000000E+00  0.00000000000E+00  0.18267369835E+03  0.18267369835E+03  0.00000000000E+00 0. -1.
         -3   -1    0    0    0  501 -0.00000000000E+00 -0.00000000000E+00 -0.11062860391E+03  0.11062860391E+03  0.00000000000E+00 0.  1.
         25    2    1    2    0    0  0.93975077856E+01 -0.41499314073E+02 -0.43505734203E+02  0.13911021767E+03  0.12509355511E+03 0.  0.
          5    1    3    3  502    0  0.94509323670E+01 -0.58866483680E+02 -0.79185340421E+02  0.99208737322E+02  0.41800000000E+01 0. -1.
         -5    1    3    3    0  502 -0.53424581358E-01  0.17367169607E+02  0.35679606217E+02  0.39901480350E+02  0.41800000000E+01 0. -1.
        -11    1    1    2    0    0 -0.35328725151E+02 -0.86098488174E+00  0.93300106809E+02  0.99768582461E+02  0.00000000000E+00 0. -1.
         11    1    1    2    0    0  0.25931217365E+02  0.42360298955E+02  0.22250721831E+02  0.54423502125E+02  0.00000000000E+00 0.  1.
</event>
<event>
 7    1  0.2384639E-009  0.2193315E+03  0.7561462E-02  0.1134382E+00
          1   -1    0    0  501    0  0.00000000000E+00  0.00000000000E+00  0.22188099351E+03  0.22188099351E+03  0.00000000000E+00 0. -1.
         -1   -1    0    0    0  501 -0.00000000000E+00 -0.00000000000E+00 -0.26138828892E+03  0.26138828892E+03  0.00000000000E+00 0.  1.
         25    2    1    2    0    0 -0.21216772116E+03  0.13231348070E+02 -0.61882994472E+02  0.25429578258E+03  0.12508648832E+03 0.  0.
          5    1    3    3  502    0 -0.19016872426E+03  0.10827752956E+02 -0.22327943683E+01  0.19053567039E+03  0.41800000000E+01 0.  1.
         -5    1    3    3    0  502 -0.21998996900E+02  0.24035951140E+01 -0.59650200104E+02  0.63760112190E+02  0.41800000000E+01 0.  1.
        -11    1    1    2    0    0  0.58478029554E+02 -0.38292033975E+02 -0.78785116270E+01  0.70342240169E+02  0.00000000000E+00 0.  1.
         11    1    1    2    0    0  0.15368969161E+03  0.25060685906E+02  0.30254210690E+02  0.15863125969E+03  0.00000000000E+00 0. -1.
</event>
<event>
 7    1  0.2384639E-009  0.1269025E+03  0.7561462E-02  0.1232126E+00
         -3   -1    0    0    0  501 -0.00000000000E+00  0.00000000000E+00  0.68719134654E+03  0.68719134654E+03  0.00000000000E+00 0.  1.
          3   -1    0    0  501    0  0.00000000000E+00 -0.00000000000E+00 -0.27454815237E+02  0.27454815237E+02  0.00000000000E+00 0. -1.
         25    2    1    2    0    0 -0.75560114127E+02 -0.12783821407E+02  0.44917674991E+03  0.47252503957E+03  0.12508958162E+03 0.  0.
          5    1    3    3  502    0  0.17357469192E+02 -0.38491844551E+02  0.75674787952E+02  0.86758571710E+02  0.41800000000E+01 0.  1.
         -5    1    3    3    0  502 -0.92917583319E+02  0.25708023144E+02  0.37350196195E+03  0.38576646786E+03  0.41800000000E+01 0.  1.
        -11    1    1    2    0    0  0.23757471381E+01  0.37541429997E+02  0.10328206750E+03  0.10991900931E+03  0.00000000000E+00 0.  1.
         11    1    1    2    0    0  0.73184366989E+02 -0.24757608590E+02  0.10727771390E+03  0.13220211290E+03  0.00000000000E+00 0. -1.
</event>
<event>
 7    1  0.2384639E-009  0.1076236E+03  0.7561462E-02  0.1265035E+00
         -4   -1    0    0    0  501 -0.00000000000E+00  0.00000000000E+00  0.51652433499E+02  0.51652433499E+02  0.00000000000E+00 0.  1.
          4   -1    0    0  501    0  0.00000000000E+00 -0.00000000000E+00 -0.49323571287E+03  0.49323571287E+03  0.00000000000E+00 0. -1.
         25    2    1    2    0    0  0.29858769536E+02 -0.68738128894E+02 -0.38911615094E+03  0.41554238184E+03  0.12509043012E+03 0.  0.
          5    1    3    3  502    0 -0.86641592428E+00 -0.84327021989E+02 -0.13614910312E+03  0.16020564283E+03  0.41800000000E+01 0.  1.
         -5    1    3    3    0  502  0.30725185460E+02  0.15588893095E+02 -0.25296704781E+03  0.25533673901E+03  0.41800000000E+01 0.  1.
        -11    1    1    2    0    0 -0.41945368364E+02  0.21090175386E+02  0.11824113769E+02  0.48415070912E+02  0.00000000000E+00 0.  1.
         11    1    1    2    0    0  0.12086598828E+02  0.47647953508E+02 -0.64291242207E+02  0.80930693616E+02  0.00000000000E+00 0. -1.
</event>
<event>
 7    1  0.2384639E-009  0.6211259E+02  0.7561462E-02  0.1389174E+00
          1   -1    0    0  501    0  0.00000000000E+00  0.00000000000E+00  0.65730600938E+03  0.65730600938E+03  0.00000000000E+00 0. -1.
         -1   -1    0    0    0  501 -0.00000000000E+00 -0.00000000000E+00 -0.18180238148E+02  0.18180238148E+02  0.00000000000E+00 0.  1.
         25    2    1    2    0    0  0.87433569223E+01 -0.10500141753E+02  0.35111447463E+03  0.37298209415E+03  0.12509024343E+03 0.  0.
          5    1    3    3  502    0  0.93816568995E+01  0.78442534556E+01  0.35373864958E+03  0.35397464939E+03  0.41800000000E+01 0.  1.
         -5    1    3    3    0  502 -0.63829997719E+00 -0.18344395208E+02 -0.26241749579E+01  0.19007444768E+02  0.41800000000E+01 0.  1.
        -11    1    1    2    0    0 -0.49921389242E+02  0.11725216510E+02  0.15557788311E+03  0.16381118252E+03  0.00000000000E+00 0.  1.
         11    1    1    2    0    0  0.41178032320E+02 -0.12250747575E+01  0.13243341350E+03  0.13869297086E+03  0.00000000000E+00 0. -1.
</event>
<event>
 7    1  0.2384639E-009  0.1120344E+03  0.7561462E-02  0.1256848E+00
          2   -1    0    0  501    0  0.00000000000E+00  0.00000000000E+00  0.48698027118E+03  0.48698027118E+03  0.00000000000E+00 0. -1.
         -2   -1    0    0    0  501 -0.00000000000E+00 -0.00000000000E+00 -0.45822944737E+02  0.45822944737E+02  0.00000000000E+00 0.  1.
         25    2    1    2    0    0 -0.91838930511E+02 -0.81093647800E+00  0.25223483127E+03  0.29615482882E+03  0.12510086233E+03 0.  0.
          5    1    3    3  502    0 -0.74491250348E+01 -0.21283190114E+00 -0.14238827405E+02  0.16605763068E+02  0.41800000000E+01 0.  1.
         -5    1    3    3    0  502 -0.84389805476E+02 -0.59810457686E+00  0.26647365868E+03  0.27954906576E+03  0.41800000000E+01 0.  1.
        -11    1    1    2    0    0  0.80591009728E+02 -0.39091545672E+02  0.16758871379E+03  0.19002377952E+03  0.00000000000E+00 0. -1.
         11    1    1    2    0    0  0.11247920783E+02  0.39902482150E+02  0.21333781384E+02  0.46624607578E+02  0.00000000000E+00 0.  1.
</event>
<event>
 7    1  0.2384639E-009  0.1341116E+03  0.7561462E-02  0.1221479E+00
         -2   -1    0    0    0  501 -0.00000000000E+00  0.00000000000E+00  0.25481994876E+02  0.25481994876E+02  0.00000000000E+00 0.  1.
          2   -1    0    0  501    0  0.00000000000E+00 -0.00000000000E+00 -0.11544846258E+04  0.11544846258E+04  0.00000000000E+00 0. -1.
         25    2    1    2    0    0 -0.64977283549E+02  0.10108489447E+03 -0.79298608637E+03  0.81173492600E+03  0.12508578516E+03 0.  0.
          5    1    3    3  502    0 -0.64481882103E+02  0.54499194152E+02 -0.20298867767E+03  0.21988622273E+03  0.41800000000E+01 0.  1.
         -5    1    3    3    0  502 -0.49540144666E+00  0.46585700319E+02 -0.58999740870E+03  0.59184870327E+03  0.41800000000E+01 0.  1.
        -11    1    1    2    0    0 -0.12849166432E+02 -0.24835396389E+02 -0.15059227026E+03  0.15316634700E+03  0.00000000000E+00 0. -1.
         11    1    1    2    0    0  0.77826449982E+02 -0.76249498081E+02 -0.18542427434E+03  0.21506534772E+03  0.00000000000E+00 0.  1.
</event>
<event>
 7    1  0.2384639E-009  0.8352942E+02  0.7561462E-02  0.1319324E+00
         -2   -1    0    0    0  501 -0.00000000000E+00  0.00000000000E+00  0.10774867690E+03  0.10774867690E+03  0.00000000000E+00 0.  1.
          2   -1    0    0  501    0  0.00000000000E+00 -0.00000000000E+00 -0.15061529467E+03  0.15061529467E+03  0.00000000000E+00 0. -1.
         25    2    1    2    0    0 -0.14675218779E+02  0.37479682788E+02  0.30815522496E+02  0.13497108234E+03  0.12508999949E+03 0.  0.
          5    1    3    3  502    0  0.13368248665E+01 -0.20449886191E+02 -0.38081939092E+02  0.43447571059E+02  0.41800000000E+01 0. -1.
         -5    1    3    3    0  502 -0.16012043645E+02  0.57929568978E+02  0.68897461588E+02  0.91523511280E+02  0.41800000000E+01 0. -1.
        -11    1    1    2    0    0  0.21677435559E+02  0.19096099205E+02 -0.57149990552E+02  0.64036658543E+02  0.00000000000E+00 0. -1.
         11    1    1    2    0    0 -0.70022167806E+01 -0.56575781992E+02 -0.16532149708E+02  0.59356230691E+02  0.00000000000E+00 0.  1.
</event>
<event>
 7    1  0.2384639E-009  0.1033532E+03  0.7561462E-02  0.1273399E+00
         -1   -1    0    0    0  501 -0.00000000000E+00  0.00000000000E+00  0.24434214358E+02  0.24434214358E+02  0.00000000000E+00 0.  1.
          1   -1    0    0  501    0  0.00000000000E+00 -0.00000000000E+00 -0.50555939424E+03  0.50555939424E+03  0.00000000000E+00 0. -1.
         25    2    1    2    0    0 -0.17108218684E+02  0.30716466531E+01 -0.25960784674E+03  0.28869431328E+03  0.12508415675E+03 0.  0.
          5    1    3    3  502    0 -0.53301605488E+02  0.35211719289E+02 -0.79089594547E+02  0.10175245790E+03  0.41800000000E+01 0.  1.
         -5    1    3    3    0  502  0.36193386804E+02 -0.32140072636E+02 -0.18051825220E+03  0.18694185538E+03  0.41800000000E+01 0.  1.
        -11    1    1    2    0    0  0.50815995987E+02 -0.22079790576E+02 -0.10827652971E+03  0.12162890070E+03  0.00000000000E+00 0.  1.
         11    1    1    2    0    0 -0.33707777303E+02  0.19008143923E+02 -0.11324080342E+03  0.11967039461E+03  0.00000000000E+00 0. -1.
</event>
<event>
 7    1  0.2384639E-009  0.7133446E+02  0.7561462E-02  0.1355613E+00
         -2   -1    0    0    0  501 -0.00000000000E+00  0.00000000000E+00  0.62733861651E+02  0.62733861651E+02  0.00000000000E+00 0.  1.
          2   -1    0    0  501    0  0.00000000000E+00 -0.00000000000E+00 -0.21222330110E+03  0.21222330110E+03  0.00000000000E+00 0. -1.
         25    2    1    2    0    0 -0.13474750430E+02 -0.35717749725E+02 -0.82060962389E+02  0.15439822277E+03  0.12508990008E+03 0.  0.
          5    1    3    3  502    0 -0.29537110519E+02 -0.18918095020E+02 -0.11132439394E+03  0.11679438473E+03  0.41800000000E+01 0. -1.
         -5    1    3    3    0  502  0.16062360089E+02 -0.16799654704E+02  0.29263431552E+02  0.37603838049E+02  0.41800000000E+01 0. -1.
        -11    1    1    2    0    0 -0.19840025535E+02  0.44970961382E+02 -0.52746831169E+01  0.49435172326E+02  0.00000000000E+00 0.  1.
         11    1    1    2    0    0  0.33314775965E+02 -0.92532116576E+01 -0.62153793943E+02  0.71123767653E+02  0.00000000000E+00 0. -1.
</event>
<event>
 7    1  0.2384639E-009  0.1361375E+03  0.7561462E-02  0.1218623E+00
         -1   -1    0    0    0  501 -0.00000000000E+00  0.00000000000E+00  0.33023675239E+03  0.33023675239E+03  0.00000000000E+00 0.  1.
          1   -1    0    0  501    0  0.00000000000E+00 -0.00000000000E+00 -0.65000505516E+02  0.65000505516E+02  0.00000000000E+00 0. -1.
         25    2    1    2    0    0 -0.98130260235E+02 -0.13069012309E+00  0.13959633714E+03  0.21157741588E+03  0.12509316733E+03 0.  0.
          5    1    3    3  502    0 -0.74927900918E+02 -0.54524109816E+02  0.11408804090E+03  0.14703952654E+03  0.41800000000E+01 0. -1.
         -5    1    3    3    0  502 -0.23202359317E+02  0.54393419693E+02  0.25508296236E+02  0.64537889341E+02  0.41800000000E+01 0. -1.
        -11    1    1    2    0    0  0.60587173557E+02 -0.34015249110E+02  0.30606249946E+02  0.75924866200E+02  0.00000000000E+00 0. -1.
         11    1    1    2    0    0  0.37543086678E+02  0.34145939233E+02  0.95033659789E+02  0.10773497583E+03  0.00000000000E+00 0.  1.
</event>
<event>
 7    1  0.2384639E-009  0.6799531E+02  0.7561462E-02  0.1367046E+00
         -2   -1    0    0    0  501 -0.00000000000E+00  0.00000000000E+00  0.13821765607E+02  0.13821765607E+02  0.00000000000E+00 0.  1.
          2   -1    0    0  501    0  0.00000000000E+00 -0.00000000000E+00 -0.12238582245E+04  0.12238582245E+04  0.00000000000E+00 0. -1.
         25    2    1    2    0    0 -0.15320737207E+02  0.12276279939E+02 -0.10038702200E+04  0.10118245397E+04  0.12509216026E+03 0.  0.
          5    1    3    3  502    0  0.11997431153E+02 -0.14642580883E+02 -0.22513659857E+02  0.29709944620E+02  0.41800000000E+01 0. -1.
         -5    1    3    3    0  502 -0.27318168360E+02  0.26918860821E+02 -0.98135656013E+03  0.98211459510E+03  0.41800000000E+01 0. -1.
        -11    1    1    2    0    0  0.24352296000E+02 -0.41125746360E+02 -0.17880178442E+03  0.18507954897E+03  0.00000000000E+00 0. -1.
         11    1    1    2    0    0 -0.90315587932E+01  0.28849466421E+02 -0.27364454465E+02  0.40775901402E+02  0.00000000000E+00 0.  1.
</event>
<event>
 7    1  0.2384639E-009  0.1529601E+03  0.7561462E-02  0.1196882E+00
          2   -1    0    0  501    0  0.00000000000E+00  0.00000000000E+00  0.17470397962E+03  0.17470397962E+03  0.00000000000E+00 0. -1.
         -2   -1    0    0    0  501 -0.00000000000E+00 -0.00000000000E+00 -0.15613238442E+03  0.15613238442E+03  0.00000000000E+00 0.  1.
         25    2    1    2    0    0  0.90049759618E+02 -0.68232197389E+02  0.61387907210E+02  0.17938259478E+03  0.12508016705E+03 0.  0.
          5    1    3    3  502    0 -0.22852142224E+01  0.29446450273E+02 -0.35620779445E+01  0.30041245597E+02  0.41800000000E+01 0. -1.
         -5    1    3    3    0  502  0.92334973840E+02 -0.97678647662E+02  0.64949985155E+02  0.14934134918E+03  0.41800000000E+01 0. -1.
        -11    1    1    2    0    0 -0.65191064551E+02 -0.39096204999E+01 -0.36677505640E+02  0.74902599753E+02  0.00000000000E+00 0.  1.
         11    1    1    2    0    0 -0.24858695067E+02  0.72141817889E+02 -0.61388063714E+01  0.76551169504E+02  0.00000000000E+00 0. -1.
</event>
<event>
 7    1  0.2384639E-009  0.2153901E+03  0.7561462E-02  0.1137367E+00
         -1   -1    0    0    0  501 -0.00000000000E+00  0.00000000000E+00  0.48449649867E+02  0.48449649867E+02  0.00000000000E+00 0.  1.
          1   -1    0    0  501    0  0.00000000000E+00 -0.00000000000E+00 -0.96445142912E+03  0.96445142912E+03  0.00000000000E+00 0. -1.
         25    2    1    2    0    0  0.67589818436E+02  0.18072801174E+03 -0.52263079343E+03  0.57098245376E+03  0.12508804289E+03 0.  0.
          5    1    3    3  502    0  0.28713344095E+02  0.18749911471E+03 -0.44622932315E+03  0.48489014775E+03  0.41800000000E+01 0. -1.
         -5    1    3    3    0  502  0.38876474341E+02 -0.67711029702E+01 -0.76401470277E+02  0.86092306004E+02  0.41800000000E+01 0. -1.
        -11    1    1    2    0    0 -0.27872968986E+02 -0.14591136019E+03 -0.28857019163E+03  0.32456090789E+03  0.00000000000E+00 0.  1.
         11    1    1    2    0    0 -0.39716849450E+02 -0.34816651559E+02 -0.10480079419E+03  0.11735771734E+03  0.00000000000E+00 0. -1.
</event>
<event>
 7    1  0.2384639E-009  0.1091505E+03  0.7561462E-02  0.1262151E+00
         -2   -1    0    0    0  501 -0.00000000000E+00  0.00000000000E+00  0.39871135325E+03  0.39871135325E+03  0.00000000000E+00 0.  1.
          2   -1    0    0  501    0  0.00000000000E+00 -0.00000000000E+00 -0.42082261734E+02  0.42082261734E+02  0.00000000000E+00 0. -1.
         25    2    1    2    0    0 -0.16117533023E+02 -0.25749409393E+02  0.90934289157E+02  0.15760436774E+03  0.12508910757E+03 0.  0.
          5    1    3    3  502    0 -0.40773289185E+02 -0.66973331040E+02  0.69416735377E+02  0.10480478869E+03  0.41800000000E+01 0.  1.
         -5    1    3    3    0  502  0.24655756162E+02  0.41223921646E+02  0.21517553780E+02  0.52799579056E+02  0.41800000000E+01 0.  1.
        -11    1    1    2    0    0 -0.24110552310E+01  0.56021130597E+02  0.20822850658E+03  0.21564621771E+03  0.00000000000E+00 0.  1.
         11    1    1    2    0    0  0.18528588254E+02 -0.30271721204E+02  0.57466295777E+02  0.67543029527E+02  0.00000000000E+00 0. -1.
</event>
<event>
 7    1  0.2384639E-009  0.9653200E+02  0.7561462E-02  0.1287762E+00
         -2   -1    0    0    0  501 -0.00000000000E+00  0.00000000000E+00  0.16018541773E+03  0.16018541773E+03  0.00000000000E+00 0. -1.
          2   -1    0    0  501    0  0.00000000000E+00 -0.00000000000E+00 -0.95201847126E+02  0.95201847126E+02  0.00000000000E+00 0.  1.
         25    2    1    2    0    0 -0.25329137348E+02 -0.49908515850E+02  0.48157938596E+02  0.14525545486E+03  0.12509010738E+03 0.  0.
          5    1    3    3  502    0 -0.69156299964E+02 -0.89011529849E+00  0.12731594297E+02  0.70448222286E+02  0.41800000000E+01 0. -1.
         -5    1    3    3    0  502  0.43827162616E+02 -0.49018400551E+02  0.35426344299E+02  0.74807232578E+02  0.41800000000E+01 0. -1.
        -11    1    1    2    0    0  0.91903835474E+01  0.56707759827E+01  0.50883360343E+02  0.52016701259E+02  0.00000000000E+00 0. -1.
         11    1    1    2    0    0  0.16138753801E+02  0.44237739867E+02 -0.34057728340E+02  0.58115108728E+02  0.00000000000E+00 0.  1.
</event>
<event>
 7    1  0.2384639E-009  0.9207103E+02  0.7561462E-02  0.1297913E+00
          1   -1    0    0  501    0  0.00000000000E+00  0.00000000000E+00  0.17133165363E+03  0.17133165363E+03  0.00000000000E+00 0. -1.
         -1   -1    0    0    0  501 -0.00000000000E+00 -0.00000000000E+00 -0.90213229255E+02  0.90213229255E+02  0.00000000000E+00 0.  1.
         25    2    1    2    0    0 -0.34528999765E+02 -0.29810109162E+02  0.16141769712E+01  0.13315657319E+03  0.12508866049E+03 0.  0.
          5    1    3    3  502    0 -0.70689414754E+02  0.16762911346E+01 -0.28534380853E+02  0.76364170924E+02  0.41800000000E+01 0.  1.
         -5    1    3    3    0  502  0.36160414989E+02 -0.31486400297E+02  0.30148557824E+02  0.56792402262E+02  0.41800000000E+01 0.  1.
        -11    1    1    2    0    0 -0.47645883313E+01 -0.88534412951E+01 -0.15543303868E+02  0.18511591500E+02  0.00000000000E+00 0.  1.
         11    1    1    2    0    0  0.39293588096E+02  0.38663550457E+02  0.95047551269E+02  0.10987671820E+03  0.00000000000E+00 0. -1.
</event>
<event>
 7    1  0.2384639E-009  0.1402845E+03  0.7561462E-02  0.1212947E+00
          2   -1    0    0  501    0  0.00000000000E+00  0.00000000000E+00  0.91494516435E+03  0.91494516435E+03  0.00000000000E+00 0. -1.
         -2   -1    0    0    0  501 -0.00000000000E+00 -0.00000000000E+00 -0.23202753778E+02  0.23202753778E+02  0.00000000000E+00 0.  1.
         25    2    1    2    0    0  0.62169430150E+02 -0.67221980338E+02  0.37690132505E+03  0.40753392363E+03  0.12508180283E+03 0.  0.
          5    1    3    3  502    0  0.11925399069E+01 -0.89694019750E+02  0.22545093712E+03  0.24267681550E+03  0.41800000000E+01 0.  1.
         -5    1    3    3    0  502  0.60976890243E+02  0.22472039411E+02  0.15145038793E+03  0.16485710813E+03  0.41800000000E+01 0.  1.
        -11    1    1    2    0    0  0.12515950915E+02 -0.11599443250E+02  0.39503452229E+02  0.43031602910E+02  0.00000000000E+00 0. -1.
         11    1    1    2    0    0 -0.74685381065E+02  0.78821423589E+02  0.47533763329E+03  0.48758239159E+03  0.00000000000E+00 0.  1.
</event>
<event>
 7    1  0.2384639E-009  0.9263181E+02  0.7561462E-02  0.1296601E+00
         -1   -1    0    0    0  501 -0.00000000000E+00  0.00000000000E+00  0.31441277283E+02  0.31441277283E+02  0.00000000000E+00 0.  1.
          1   -1    0    0  501    0  0.00000000000E+00 -0.00000000000E+00 -0.41756722976E+03  0.41756722976E+03  0.00000000000E+00 0. -1.
         25    2    1    2    0    0  0.61044370564E+01  0.34299930598E+02 -0.20618711325E+03  0.24366696126E+03  0.12508682164E+03 0.  0.
          5    1    3    3  502    0 -0.41432730071E+02  0.67948815114E-01 -0.15987275347E+02  0.44606514224E+02  0.41800000000E+01 0. -1.
         -5    1    3    3    0  502  0.47537167128E+02  0.34231981783E+02 -0.19019983790E+03  0.19906044704E+03  0.41800000000E+01 0. -1.
        -11    1    1    2    0    0  0.35228113667E+02 -0.87460009520E+01 -0.13268488903E+03  0.13756014067E+03  0.00000000000E+00 0. -1.
         11    1    1    2    0    0 -0.41332550723E+02 -0.25553929646E+02 -0.47253950197E+02  0.67781405112E+02  0.00000000000E+00 0.  1.
</event>
<event>
 7    1  0.2384639E-009  0.1633033E+03  0.7561462E-02  0.1185017E+00
          2   -1    0    0  501    0  0.00000000000E+00  0.00000000000E+00  0.45788835048E+03  0.45788835048E+03  0.00000000000E+00 0. -1.
         -2   -1    0    0    0  501 -0.00000000000E+00 -0.00000000000E+00 -0.71429038815E+02  0.71429038815E+02  0.00000000000E+00 0.  1.
         25    2    1    2    0    0  0.11473123821E+03  0.73344125967E+02  0.13198572940E+03  0.22717984866E+03  0.12509129882E+03 0.  0.
          5    1    3    3  502    0  0.87183839469E+01 -0.30468813779E+02  0.44791601604E+02  0.55028345477E+02  0.41800000000E+01 0.  1.
         -5    1    3    3    0  502  0.10601285426E+03  0.10381293975E+03  0.87194127792E+02  0.17215150318E+03  0.41800000000E+01 0.  1.
        -11    1    1    2    0    0 -0.58475303359E+02 -0.68015325855E+02  0.21570009147E+03  0.23360645349E+03  0.00000000000E+00 0. -1.
         11    1    1    2    0    0 -0.56255934847E+02 -0.53288001119E+01  0.38773490803E+02  0.68531087144E+02  0.00000000000E+00 0.  1.
</event>
<event>
 7    1  0.2384639E-009  0.1021927E+03  0.7561462E-02  0.1275751E+00
         -1   -1    0    0    0  501 -0.00000000000E+00  0.00000000000E+00  0.17369245194E+03  0.17369245194E+03  0.00000000000E+00 0.  1.
          1   -1    0    0  501    0  0.00000000000E+00 -0.00000000000E+00 -0.71788202366E+02  0.71788202366E+02  0.00000000000E+00 0. -1.
         25    2    1    2    0    0 -0.14663387677E+02  0.15895359376E+02  0.71663747632E+02  0.14577422780E+03  0.12508699124E+03 0.  0.
          5    1    3    3  502    0 -0.54271244034E+02 -0.18401801996E+02  0.73364201481E+02  0.93186762497E+02  0.41800000000E+01 0. -1.
         -5    1    3    3    0  502  0.39607856357E+02  0.34297161372E+02 -0.17004538486E+01  0.52587465300E+02  0.41800000000E+01 0. -1.
        -11    1    1    2    0    0 -0.38687770887E+02  0.36958132067E-01  0.18130504025E+02  0.42725404133E+02  0.00000000000E+00 0. -1.
         11    1    1    2    0    0  0.53351158564E+02 -0.15932317508E+02  0.12109997914E+02  0.56981022374E+02  0.00000000000E+00 0.  1.
</event>
<event>
 7    1  0.2384639E-009  0.1516878E+03  0.7561462E-02  0.1198414E+00
         -1   -1    0    0    0  501 -0.00000000000E+00  0.00000000000E+00  0.32036795965E+03  0.32036795965E+03  0.00000000000E+00 0.  1.
          1   -1    0    0  501    0  0.00000000000E+00 -0.00000000000E+00 -0.16306077037E+03  0.16306077037E+03  0.00000000000E+00 0. -1.
         25    2    1    2    0    0 -0.96363667159E+02  0.53323378469E+02  0.25766280615E+03  0.30686809915E+03  0.12509424273E+03 0.  0.
          5    1    3    3  502    0  0.22184147176E+02 -0.15698968886E+02  0.62501440560E+02  0.68282475659E+02  0.41800000000E+01 0.  1.
         -5    1    3    3    0  502 -0.11854781433E+03  0.69022347356E+02  0.19516136559E+03  0.23858562350E+03  0.41800000000E+01 0.  1.
        -11    1    1    2    0    0 -0.15107496252E+02 -0.13518806586E+02 -0.37286626596E+02  0.42441572749E+02  0.00000000000E+00 0. -1.
         11    1    1    2    0    0  0.11147116341E+03 -0.39804571884E+02 -0.63068990280E+02  0.13411905812E+03  0.00000000000E+00 0.  1.
</event>
<event>
 7    1  0.2384639E-009  0.1167320E+03  0.7561462E-02  0.1248588E+00
          2   -1    0    0  501    0  0.00000000000E+00  0.00000000000E+00  0.90287422048E+03  0.90287422048E+03  0.00000000000E+00 0. -1.
         -2   -1    0    0    0  501 -0.00000000000E+00 -0.00000000000E+00 -0.16167430361E+02  0.16167430361E+02  0.00000000000E+00 0.  1.
         25    2    1    2    0    0  0.32042603102E+02 -0.32760439750E+02  0.38833039982E+03  0.41054632551E+03  0.12509121129E+03 0.  0.
          5    1    3    3  502    0 -0.30293690501E+01 -0.76575347623E+02  0.21303671284E+03  0.22644000167E+03  0.41800000000E+01 0. -1.
         -5    1    3    3    0  502  0.35071972153E+02  0.43814907873E+02  0.17529368698E+03  0.18410632384E+03  0.41800000000E+01 0. -1.
        -11    1    1    2    0    0 -0.28561650646E+02 -0.27752038973E+02  0.22289256241E+03  0.22642225583E+03  0.00000000000E+00 0.  1.
         11    1    1    2    0    0 -0.34809524565E+01  0.60512478723E+02  0.27548382789E+03  0.28207306950E+03  0.00000000000E+00 0. -1.
</event>
<event>
 7    1  0.2384639E-009  0.1055427E+03  0.7561462E-02  0.1269054E+00
          1   -1    0    0  501    0  0.00000000000E+00  0.00000000000E+00  0.17667921350E+03  0.17667921350E+03  0.00000000000E+00 0.  1.
         -1   -1    0    0    0  501 -0.00000000000E+00 -0.00000000000E+00 -0.10403845727E+03  0.10403845727E+03  0.00000000000E+00 0. -1.
         25    2    1    2    0    0 -0.34336409049E+01 -0.66900199780E+02  0.82470674305E+02  0.16412354236E+03  0.12509076071E+03 0.  0.
          5    1    3    3  502    0 -0.50739829687E+01  0.31738252086E+02  0.51112942680E+02  0.60523278646E+02  0.41800000000E+01 0. -1.
         -5    1    3    3    0  502  0.16403420637E+01 -0.98638451866E+02  0.31357731624E+02  0.10360026371E+03  0.41800000000E+01 0. -1.
        -11    1    1    2    0    0 -0.19842792575E+02  0.37577019015E+02 -0.47328043623E+02  0.63605915515E+02  0.00000000000E+00 0. -1.
         11    1    1    2    0    0  0.23276433480E+02  0.29323180765E+02  0.37498125552E+02  0.52988212894E+02  0.00000000000E+00 0.  1.
</event>
<event>
 7    1  0.2384639E-009  0.1151363E+03  0.7561462E-02  0.1251343E+00
          2   -1    0    0  501    0  0.00000000000E+00  0.00000000000E+00  0.17995579368E+03  0.17995579368E+03  0.00000000000E+00 0.  1.
         -2   -1    0    0    0  501 -0.00000000000E+00 -0.00000000000E+00 -0.93472883285E+02  0.93472883285E+02  0.00000000000E+00 0. -1.
         25    2    1    2    0    0  0.19911123510E+02  0.58383515182E+02  0.76256098060E+02  0.15896157327E+03  0.12509477048E+03 0.  0.
          5    1    3    3  502    0  0.33951415505E+01  0.85286722916E+02  0.10755779028E+02  0.86130780064E+02  0.41800000000E+01 0. -1.
         -5    1    3    3    0  502  0.16515981960E+02 -0.26903207734E+02  0.65500319031E+02  0.72830793210E+02  0.41800000000E+01 0. -1.
        -11    1    1    2    0    0 -0.40601804645E+02 -0.75759245504E+02  0.11391106359E+01  0.85960848023E+02  0.00000000000E+00 0.  1.
         11    1    1    2    0    0  0.20690681135E+02  0.17375730322E+02  0.90877016998E+01  0.28506255669E+02  0.00000000000E+00 0. -1.
</event>
<event>
 7    1  0.2384639E-009  0.1357547E+03  0.7561462E-02  0.1219158E+00
         -2   -1    0    0    0  501 -0.00000000000E+00  0.00000000000E+00  0.18010978245E+02  0.18010978245E+02  0.00000000000E+00 0.  1.
          2   -1    0    0  501    0  0.00000000000E+00 -0.00000000000E+00 -0.14954329842E+04  0.14954329842E+04  0.00000000000E+00 0. -1.
         25    2    1    2    0    0  0.46594073389E+02  0.84619549484E+02 -0.11437371178E+04  0.11546051898E+04  0.12508826505E+03 0.  0.
          5    1    3    3  502    0  0.15322243339E+02  0.11220559480E+03 -0.92240313370E+03  0.92933840989E+03  0.41800000000E+01 0. -1.
         -5    1    3    3    0  502  0.31271830049E+02 -0.27586045317E+02 -0.22133398406E+03  0.22526677995E+03  0.41800000000E+01 0. -1.
        -11    1    1    2    0    0 -0.28276931383E+02 -0.92210114471E+02 -0.32129341186E+03  0.33545751827E+03  0.00000000000E+00 0. -1.
         11    1    1    2    0    0 -0.18317142006E+02  0.75905649869E+01 -0.12391476334E+02  0.23381254325E+02  0.00000000000E+00 0.  1.
</event>
<event>
 7    1  0.2384639E-009  0.1325053E+03  0.7561462E-02  0.1223785E+00
         -1   -1    0    0    0  501 -0.00000000000E+00  0.00000000000E+00  0.52213881520E+02  0.52213881520E+02  0.00000000000E+00 0.  1.
          1   -1    0    0  501    0  0.00000000000E+00 -0.00000000000E+00 -0.35688852854E+03  0.35688852854E+03  0.00000000000E+00 0. -1.
         25    2    1    2    0    0  0.40180940277E+02  0.70459179766E+02 -0.17528549800E+03  0.23011919724E+03  0.12510329793E+03 0.  0.
          5    1    3    3  502    0  0.14830264418E+02 -0.32385403163E+02 -0.79638840863E+02  0.87341676505E+02  0.41800000000E+01 0.  1.
         -5    1    3    3    0  502  0.25350675859E+02  0.10284458293E+03 -0.95646657138E+02  0.14277752073E+03  0.41800000000E+01 0.  1.
        -11    1    1    2    0    0  0.15847301118E+02  0.14427658850E+02 -0.16607855542E+02  0.27113007179E+02  0.00000000000E+00 0. -1.
         11    1    1    2    0    0 -0.56028241395E+02 -0.84886838616E+02 -0.11278129348E+03  0.15187020565E+03  0.00000000000E+00 0.  1.
</event>
<event>
 7    1  0.2384639E-009  0.1658247E+03  0.7561462E-02  0.1182273E+00
         -2   -1    0    0    0  501 -0.00000000000E+00  0.00000000000E+00  0.19695931509E+03  0.19695931509E+03  0.00000000000E+00 0.  1.
          2   -1    0    0  501    0  0.00000000000E+00 -0.00000000000E+00 -0.20338396972E+03  0.20338396972E+03  0.00000000000E+00 0. -1.
         25    2    1    2    0    0 -0.55103841692E+02  0.14960607990E+03  0.52940345981E+02  0.20944826322E+03  0.12508989656E+03 0.  0.
          5    1    3    3  502    0 -0.65008448811E+01  0.39544441993E+02 -0.40442168092E+02  0.57088223275E+02  0.41800000000E+01 0. -1.
         -5    1    3    3    0  502 -0.48602996810E+02  0.11006163791E+03  0.93382514074E+02  0.15236003995E+03  0.41800000000E+01 0. -1.
        -11    1    1    2    0    0 -0.12929287976E+02 -0.39274311938E+02 -0.43979378690E+02  0.60364093762E+02  0.00000000000E+00 0. -1.
         11    1    1    2    0    0  0.68033129668E+02 -0.11033176796E+03 -0.15385621922E+02  0.13053092782E+03  0.00000000000E+00 0.  1.
</event>
<event>
 7    1  0.2384639E-009  0.1145465E+03  0.7561462E-02  0.1252375E+00
         -1   -1    0    0    0  501 -0.00000000000E+00  0.00000000000E+00  0.24872552622E+03  0.24872552622E+03  0.00000000000E+00 0.  1.
          1   -1    0    0  501    0  0.00000000000E+00 -0.00000000000E+00 -0.73712466893E+02  0.73712466893E+02  0.00000000000E+00 0. -1.
         25    2    1    2    0    0 -0.28065202509E+02  0.51584103972E+02  0.30680145425E+02  0.14155846389E+03  0.12509577131E+03 0.  0.
          5    1    3    3  502    0 -0.10863312268E+02 -0.32369901406E+02  0.42796054036E+02  0.54907164483E+02  0.41800000000E+01 0. -1.
         -5    1    3    3    0  502 -0.17201890241E+02  0.83954005379E+02 -0.12115908610E+02  0.86651299404E+02  0.41800000000E+01 0. -1.
        -11    1    1    2    0    0 -0.18664290778E+02  0.17436773515E+02  0.30252675728E+02  0.39593196506E+02  0.00000000000E+00 0. -1.
         11    1    1    2    0    0  0.46729493287E+02 -0.69020877487E+02  0.11408023818E+03  0.14128633272E+03  0.00000000000E+00 0.  1.
</event>
<event>
 7    1  0.2384639E-009  0.1074346E+03  0.7561462E-02  0.1265396E+00
         -2   -1    0    0    0  501 -0.00000000000E+00  0.00000000000E+00  0.38094844405E+02  0.38094844405E+02  0.00000000000E+00 0.  1.
          2   -1    0    0  501    0  0.00000000000E+00 -0.00000000000E+00 -0.51732670210E+03  0.51732670210E+03  0.00000000000E+00 0. -1.
         25    2    1    2    0    0  0.61529859601E+02  0.59431769511E+02 -0.22038180306E+03  0.26745752128E+03  0.12508927899E+03 0.  0.
          5    1    3    3  502    0  0.17502609384E+02  0.50502701026E+01 -0.19024208644E+03  0.19115797241E+03  0.41800000000E+01 0. -1.
         -5    1    3    3    0  502  0.44027250217E+02  0.54381499409E+02 -0.30139716624E+02  0.76299548870E+02  0.41800000000E+01 0. -1.
        -11    1    1    2    0    0  0.24689115125E+02 -0.17112185115E+02 -0.66387653774E+02  0.72867687343E+02  0.00000000000E+00 0.  1.
         11    1    1    2    0    0 -0.86218974727E+02 -0.42319584396E+02 -0.19246240086E+03  0.21509633788E+03  0.00000000000E+00 0. -1.
</event>
<event>
 7    1  0.2384639E-009  0.2019791E+03  0.7561462E-02  0.1148080E+00
          2   -1    0    0  501    0  0.00000000000E+00  0.00000000000E+00  0.76101988642E+03  0.76101988642E+03  0.00000000000E+00 0. -1.
         -2   -1    0    0    0  501 -0.00000000000E+00 -0.00000000000E+00 -0.58032387187E+02  0.58032387187E+02  0.00000000000E+00 0.  1.
         25    2    1    2    0    0 -0.15549004812E+03 -0.87263854060E+02  0.37141427559E+03  0.43056576003E+03  0.12508466854E+03 0.  0.
          5    1    3    3  502    0 -0.19074763657E+02  0.24247245725E+02  0.18823172427E+02  0.36380760767E+02  0.41800000000E+01 0. -1.
         -5    1    3    3    0  502 -0.13641528446E+03 -0.11151109978E+03  0.35259110317E+03  0.39418499926E+03  0.41800000000E+01 0. -1.
        -11    1    1    2    0    0  0.13017188893E+03  0.29440132840E+02  0.17823554799E+03  0.22266421504E+03  0.00000000000E+00 0.  1.
         11    1    1    2    0    0  0.25318159187E+02  0.57823721220E+02  0.15333767565E+03  0.16582229854E+03  0.00000000000E+00 0. -1.
</event>
<event>
 7    1  0.2384639E-009  0.1566123E+03  0.7561462E-02  0.1192575E+00
         -2   -1    0    0    0  501 -0.00000000000E+00  0.00000000000E+00  0.36304702983E+02  0.36304702983E+02  0.00000000000E+00 0. -1.
          2   -1    0    0  501    0  0.00000000000E+00 -0.00000000000E+00 -0.77060553464E+03  0.77060553464E+03  0.00000000000E+00 0.  1.
         25    2    1    2    0    0 -0.94888174162E+02 -0.84093911093E+02 -0.40330278917E+03  0.44088158504E+03  0.12509148970E+03 0.  0.
          5    1    3    3  502    0 -0.10237691282E+03 -0.20491342739E+02 -0.17589235690E+03  0.20458866298E+03  0.41800000000E+01 0. -1.
         -5    1    3    3    0  502  0.74887386587E+01 -0.63602568354E+02 -0.22741043227E+03  0.23629292206E+03  0.41800000000E+01 0. -1.
        -11    1    1    2    0    0  0.67790060204E+02  0.13747238778E+02 -0.22885191117E+03  0.23907671589E+03  0.00000000000E+00 0.  1.
         11    1    1    2    0    0  0.27098113958E+02  0.70346672315E+02 -0.10214613132E+03  0.12695193669E+03  0.00000000000E+00 0. -1.
</event>
<event>
 7    1  0.2384639E-009  0.9497417E+02  0.7561462E-02  0.1291234E+00
         -1   -1    0    0    0  501 -0.00000000000E+00  0.00000000000E+00  0.34650071153E+03  0.34650071153E+03  0.00000000000E+00 0.  1.
          1   -1    0    0  501    0  0.00000000000E+00 -0.00000000000E+00 -0.43095104413E+02  0.43095104413E+02  0.00000000000E+00 0. -1.
         25    2    1    2    0    0 -0.42362775972E+02 -0.39430530164E+02  0.13083306815E+03  0.19002995332E+03  0.12507885488E+03 0.  0.
          5    1    3    3  502    0 -0.61496879014E+02 -0.23349592361E+02  0.14621538760E+03  0.16038541568E+03  0.41800000000E+01 0. -1.
         -5    1    3    3    0  502  0.19134103042E+02 -0.16080937803E+02 -0.15382319449E+02  0.29644537633E+02  0.41800000000E+01 0. -1.
        -11    1    1    2    0    0  0.61401481269E+02  0.79637991838E+01  0.12442194169E+03  0.13897619787E+03  0.00000000000E+00 0.  1.
         11    1    1    2    0    0 -0.19038705297E+02  0.31466730980E+02  0.48150597269E+02  0.60589664756E+02  0.00000000000E+00 0. -1.
</event>
<event>
 7    1  0.2384639E-009  0.9580889E+02  0.7561462E-02  0.1289365E+00
          2   -1    0    0  501    0  0.00000000000E+00  0.00000000000E+00  0.46892482499E+03  0.46892482499E+03  0.00000000000E+00 0. -1.
         -2   -1    0    0    0  501 -0.00000000000E+00 -0.00000000000E+00 -0.57814733051E+02  0.57814733051E+02  0.00000000000E+00 0.  1.
         25    2    1    2    0    0 -0.64388619709E+02  0.15891343677E+02  0.38555001527E+03  0.41072546727E+03  0.12509262982E+03 0.  0.
          5    1    3    3  502    0  0.14092656610E+02 -0.23959083879E+02  0.19480151447E+02  0.34199259802E+02  0.41800000000E+01 0. -1.
         -5    1    3    3    0  502 -0.78481276320E+02  0.39850427556E+02  0.36606986382E+03  0.37652620746E+03  0.41800000000E+01 0. -1.
        -11    1    1    2    0    0  0.44334163718E+02  0.70810009409E+01 -0.29044267945E+02  0.53471750929E+02  0.00000000000E+00 0.  1.
         11    1    1    2    0    0  0.20054455991E+02 -0.22972344618E+02  0.54604344612E+02  0.62542339842E+02  0.00000000000E+00 0. -1.
</event>
<event>
 7    1  0.2384639E-009  0.7571552E+02  0.7561462E-02  0.1341670E+00
          2   -1    0    0  501    0  0.00000000000E+00  0.00000000000E+00  0.31377306031E+03  0.31377306031E+03  0.00000000000E+00 0. -1.
         -2   -1    0    0    0  501 -0.00000000000E+00 -0.00000000000E+00 -0.48423925470E+02  0.48423925470E+02  0.00000000000E+00 0.  1.
         25    2    1    2    0    0 -0.10907807664E+02  0.37756843551E+02  0.21331625981E+03  0.25038920957E+03  0.12508545106E+03 0.  0.
          5    1    3    3  502    0  0.20385388116E+02  0.52953518681E+02  0.20713881745E+03  0.21481061725E+03  0.41800000000E+01 0. -1.
         -5    1    3    3    0  502 -0.31293195780E+02 -0.15196675130E+02  0.61774423557E+01  0.35578592316E+02  0.41800000000E+01 0. -1.
        -11    1    1    2    0    0  0.19619540183E+02 -0.44399993019E+02  0.73281952893E+02  0.87900684621E+02  0.00000000000E+00 0. -1.
         11    1    1    2    0    0 -0.87117325193E+01  0.66431494680E+01 -0.21249077860E+02  0.23907091589E+02  0.00000000000E+00 0.  1.
</event>
<event>
 7    1  0.2384639E-009  0.1519625E+03  0.7561462E-02  0.1198082E+00
         -1   -1    0    0    0  501 -0.00000000000E+00  0.00000000000E+00  0.65762177675E+02  0.65762177675E+02  0.00000000000E+00 0.  1.
          1   -1    0    0  501    0  0.00000000000E+00 -0.00000000000E+00 -0.53931797099E+03  0.53931797099E+03  0.00000000000E+00 0. -1.
         25    2    1    2    0    0 -0.84687431835E+02  0.72905848493E+02 -0.80344426264E+02  0.18598436498E+03  0.12509090027E+03 0.  0.
          5    1    3    3  502    0 -0.46002552344E+01 -0.31928370637E+02 -0.22152593791E+01  0.32603112947E+02  0.41800000000E+01 0.  1.
         -5    1    3    3    0  502 -0.80087176601E+02  0.10483421913E+03 -0.78129166885E+02  0.15338125203E+03  0.41800000000E+01 0.  1.
        -11    1    1    2    0    0  0.39246980193E+02 -0.83925301737E+02 -0.31112249797E+03  0.32462438366E+03  0.00000000000E+00 0. -1.
         11    1    1    2    0    0  0.45440451643E+02  0.11019453243E+02 -0.82088869082E+02  0.94471400024E+02  0.00000000000E+00 0.  1.
</event>
<event>
 7    1  0.2384639E-009  0.3146764E+03  0.7561462E-02  0.1078126E+00
         -4   -1    0    0    0  501 -0.00000000000E+00  0.00000000000E+00  0.13789044282E+03  0.13789044282E+03  0.00000000000E+00 0.  1.
          4   -1    0    0  501    0  0.00000000000E+00 -0.00000000000E+00 -0.10263720288E+04  0.10263720288E+04  0.00000000000E+00 0. -1.
         25    2    1    2    0    0 -0.17496287316E+03 -0.24981093564E+03 -0.74433097497E+03  0.81405982157E+03  0.12508909721E+03 0.  0.
          5    1    3    3  502    0 -0.12334954331E+03 -0.23964439980E+03 -0.54725636516E+03  0.61004225247E+03  0.41800000000E+01 0. -1.
         -5    1    3    3    0  502 -0.51613329857E+02 -0.10166535844E+02 -0.19707460981E+03  0.20401756910E+03  0.41800000000E+01 0. -1.
        -11    1    1    2    0    0  0.16585789314E+03  0.21791928021E+03 -0.92954884308E+02  0.28920280760E+03  0.00000000000E+00 0.  1.
         11    1    1    2    0    0  0.91049800198E+01  0.31891655429E+02 -0.51195726719E+02  0.60999842471E+02  0.00000000000E+00 0. -1.
</event>
<event>
 7    1  0.2384639E-009  0.1848091E+03  0.7561462E-02  0.1163228E+00
         -2   -1    0    0    0  501 -0.00000000000E+00  0.00000000000E+00  0.40655340690E+02  0.40655340690E+02  0.00000000000E+00 0. -1.
          2   -1    0    0  501    0  0.00000000000E+00 -0.00000000000E+00 -0.90956339152E+03  0.90956339152E+03  0.00000000000E+00 0.  1.
         25    2    1    2    0    0 -0.15135579224E+03 -0.29188600538E+02 -0.52033197356E+03  0.55691431530E+03  0.12509053375E+03 0.  0.
          5    1    3    3  502    0 -0.67941971950E+02  0.45079356919E+02 -0.28374014587E+03  0.29525277772E+03  0.41800000000E+01 0. -1.
         -5    1    3    3    0  502 -0.83413820294E+02 -0.74267957457E+02 -0.23659182769E+03  0.26166153758E+03  0.41800000000E+01 0. -1.
        -11    1    1    2    0    0  0.16949990381E+02  0.37905420994E+02 -0.13090447348E+03  0.13733209490E+03  0.00000000000E+00 0. -1.
         11    1    1    2    0    0  0.13440580186E+03 -0.87168204568E+01 -0.21767160379E+03  0.25597232200E+03  0.00000000000E+00 0.  1.
</event>
<event>
 7    1  0.2384639E-009  0.1811362E+03  0.7561462E-02  0.1166708E+00
         -2   -1    0    0    0  501 -0.00000000000E+00  0.00000000000E+00  0.84329933076E+03  0.84329933076E+03  0.00000000000E+00 0.  1.
          2   -1    0    0  501    0  0.00000000000E+00 -0.00000000000E+00 -0.44684743814E+02  0.44684743814E+02  0.00000000000E+00 0. -1.
         25    2    1    2    0    0  0.14641165682E+03 -0.62845259402E+02  0.36903773936E+03  0.42097728345E+03  0.12508844959E+03 0.  0.
          5    1    3    3  502    0  0.10829543777E+03 -0.94177272792E+02  0.20986071811E+03  0.25427594058E+03  0.41800000000E+01 0.  1.
         -5    1    3    3    0  502  0.38116219047E+02  0.31332013390E+02  0.15917702126E+03  0.16670134287E+03  0.41800000000E+01 0.  1.
        -11    1    1    2    0    0 -0.36771519167E+02 -0.92993803094E+01  0.19082687119E+03  0.19455980537E+03  0.00000000000E+00 0.  1.
         11    1    1    2    0    0 -0.10964013765E+03  0.72144639711E+02  0.23874997639E+03  0.27244698576E+03  0.00000000000E+00 0. -1.
</event>
<event>
 7    1  0.2384639E-009  0.1303456E+03  0.7561462E-02  0.1226944E+00
          1   -1    0    0  501    0  0.00000000000E+00  0.00000000000E+00  0.54504855057E+03  0.54504855057E+03  0.00000000000E+00 0. -1.
         -1   -1    0    0    0  501 -0.00000000000E+00 -0.00000000000E+00 -0.54678829195E+02  0.54678829195E+02  0.00000000000E+00 0.  1.
         25    2    1    2    0    0 -0.87808317553E+02 -0.38633582681E+02  0.42608986244E+03  0.45431819687E+03  0.12509835650E+03 0.  0.
          5    1    3    3  502    0 -0.11987821884E+03 -0.35232031418E+02  0.34479594517E+03  0.36676122968E+03  0.41800000000E+01 0. -1.
         -5    1    3    3    0  502  0.32069901290E+02 -0.34015512635E+01  0.81293917263E+02  0.87556967191E+02  0.41800000000E+01 0. -1.
        -11    1    1    2    0    0  0.71969001477E+02  0.13167927552E+02  0.82539283035E+02  0.11029807221E+03  0.00000000000E+00 0. -1.
         11    1    1    2    0    0  0.15839316076E+02  0.25465655129E+02 -0.18259424095E+02  0.35111110680E+02  0.00000000000E+00 0.  1.
</event>
<event>
 7    1  0.2384639E-009  0.1626398E+03  0.7561462E-02  0.1185748E+00
          2   -1    0    0  501    0  0.00000000000E+00  0.00000000000E+00  0.11903140498E+03  0.11903140498E+03  0.00000000000E+00 0. -1.
         -2   -1    0    0    0  501 -0.00000000000E+00 -0.00000000000E+00 -0.42681776145E+03  0.42681776145E+03  0.00000000000E+00 0.  1.
         25    2    1    2    0    0 -0.13246373803E+03 -0.20271564700E+02  0.14400242964E+02  0.18387864612E+03  0.12508561577E+03 0.  0.
          5    1    3    3  502    0 -0.12078896403E+03  0.18644660051E+02 -0.27521322880E+02  0.12534948262E+03  0.41800000000E+01 0.  1.
         -5    1    3    3    0  502 -0.11674773997E+02 -0.38916224751E+02  0.41921565844E+02  0.58529163496E+02  0.41800000000E+01 0.  1.
        -11    1    1    2    0    0  0.29550569719E+02 -0.34612412635E+02 -0.12298722655E+03  0.13113776411E+03  0.00000000000E+00 0.  1.
         11    1    1    2    0    0  0.10291316831E+03  0.54883977334E+02 -0.19919937288E+03  0.23083275620E+03  0.00000000000E+00 0. -1.
</event>
<event>
 7    1  0.2384639E-009  0.1316750E+03  0.7561462E-02  0.1224991E+00
         -2   -1    0    0    0  501 -0.00000000000E+00  0.00000000000E+00  0.22582694189E+03  0.22582694189E+03  0.00000000000E+00 0.  1.
          2   -1    0    0  501    0  0.00000000000E+00 -0.00000000000E+00 -0.20479747667E+03  0.20479747667E+03  0.00000000000E+00 0. -1.
         25    2    1    2    0    0 -0.87874947478E+02  0.46428621884E+02  0.16765251033E+03  0.23158892268E+03  0.12509373113E+03 0.  0.
          5    1    3    3  502    0 -0.15950491538E+02  0.55224040801E+02  0.14423615720E+03  0.15532435195E+03  0.41800000000E+01 0. -1.
         -5    1    3    3    0  502 -0.71924455940E+02 -0.87954189162E+01  0.23416353123E+02  0.76264570737E+02  0.41800000000E+01 0. -1.
        -11    1    1    2    0    0  0.45590538611E+02 -0.70891105866E+02 -0.78287269716E+02  0.11503452830E+03  0.00000000000E+00 0. -1.
         11    1    1    2    0    0  0.42284408866E+02  0.24462483981E+02 -0.68335775386E+02  0.84000967573E+02  0.00000000000E+00 0.  1.
</event>
<event>
 7    1  0.2384639E-009  0.1550691E+03  0.7561462E-02  0.1194379E+00
         -2   -1    0    0    0  501 -0.00000000000E+00  0.00000000000E+00  0.11420404471E+02  0.11420404471E+02  0.00000000000E+00 0.  1.
          2   -1    0    0  501    0  0.00000000000E+00 -0.00000000000E+00 -0.41258113336E+04  0.41258113336E+04  0.00000000000E+00 0. -1.
         25    2    1    2    0    0  0.10375198774E+03 -0.43749230284E+02 -0.35467004716E+04  0.35506915372E+04  0.12509071586E+03 0.  0.
          5    1    3    3  502    0  0.82205601163E+02  0.28693903688E+02 -0.23369931062E+04  0.23386182569E+04  0.41800000000E+01 0. -1.
         -5    1    3    3    0  502  0.21546386576E+02 -0.72443133972E+02 -0.12097073654E+04  0.12120732803E+04  0.41800000000E+01 0. -1.
        -11    1    1    2    0    0  0.10041145076E+02  0.31217122183E+02 -0.14049240562E+03  0.14426867071E+03  0.00000000000E+00 0. -1.
         11    1    1    2    0    0 -0.11379313282E+03  0.12532108101E+02 -0.42719805192E+03  0.44227153014E+03  0.00000000000E+00 0.  1.
</event>
<event>
 7    1  0.2384639E-009  0.9133135E+02  0.7561462E-02  0.1299659E+00
         -3   -1    0    0    0  501 -0.00000000000E+00  0.00000000000E+00  0.26322950713E+03  0.26322950713E+03  0.00000000000E+00 0.  1.
          3   -1    0    0  501    0  0.00000000000E+00 -0.00000000000E+00 -0.64401412134E+02  0.64401412134E+02  0.00000000000E+00 0. -1.
         25    2    1    2    0    0  0.15555423881E+02 -0.64736522667E+02  0.77385718965E+02  0.16145735564E+03  0.12508852709E+03 0.  0.
          5    1    3    3  502    0 -0.11228091535E+02 -0.36835766200E+01  0.92188319291E+02  0.93036537930E+02  0.41800000000E+01 0. -1.
         -5    1    3    3    0  502  0.26783515416E+02 -0.61052946047E+02 -0.14802600327E+02  0.68420817706E+02  0.41800000000E+01 0. -1.
        -11    1    1    2    0    0 -0.23728516284E+02 -0.11699602670E+02  0.66833349688E+02  0.71879202960E+02  0.00000000000E+00 0.  1.
         11    1    1    2    0    0  0.81730924033E+01  0.76436125337E+02  0.54609026349E+02  0.94294360673E+02  0.00000000000E+00 0. -1.
</event>
<event>
 7    1  0.2384639E-009  0.1387493E+03  0.7561462E-02  0.1215022E+00
         -2   -1    0    0    0  501 -0.00000000000E+00  0.00000000000E+00  0.30106028714E+02  0.30106028714E+02  0.00000000000E+00 0.  1.
          2   -1    0    0  501    0  0.00000000000E+00 -0.00000000000E+00 -0.10051349121E+04  0.10051349121E+04  0.00000000000E+00 0. -1.
         25    2    1    2    0    0  0.11257373039E+03  0.79392402755E+02 -0.51765357393E+03  0.55007661680E+03  0.12507223257E+03 0.  0.
          5    1    3    3  502    0  0.44202267385E+02  0.29608616698E+02 -0.44733655304E+02  0.69635356979E+02  0.41800000000E+01 0.  1.
         -5    1    3    3    0  502  0.68371463008E+02  0.49783786056E+02 -0.47291991862E+03  0.48044125982E+03  0.41800000000E+01 0.  1.
        -11    1    1    2    0    0 -0.40266926492E+02 -0.41478169632E+02 -0.77906114271E+02  0.97011476465E+02  0.00000000000E+00 0.  1.
         11    1    1    2    0    0 -0.72306803902E+02 -0.37914233123E+02 -0.37946919516E+03  0.38815284752E+03  0.00000000000E+00 0. -1.
</event>
<event>
 7    1  0.2384639E-009  0.8934790E+02  0.7561462E-02  0.1304439E+00
         -1   -1    0    0    0  501 -0.00000000000E+00  0.00000000000E+00  0.72991555532E+03  0.72991555532E+03  0.00000000000E+00 0.  1.
          1   -1    0    0  501    0  0.00000000000E+00 -0.00000000000E+00 -0.20465305478E+02  0.20465305478E+02  0.00000000000E+00 0. -1.
         25    2    1    2    0    0  0.11978623294E+02  0.24708017124E+02  0.24401502540E+03  0.27558341035E+03  0.12509560311E+03 0.  0.
          5    1    3    3  502    0  0.20603696738E+01  0.53777894459E+02  0.35114963932E+02  0.64395963752E+02  0.41800000000E+01 0.  1.
         -5    1    3    3    0  502  0.99182536205E+01 -0.29069877335E+02  0.20890006146E+03  0.21118744660E+03  0.41800000000E+01 0.  1.
        -11    1    1    2    0    0  0.24140887897E+02 -0.45885066022E+02  0.26858376488E+03  0.27354242908E+03  0.00000000000E+00 0. -1.
         11    1    1    2    0    0 -0.36119511192E+02  0.21177048899E+02  0.19685145957E+03  0.20125502137E+03  0.00000000000E+00 0.  1.
</event>
<event>
 7    1  0.2384639E-009  0.9646698E+02  0.7561462E-02  0.1287906E+00
         -1   -1    0    0    0  501 -0.00000000000E+00  0.00000000000E+00  0.35991519329E+02  0.35991519329E+02  0.00000000000E+00 0.  1.
          1   -1    0    0  501    0  0.00000000000E+00 -0.00000000000E+00 -0.33316345277E+03  0.33316345277E+03  0.00000000000E+00 0. -1.
         25    2    1    2    0    0 -0.10238379338E+02  0.70928202764E+01 -0.19163480466E+03  0.22918550402E+03  0.12508782668E+03 0.  0.
          5    1    3    3  502    0  0.15955718831E+02 -0.55200774607E+02 -0.97116055761E+02  0.11291904696E+03  0.41800000000E+01 0.  1.
         -5    1    3    3    0  502 -0.26194098169E+02  0.62293594883E+02 -0.94518748902E+02  0.11626645706E+03  0.41800000000E+01 0.  1.
        -11    1    1    2    0    0 -0.23545011930E+01  0.29151278870E+02 -0.17290415902E+01  0.29297274966E+02  0.00000000000E+00 0.  1.
         11    1    1    2    0    0  0.12592880531E+02 -0.36244099146E+02 -0.10380808718E+03  0.11067219311E+03  0.00000000000E+00 0. -1.
</event>
<event>
 7    1  0.2384639E-009  0.1150361E+03  0.7561462E-02  0.1251518E+00
         -2   -1    0    0    0  501 -0.00000000000E+00  0.00000000000E+00  0.15857033054E+03  0.15857033054E+03  0.00000000000E+00 0. -1.
          2   -1    0    0  501    0  0.00000000000E+00 -0.00000000000E+00 -0.10181725846E+03  0.10181725846E+03  0.00000000000E+00 0.  1.
         25    2    1    2    0    0  0.52558853904E+02 -0.37355448061E+02  0.43976668057E+02  0.14744152291E+03  0.12508873939E+03 0.  0.
          5    1    3    3  502    0 -0.40281968973E+02 -0.44530102492E+00  0.16554658255E+02  0.43753450461E+02  0.41800000000E+01 0.  1.
         -5    1    3    3    0  502  0.92840822876E+02 -0.36910147036E+02  0.27422009802E+02  0.10368807245E+03  0.41800000000E+01 0.  1.
        -11    1    1    2    0    0  0.96733155776E+01  0.24069592594E+02 -0.27366795402E+02  0.37707556437E+02  0.00000000000E+00 0.  1.
         11    1    1    2    0    0 -0.62232169481E+02  0.13285855466E+02  0.40143199432E+02  0.75238509651E+02  0.00000000000E+00 0. -1.
</event>
<event>
 7    1  0.2384639E-009  0.3916894E+03  0.7561462E-02  0.1046696E+00
          4   -1    0    0  501    0  0.00000000000E+00  0.00000000000E+00  0.42189014005E+03  0.42189014005E+03  0.00000000000E+00 0. -1.
         -4   -1    0    0    0  501 -0.00000000000E+00 -0.00000000000E+00 -0.37833141874E+03  0.37833141874E+03  0.00000000000E+00 0.  1.
         25    2    1    2    0    0 -0.18331348266E+01 -0.38268750209E+03  0.54959155477E+02  0.40635164750E+03  0.12509223802E+03 0.  0.
          5    1    3    3  502    0  0.51464595751E+02 -0.27761312498E+03  0.58651182489E+02  0.28840091085E+03  0.41800000000E+01 0. -1.
         -5    1    3    3    0  502 -0.53297730578E+02 -0.10507437712E+03 -0.36920270123E+01  0.11795073665E+03  0.41800000000E+01 0. -1.
        -11    1    1    2    0    0  0.98973865031E+01  0.22661977772E+03 -0.51335395901E+02  0.23257214963E+03  0.00000000000E+00 0.  1.
         11    1    1    2    0    0 -0.80642516765E+01  0.15606772438E+03  0.39934961741E+02  0.16129776166E+03  0.00000000000E+00 0. -1.
</event>
<event>
 7    1  0.2384639E-009  0.7675554E+02  0.7561462E-02  0.1338519E+00
          2   -1    0    0  501    0  0.00000000000E+00  0.00000000000E+00  0.30756268219E+03  0.30756268219E+03  0.00000000000E+00 0. -1.
         -2   -1    0    0    0  501 -0.00000000000E+00 -0.00000000000E+00 -0.45038958989E+02  0.45038958989E+02  0.00000000000E+00 0.  1.
         25    2    1    2    0    0 -0.37634331008E+02 -0.37339539948E+00  0.19456058726E+03  0.23434726420E+03  0.12509330849E+03 0.  0.
          5    1    3    3  502    0 -0.54733547493E+02 -0.25582858665E+02  0.19438410583E+03  0.20359984498E+03  0.41800000000E+01 0. -1.
         -5    1    3    3    0  502  0.17099216485E+02  0.25209463266E+02  0.17648142835E+00  0.30747419212E+02  0.41800000000E+01 0. -1.
        -11    1    1    2    0    0  0.29077559359E+02  0.23600228594E+02  0.81750971111E+02  0.89920501141E+02  0.00000000000E+00 0. -1.
         11    1    1    2    0    0  0.85567716488E+01 -0.23226833195E+02 -0.13787835170E+02  0.28333875838E+02  0.00000000000E+00 0.  1.
</event>
<event>
 7    1  0.2384639E-009  0.1840946E+03  0.7561462E-02  0.1163898E+00
          1   -1    0    0  501    0  0.00000000000E+00  0.00000000000E+00  0.12392624538E+04  0.12392624538E+04  0.00000000000E+00 0. -1.
         -1   -1    0    0    0  501 -0.00000000000E+00 -0.00000000000E+00 -0.29581655354E+02  0.29581655354E+02  0.00000000000E+00 0.  1.
         25    2    1    2    0    0  0.12927126884E+03  0.84359633401E+02  0.72597117338E+03  0.75266926645E+03  0.12509704782E+03 0.  0.
          5    1    3    3  502    0  0.10021915325E+02  0.74459691893E+02  0.21270206486E+03  0.22561986902E+03  0.41800000000E+01 0. -1.
         -5    1    3    3    0  502  0.11924935351E+03  0.98999415083E+01  0.51326910853E+03  0.52704939742E+03  0.41800000000E+01 0. -1.
        -11    1    1    2    0    0 -0.12299524544E+03 -0.41373666532E+02  0.29089622581E+03  0.31852821677E+03  0.00000000000E+00 0.  1.
         11    1    1    2    0    0 -0.62760233946E+01 -0.42985966869E+02  0.19281339928E+03  0.19764662597E+03  0.00000000000E+00 0. -1.
</event>
<event>
 7    1  0.2384639E-009  0.1179425E+03  0.7561462E-02  0.1246530E+00
         -1   -1    0    0    0  501 -0.00000000000E+00  0.00000000000E+00  0.49206237391E+02  0.49206237391E+02  0.00000000000E+00 0.  1.
          1   -1    0    0  501    0  0.00000000000E+00 -0.00000000000E+00 -0.31427051743E+03  0.31427051743E+03  0.00000000000E+00 0. -1.
         25    2    1    2    0    0 -0.46672214374E+00  0.57185891347E+02 -0.11757655804E+03  0.18094777057E+03  0.12508958660E+03 0.  0.
          5    1    3    3  502    0 -0.21523672100E+02  0.90971095883E+02 -0.10081712675E+03  0.13755207811E+03  0.41800000000E+01 0.  1.
         -5    1    3    3    0  502  0.21056949956E+02 -0.33785204536E+02 -0.16759431289E+02  0.43395692461E+02  0.41800000000E+01 0.  1.
        -11    1    1    2    0    0 -0.40350657192E+02 -0.43247749191E+02 -0.56319136369E+02  0.81672446193E+02  0.00000000000E+00 0.  1.
         11    1    1    2    0    0  0.40817379335E+02 -0.13938142156E+02 -0.91168585632E+02  0.10085653806E+03  0.00000000000E+00 0. -1.
</event>
<event>
 7    1  0.2384639E-009  0.1123210E+03  0.7561462E-02  0.1256331E+00
          2   -1    0    0  501    0  0.00000000000E+00  0.00000000000E+00  0.11595189499E+03  0.11595189499E+03  0.00000000000E+00 0. -1.
         -2   -1    0    0    0  501 -0.00000000000E+00 -0.00000000000E+00 -0.15794746177E+03  0.15794746177E+03  0.00000000000E+00 0.  1.
         25    2    1    2    0    0  0.62124023679E+02  0.31121993898E+02  0.15793447945E+02  0.14396109600E+03  0.12508953330E+03 0.  0.
          5    1    3    3  502    0 -0.32323293026E+02 -0.11485243386E+02  0.20458591702E+02  0.40158840398E+02  0.41800000000E+01 0. -1.
         -5    1    3    3    0  502  0.94447316705E+02  0.42607237284E+02 -0.46651437567E+01  0.10380225560E+03  0.41800000000E+01 0. -1.
        -11    1    1    2    0    0 -0.74259520539E+01 -0.30806472722E+02 -0.67329021678E+02  0.74413578637E+02  0.00000000000E+00 0.  1.
         11    1    1    2    0    0 -0.54698071625E+02 -0.31552117624E+00  0.95400069510E+01  0.55524682131E+02  0.00000000000E+00 0. -1.
</event>
<event>
 7    1  0.3905205E-009  0.1431934E+03  0.7561462E-02  0.1209095E+00
         -2   -1    0    0    0  501 -0.00000000000E+00  0.00000000000E+00  0.13244752121E+02  0.13244752121E+02  0.00000000000E+00 0. -1.
          2   -1    0    0  501    0  0.00000000000E+00 -0.00000000000E+00 -0.18056505279E+04  0.18056505279E+04  0.00000000000E+00 0.  1.
         25    2    1    2    0    0  0.77065519920E+02  0.59509677076E+02 -0.12707972901E+04  0.12806461621E+04  0.12509334145E+03 0.  0.
          5    1    3    3  502    0 -0.27794286465E+01  0.72950599535E+02 -0.75269627647E+03  0.75623982453E+03  0.41800000000E+01 0. -1.
         -5    1    3    3    0  502  0.79844948567E+02 -0.13440922460E+02 -0.51810101358E+03  0.52440633757E+03  0.41800000000E+01 0. -1.
        -11    1    1    2    0    0  0.92646861022E+01 -0.43386571180E+02 -0.15139680264E+03  0.15776317954E+03  0.00000000000E+00 0.  1.
         11    1    1    2    0    0 -0.86330206022E+02 -0.16123105895E+02 -0.37021168310E+03  0.38048593840E+03  0.00000000000E+00 0. -1.
</event>
<event>
 7    1  0.2384639E-009  0.2999145E+03  0.7561462E-02  0.1085283E+00
          4   -1    0    0  501    0  0.00000000000E+00  0.00000000000E+00  0.10294022231E+04  0.10294022231E+04  0.00000000000E+00 0. -1.
         -4   -1    0    0    0  501 -0.00000000000E+00 -0.00000000000E+00 -0.10032142934E+03  0.10032142934E+03  0.00000000000E+00 0.  1.
         25    2    1    2    0    0  0.25813449109E+03 -0.12408053457E+03  0.64292843102E+03  0.71486625699E+03  0.12508958160E+03 0.  0.
          5    1    3    3  502    0  0.22609918260E+03 -0.14724632633E+03  0.58894921392E+03  0.64782788607E+03  0.41800000000E+01 0. -1.
         -5    1    3    3    0  502  0.32035308485E+02  0.23165791757E+02  0.53979217099E+02  0.67038370924E+02  0.41800000000E+01 0. -1.
        -11    1    1    2    0    0 -0.13095446888E+03  0.36977081058E+02  0.18812522661E+03  0.23217984049E+03  0.00000000000E+00 0.  1.
         11    1    1    2    0    0 -0.12718002221E+03  0.87103453514E+02  0.98027136120E+02  0.18267755494E+03  0.00000000000E+00 0. -1.
</event>
<event>
 7    1  0.2384639E-009  0.9945509E+02  0.7561462E-02  0.1281446E+00
          2   -1    0    0  501    0  0.00000000000E+00  0.00000000000E+00  0.64787504115E+03  0.64787504115E+03  0.00000000000E+00 0. -1.
         -2   -1    0    0    0  501 -0.00000000000E+00 -0.00000000000E+00 -0.30476610436E+02  0.30476610436E+02  0.00000000000E+00 0.  1.
         25    2    1    2    0    0  0.81155413653E+01 -0.78906498042E+02  0.44547025863E+03  0.46944826233E+03  0.12508326120E+03 0.  0.
          5    1    3    3  502    0  0.11767469753E+02 -0.80951073247E+02  0.12826057864E+03  0.15218343549E+03  0.41800000000E+01 0. -1.
         -5    1    3    3    0  502 -0.36519283876E+01  0.20445752047E+01  0.31720967999E+03  0.31726482683E+03  0.41800000000E+01 0. -1.
        -11    1    1    2    0    0  0.20671529223E+02 -0.59247418722E+01  0.69879025525E+02  0.73112877764E+02  0.00000000000E+00 0. -1.
         11    1    1    2    0    0 -0.28787070589E+02  0.84831239915E+02  0.10204914656E+03  0.13579051149E+03  0.00000000000E+00 0.  1.
</event>
<event>
 7    1  0.2384639E-009  0.9762395E+02  0.7561462E-02  0.1285373E+00
         -2   -1    0    0    0  501 -0.00000000000E+00  0.00000000000E+00  0.87061165176E+03  0.87061165176E+03  0.00000000000E+00 0.  1.
          2   -1    0    0  501    0  0.00000000000E+00 -0.00000000000E+00 -0.17693449667E+02  0.17693449667E+02  0.00000000000E+00 0. -1.
         25    2    1    2    0    0  0.33965892277E+02  0.42577048544E+02  0.62667019174E+03  0.64134747945E+03  0.12507826860E+03 0.  0.
          5    1    3    3  502    0 -0.14185097821E+02  0.61082908983E+02  0.50813275907E+03  0.51200460156E+03  0.41800000000E+01 0. -1.
         -5    1    3    3    0  502  0.48150990098E+02 -0.18505860440E+02  0.11853743267E+03  0.12934287789E+03  0.41800000000E+01 0. -1.
        -11    1    1    2    0    0  0.15353128771E+02 -0.22849211283E+02  0.15847807842E+03  0.16085119322E+03  0.00000000000E+00 0.  1.
         11    1    1    2    0    0 -0.49319021048E+02 -0.19727837261E+02  0.67769931924E+02  0.86106428756E+02  0.00000000000E+00 0. -1.
</event>
<event>
 7    1  0.2384639E-009  0.9987608E+02  0.7561462E-02  0.1280557E+00
         -1   -1    0    0    0  501 -0.00000000000E+00  0.00000000000E+00  0.57168223976E+02  0.57168223976E+02  0.00000000000E+00 0.  1.
          1   -1    0    0  501    0  0.00000000000E+00 -0.00000000000E+00 -0.22784177002E+03  0.22784177002E+03  0.00000000000E+00 0. -1.
         25    2    1    2    0    0  0.37046909883E+02  0.22853033652E+01 -0.99259334113E+02  0.16394554386E+03  0.12509208528E+03 0.  0.
          5    1    3    3  502    0 -0.25863503867E+02 -0.38340144125E+02 -0.68772836320E+02  0.82982304736E+02  0.41800000000E+01 0. -1.
         -5    1    3    3    0  502  0.62910413750E+02  0.40625447491E+02 -0.30486497793E+02  0.80963239126E+02  0.41800000000E+01 0. -1.
        -11    1    1    2    0    0 -0.24380956839E+02 -0.35327983742E+02 -0.74037092198E+02  0.85580304468E+02  0.00000000000E+00 0. -1.
         11    1    1    2    0    0 -0.12665953044E+02  0.33042680377E+02  0.26228802629E+01  0.35484145669E+02  0.00000000000E+00 0.  1.
</event>
<event>
 7    1  0.2384639E-009  0.1040127E+03  0.7561462E-02  0.1272077E+00
          1   -1    0    0  501    0  0.00000000000E+00  0.00000000000E+00  0.19764322430E+03  0.19764322430E+03  0.00000000000E+00 0. -1.
         -1   -1    0    0    0  501 -0.00000000000E+00 -0.00000000000E+00 -0.65413961991E+02  0.65413961991E+02  0.00000000000E+00 0.  1.
         25    2    1    2    0    0 -0.15703138688E+02 -0.11464001130E+02  0.44179661307E+02  0.13408094294E+03  0.12509134623E+03 0.  0.
          5    1    3    3  502    0  0.53760444440E+02  0.69627147549E+01  0.14975048458E+02  0.56394940016E+02  0.41800000000E+01 0. -1.
         -5    1    3    3    0  502 -0.69463583127E+02 -0.18426715885E+02  0.29204612849E+02  0.77686002928E+02  0.41800000000E+01 0. -1.
        -11    1    1    2    0    0  0.45852886183E+01  0.45567400052E+02  0.80050542516E+02  0.92225279486E+02  0.00000000000E+00 0. -1.
         11    1    1    2    0    0  0.11117850070E+02 -0.34103398922E+02  0.79990584896E+01  0.36750963864E+02  0.00000000000E+00 0.  1.
</event>
<event>
 7    1  0.2384639E-009  0.1334818E+03  0.7561462E-02  0.1222379E+00
         -2   -1    0    0    0  501 -0.00000000000E+00  0.00000000000E+00  0.90164757334E+02  0.90164757334E+02  0.00000000000E+00 0.  1.
          2   -1    0    0  501    0  0.00000000000E+00 -0.00000000000E+00 -0.28805804223E+03  0.28805804223E+03  0.00000000000E+00 0. -1.
         25    2    1    2    0    0 -0.36543819261E+02 -0.11236586352E+03 -0.12642327620E+03  0.21352285723E+03  0.12509047839E+03 0.  0.
          5    1    3    3  502    0 -0.65698005438E+01 -0.39722714429E+02 -0.12857687552E+03  0.13479815147E+03  0.41800000000E+01 0.  1.
         -5    1    3    3    0  502 -0.29974018717E+02 -0.72643149088E+02  0.21535993183E+01  0.78724705764E+02  0.41800000000E+01 0.  1.
        -11    1    1    2    0    0  0.65764346302E+02  0.67441274618E+02 -0.52563029172E+02  0.10787097294E+03  0.00000000000E+00 0.  1.
         11    1    1    2    0    0 -0.29220527041E+02  0.44924588899E+02 -0.18906979531E+02  0.56828969402E+02  0.00000000000E+00 0. -1.
</event>
<event>
 7    1  0.2882119E-009  0.8094295E+02  0.7561462E-02  0.1326397E+00
          2   -1    0    0  501    0  0.00000000000E+00  0.00000000000E+00  0.74766929179E+03  0.74766929179E+03  0.00000000000E+00 0. -1.
         -2   -1    0    0    0  501 -0.00000000000E+00 -0.00000000000E+00 -0.19682056554E+02  0.19682056554E+02  0.00000000000E+00 0.  1.
         25    2    1    2    0    0 -0.12028346914E+01 -0.36623083936E+02  0.53272290286E+03  0.54843786466E+03  0.12509077932E+03 0.  0.
          5    1    3    3  502    0 -0.14151542902E+02  0.27661390780E+02  0.39064568272E+03  0.39190169754E+03  0.41800000000E+01 0. -1.
         -5    1    3    3    0  502  0.12948708211E+02 -0.64284474716E+02  0.14207722014E+03  0.15653616712E+03  0.41800000000E+01 0. -1.
        -11    1    1    2    0    0 -0.25636062586E+02  0.24190215604E+02  0.18386683446E+03  0.18721481525E+03  0.00000000000E+00 0. -1.
         11    1    1    2    0    0  0.26838897277E+02  0.12432868333E+02  0.11397497925E+02  0.31698668442E+02  0.00000000000E+00 0.  1.
</event>
<event>
 7    1  0.2384639E-009  0.1515581E+03  0.7561462E-02  0.1198571E+00
          2   -1    0    0  501    0  0.00000000000E+00  0.00000000000E+00  0.33105582999E+03  0.33105582999E+03  0.00000000000E+00 0. -1.
         -2   -1    0    0    0  501 -0.00000000000E+00 -0.00000000000E+00 -0.73583038393E+02  0.73583038393E+02  0.00000000000E+00 0.  1.
         25    2    1    2    0    0  0.84964276033E+02 -0.68154136985E+02  0.99615004769E+02  0.19347816705E+03  0.12508691922E+03 0.  0.
          5    1    3    3  502    0  0.59723857879E+02  0.26037010917E+02  0.58161016875E+02  0.87435927520E+02  0.41800000000E+01 0. -1.
         -5    1    3    3    0  502  0.25240418154E+02 -0.94191147902E+02  0.41453987894E+02  0.10604223953E+03  0.41800000000E+01 0. -1.
        -11    1    1    2    0    0 -0.92742859390E+01  0.63735725438E+02  0.70596415695E+02  0.95562068760E+02  0.00000000000E+00 0. -1.
         11    1    1    2    0    0 -0.75689990094E+02  0.44184115463E+01  0.87261371131E+02  0.11559863257E+03  0.00000000000E+00 0.  1.
</event>
<event>
 7    1  0.2384639E-009  0.1073501E+03  0.7561462E-02  0.1265557E+00
          1   -1    0    0  501    0  0.00000000000E+00  0.00000000000E+00  0.28746770172E+03  0.28746770172E+03  0.00000000000E+00 0. -1.
         -1   -1    0    0    0  501 -0.00000000000E+00 -0.00000000000E+00 -0.48866121617E+02  0.48866121617E+02  0.00000000000E+00 0.  1.
         25    2    1    2    0    0 -0.41658060775E+01  0.14925727974E+02  0.70617834990E+02  0.14446430088E+03  0.12507167670E+03 0.  0.
          5    1    3    3  502    0 -0.35484305120E+02  0.60576281647E+02  0.35608016288E+02  0.78829087474E+02  0.41800000000E+01 0.  1.
         -5    1    3    3    0  502  0.31318499043E+02 -0.45650553673E+02  0.35009818702E+02  0.65635213403E+02  0.41800000000E+01 0.  1.
        -11    1    1    2    0    0 -0.41020700146E+02  0.74240357835E+00  0.50776166024E+02  0.65279920647E+02  0.00000000000E+00 0.  1.
         11    1    1    2    0    0  0.45186506224E+02 -0.15668131553E+02  0.11720757909E+03  0.12658960181E+03  0.00000000000E+00 0. -1.
</event>
<event>
 7    1  0.2384639E-009  0.1183137E+03  0.7561462E-02  0.1245905E+00
          2   -1    0    0  501    0  0.00000000000E+00  0.00000000000E+00  0.12677030453E+04  0.12677030453E+04  0.00000000000E+00 0. -1.
         -2   -1    0    0    0  501 -0.00000000000E+00 -0.00000000000E+00 -0.13814416076E+02  0.13814416076E+02  0.00000000000E+00 0.  1.
         25    2    1    2    0    0 -0.45586126867E+02  0.62305376869E+01  0.96743647574E+03  0.97657580058E+03  0.12510014037E+03 0.  0.
          5    1    3    3  502    0 -0.63275843192E+02  0.52533296287E+02  0.53750971536E+03  0.54378097250E+03  0.41800000000E+01 0.  1.
         -5    1    3    3    0  502  0.17689716325E+02 -0.46302758600E+02  0.42992676038E+03  0.43279482808E+03  0.41800000000E+01 0.  1.
        -11    1    1    2    0    0 -0.58612712027E+01  0.36924601288E+02  0.98909319991E+02  0.10573946407E+03  0.00000000000E+00 0.  1.
         11    1    1    2    0    0  0.51447398070E+02 -0.43155138974E+02  0.18754283354E+03  0.19920219678E+03  0.00000000000E+00 0. -1.
</event>
<event>
 7    1  0.2384639E-009  0.1027867E+03  0.7561462E-02  0.1274543E+00
         -1   -1    0    0    0  501 -0.00000000000E+00  0.00000000000E+00  0.33835264657E+02  0.33835264657E+02  0.00000000000E+00 0.  1.
          1   -1    0    0  501    0  0.00000000000E+00 -0.00000000000E+00 -0.49186286453E+03  0.49186286453E+03  0.00000000000E+00 0. -1.
         25    2    1    2    0    0 -0.18498910266E+02 -0.97853810833E+01 -0.13692141047E+03  0.18663659132E+03  0.12509109166E+03 0.  0.
          5    1    3    3  502    0 -0.20045910832E+02 -0.59874479541E+02 -0.33412258217E+02  0.71558669919E+02  0.41800000000E+01 0.  1.
         -5    1    3    3    0  502  0.15470005658E+01  0.50089098457E+02 -0.10350915225E+03  0.11507792141E+03  0.41800000000E+01 0.  1.
        -11    1    1    2    0    0  0.37035096451E+02 -0.30295365064E+02 -0.25573544641E+03  0.26017306944E+03  0.00000000000E+00 0. -1.
         11    1    1    2    0    0 -0.18536186185E+02  0.40080746147E+02 -0.65370742996E+02  0.78888468421E+02  0.00000000000E+00 0.  1.
</event>
<event>
 7    1  0.2384639E-009  0.8990605E+02  0.7561462E-02  0.1303079E+00
         -1   -1    0    0    0  501 -0.00000000000E+00  0.00000000000E+00  0.18227354709E+03  0.18227354709E+03  0.00000000000E+00 0.  1.
          1   -1    0    0  501    0  0.00000000000E+00 -0.00000000000E+00 -0.88175017712E+02  0.88175017712E+02  0.00000000000E+00 0. -1.
         25    2    1    2    0    0 -0.34672039035E+02  0.31232875233E+02  0.27850604513E+01  0.13353918491E+03  0.12508922639E+03 0.  0.
          5    1    3    3  502    0 -0.97896197997E+01  0.77714487033E+02  0.13454515863E+02  0.79585642849E+02  0.41800000000E+01 0.  1.
         -5    1    3    3    0  502 -0.24882419235E+02 -0.46481611800E+02 -0.10669455411E+02  0.53953542064E+02  0.41800000000E+01 0.  1.
        -11    1    1    2    0    0  0.28244710853E+02 -0.17252861073E+02  0.10873810215E+03  0.11366353754E+03  0.00000000000E+00 0.  1.
         11    1    1    2    0    0  0.64273281814E+01 -0.13980014160E+02 -0.17424633225E+02  0.23245842348E+02  0.00000000000E+00 0. -1.
</event>
<event>
 7    1  0.2384639E-009  0.6241927E+02  0.7561462E-02  0.1387951E+00
          1   -1    0    0  501    0  0.00000000000E+00  0.00000000000E+00  0.22848840733E+03  0.22848840733E+03  0.00000000000E+00 0. -1.
         -1   -1    0    0    0  501 -0.00000000000E+00 -0.00000000000E+00 -0.71021049747E+02  0.71021049747E+02  0.00000000000E+00 0.  1.
         25    2    1    2    0    0 -0.51127511028E+01  0.21687406276E+02  0.16240947674E+03  0.20620485179E+03  0.12508844452E+03 0.  0.
          5    1    3    3  502    0 -0.26496227804E+02  0.26236131182E+02 -0.45247824362E+01  0.37793262936E+02  0.41800000000E+01 0.  1.
         -5    1    3    3    0  502  0.21383476701E+02 -0.45487249056E+01  0.16693425918E+03  0.16841158885E+03  0.41800000000E+01 0.  1.
        -11    1    1    2    0    0  0.22048686154E+02 -0.36445010628E+02  0.29763150835E+02  0.51963723004E+02  0.00000000000E+00 0. -1.
         11    1    1    2    0    0 -0.16935935051E+02  0.14757604352E+02 -0.34705269995E+02  0.41340882280E+02  0.00000000000E+00 0.  1.
</event>
<event>
 7    1  0.2384639E-009  0.1014263E+03  0.7561462E-02  0.1277325E+00
         -2   -1    0    0    0  501 -0.00000000000E+00  0.00000000000E+00  0.66584750238E+02  0.66584750238E+02  0.00000000000E+00 0.  1.
          2   -1    0    0  501    0  0.00000000000E+00 -0.00000000000E+00 -0.29211253425E+03  0.29211253425E+03  0.00000000000E+00 0. -1.
         25    2    1    2    0    0 -0.68769398411E+02 -0.43148862446E+02 -0.84994650894E+02  0.17164738337E+03  0.12509068331E+03 0.  0.
          5    1    3    3  502    0 -0.90064749397E+02 -0.33918797626E+02 -0.14629333660E+02  0.97435279646E+02  0.41800000000E+01 0. -1.
         -5    1    3    3    0  502  0.21295350985E+02 -0.92300648203E+01 -0.70365317234E+02  0.74212103728E+02  0.41800000000E+01 0. -1.
        -11    1    1    2    0    0  0.45974514098E+02  0.19043733768E+02 -0.14525195479E+03  0.15353973464E+03  0.00000000000E+00 0. -1.
         11    1    1    2    0    0  0.22794884314E+02  0.24105128678E+02  0.47188216711E+01  0.33510166478E+02  0.00000000000E+00 0.  1.
</event>
<event>
 7    1  0.2384639E-009  0.8667450E+02  0.7561462E-02  0.1311111E+00
          1   -1    0    0  501    0  0.00000000000E+00  0.00000000000E+00  0.19207575422E+03  0.19207575422E+03  0.00000000000E+00 0. -1.
         -1   -1    0    0    0  501 -0.00000000000E+00 -0.00000000000E+00 -0.97943724656E+02  0.97943724656E+02  0.00000000000E+00 0.  1.
         25    2    1    2    0    0  0.80491181804E+02  0.21911727863E+02  0.46768267124E+02  0.15745807572E+03  0.12508725208E+03 0.  0.
          5    1    3    3  502    0  0.54656149027E+02  0.16327948533E+02 -0.37932094773E+02  0.68630989674E+02  0.41800000000E+01 0.  1.
         -5    1    3    3    0  502  0.25835032777E+02  0.55837793302E+01  0.84700361897E+02  0.88827086048E+02  0.41800000000E+01 0.  1.
        -11    1    1    2    0    0 -0.54213841950E+02  0.14488785610E+01 -0.18994990563E+02  0.57463462953E+02  0.00000000000E+00 0.  1.
         11    1    1    2    0    0 -0.26277339854E+02 -0.23360606424E+02  0.66358752998E+02  0.75097940197E+02  0.00000000000E+00 0. -1.
</event>
<event>
 7    1  0.2695664E-009  0.1484358E+03  0.7561462E-02  0.1202408E+00
          1   -1    0    0  501    0  0.00000000000E+00  0.00000000000E+00  0.11566859168E+04  0.11566859168E+04  0.00000000000E+00 0. -1.
         -1   -1    0    0    0  501 -0.00000000000E+00 -0.00000000000E+00 -0.20518668519E+02  0.20518668519E+02  0.00000000000E+00 0.  1.
         25    2    1    2    0    0  0.18750443032E+02  0.10653324813E+03  0.66846745013E+03  0.68862076510E+03  0.12509562009E+03 0.  0.
          5    1    3    3  502    0  0.44883006069E+02  0.11829969909E+03  0.42551167017E+03  0.44394476784E+03  0.41800000000E+01 0. -1.
         -5    1    3    3    0  502 -0.26132563037E+02 -0.11766450957E+02  0.24295577996E+03  0.24467599726E+03  0.41800000000E+01 0. -1.
        -11    1    1    2    0    0 -0.52307996060E+02 -0.36896964090E+02  0.21427230110E+03  0.22362945117E+03  0.00000000000E+00 0. -1.
         11    1    1    2    0    0  0.33557553027E+02 -0.69636284041E+02  0.25342749707E+03  0.26495436907E+03  0.00000000000E+00 0.  1.
</event>
<event>
 7    1  0.2384639E-009  0.2498321E+03  0.7561462E-02  0.1113411E+00
         -1   -1    0    0    0  501 -0.00000000000E+00  0.00000000000E+00  0.63374307644E+02  0.63374307644E+02  0.00000000000E+00 0.  1.
          1   -1    0    0  501    0  0.00000000000E+00 -0.00000000000E+00 -0.12957974581E+04  0.12957974581E+04  0.00000000000E+00 0. -1.
         25    2    1    2    0    0 -0.22663877492E+03  0.43516532784E+02 -0.31985012724E+03  0.41377646940E+03  0.12509212529E+03 0.  0.
          5    1    3    3  502    0 -0.11112678594E+03  0.77093001011E+02 -0.21557705336E+03  0.25452589592E+03  0.41800000000E+01 0. -1.
         -5    1    3    3    0  502 -0.11551198898E+03 -0.33576468228E+02 -0.10427307388E+03  0.15925057347E+03  0.41800000000E+01 0. -1.
        -11    1    1    2    0    0  0.86414393616E+02 -0.56365960726E+02 -0.31542829788E+03  0.33187283718E+03  0.00000000000E+00 0.  1.
         11    1    1    2    0    0  0.14022438130E+03  0.12849427942E+02 -0.59714472533E+03  0.61352245916E+03  0.00000000000E+00 0. -1.
</event>
<event>
 7    1  0.2384639E-009  0.1438559E+03  0.7561462E-02  0.1208233E+00
          1   -1    0    0  501    0  0.00000000000E+00  0.00000000000E+00  0.11128715876E+03  0.11128715876E+03  0.00000000000E+00 0. -1.
         -1   -1    0    0    0  501 -0.00000000000E+00 -0.00000000000E+00 -0.43044641040E+03  0.43044641040E+03  0.00000000000E+00 0.  1.
         25    2    1    2    0    0  0.13669758368E+03 -0.35093300770E+02 -0.32297577160E+03  0.37400342944E+03  0.12508975598E+03 0.  0.
          5    1    3    3  502    0  0.98359558731E+02 -0.30057520453E+02 -0.31865927776E+03  0.33487201291E+03  0.41800000000E+01 0.  1.
         -5    1    3    3    0  502  0.38338024946E+02 -0.50357803173E+01 -0.43164938365E+01  0.39131416524E+02  0.41800000000E+01 0.  1.
        -11    1    1    2    0    0 -0.79943781608E+02  0.15489633699E+01 -0.39160053535E+02  0.89033237042E+02  0.00000000000E+00 0.  1.
         11    1    1    2    0    0 -0.56753802069E+02  0.33544337400E+02  0.42976573496E+02  0.78696902674E+02  0.00000000000E+00 0. -1.
</event>
<event>
 7    1  0.2963516E-009  0.8154440E+02  0.7561462E-02  0.1324725E+00
          1   -1    0    0  501    0  0.00000000000E+00  0.00000000000E+00  0.83077593251E+02  0.83077593251E+02  0.00000000000E+00 0. -1.
         -1   -1    0    0    0  501 -0.00000000000E+00 -0.00000000000E+00 -0.19589062186E+03  0.19589062186E+03  0.00000000000E+00 0.  1.
         25    2    1    2    0    0  0.52838347357E+02  0.26713707455E+02 -0.97357016844E+02  0.16919973160E+03  0.12507856463E+03 0.  0.
          5    1    3    3  502    0  0.52004440066E+02  0.33604443350E+02  0.88484631601E+01  0.62685629132E+02  0.41800000000E+01 0. -1.
         -5    1    3    3    0  502  0.83390729084E+00 -0.68907358953E+01 -0.10620548000E+03  0.10651410247E+03  0.41800000000E+01 0. -1.
        -11    1    1    2    0    0 -0.69729364892E+02 -0.12474864738E+02  0.14740097403E+02  0.72353832309E+02  0.00000000000E+00 0. -1.
         11    1    1    2    0    0  0.16891017535E+02 -0.14238842717E+02 -0.30196109164E+02  0.37414651193E+02  0.00000000000E+00 0.  1.
</event>
<event>
 7    1  0.2384639E-009  0.1049450E+03  0.7561462E-02  0.1270228E+00
          1   -1    0    0  501    0  0.00000000000E+00  0.00000000000E+00  0.38819919995E+03  0.38819919995E+03  0.00000000000E+00 0. -1.
         -1   -1    0    0    0  501 -0.00000000000E+00 -0.00000000000E+00 -0.42292460013E+02  0.42292460013E+02  0.00000000000E+00 0.  1.
         25    2    1    2    0    0 -0.48419913558E+02  0.44967100951E+02  0.21693454910E+03  0.25898806411E+03  0.12509072933E+03 0.  0.
          5    1    3    3  502    0 -0.85712618352E+02  0.54806438856E+02  0.14377927497E+03  0.17618272048E+03  0.41800000000E+01 0.  1.
         -5    1    3    3    0  502  0.37292704794E+02 -0.98393379053E+01  0.73155274123E+02  0.82805343627E+02  0.41800000000E+01 0.  1.
        -11    1    1    2    0    0  0.31880957377E+02 -0.15426136231E+02 -0.27275932742E+01  0.35521836768E+02  0.00000000000E+00 0.  1.
         11    1    1    2    0    0  0.16538956181E+02 -0.29540964720E+02  0.13169978411E+03  0.13598175908E+03  0.00000000000E+00 0. -1.
</event>
<event>
 7    1  0.2384639E-009  0.1051333E+03  0.7561462E-02  0.1269857E+00
          4   -1    0    0  501    0  0.00000000000E+00  0.00000000000E+00  0.23463192633E+02  0.23463192633E+02  0.00000000000E+00 0. -1.
         -4   -1    0    0    0  501 -0.00000000000E+00 -0.00000000000E+00 -0.68209600977E+03  0.68209600977E+03  0.00000000000E+00 0.  1.
         25    2    1    2    0    0 -0.43752044407E+02  0.47867804264E+02 -0.39820958714E+03  0.42240422818E+03  0.12509551799E+03 0.  0.
          5    1    3    3  502    0  0.14477449147E+02 -0.12717062765E+02 -0.50652442202E+01  0.20358028348E+02  0.41800000000E+01 0.  1.
         -5    1    3    3    0  502 -0.58229493555E+02  0.60584867029E+02 -0.39314434292E+03  0.40204619984E+03  0.41800000000E+01 0.  1.
        -11    1    1    2    0    0  0.12551903867E+02  0.24543480923E+02 -0.10901879237E+03  0.11245012155E+03  0.00000000000E+00 0.  1.
         11    1    1    2    0    0  0.31200140541E+02 -0.72411285186E+02 -0.15140443763E+03  0.17070485267E+03  0.00000000000E+00 0. -1.
</event>
<event>
 7    1  0.2384639E-009  0.1181949E+03  0.7561462E-02  0.1246105E+00
         -2   -1    0    0    0  501 -0.00000000000E+00  0.00000000000E+00  0.27999123355E+02  0.27999123355E+02  0.00000000000E+00 0.  1.
          2   -1    0    0  501    0  0.00000000000E+00 -0.00000000000E+00 -0.52069090240E+03  0.52069090240E+03  0.00000000000E+00 0. -1.
         25    2    1    2    0    0  0.23251561738E+02 -0.48025343693E+02 -0.27411265582E+03  0.30599439466E+03  0.12509097777E+03 0.  0.
          5    1    3    3  502    0  0.44438101279E+01  0.40705359994E+02 -0.54066081279E+02  0.67950624173E+02  0.41800000000E+01 0. -1.
         -5    1    3    3    0  502  0.18807751610E+02 -0.88730703686E+02 -0.22004657454E+03  0.23804377048E+03  0.41800000000E+01 0. -1.
        -11    1    1    2    0    0 -0.39434268151E+02 -0.12824001805E+02 -0.10387954862E+03  0.11185024430E+03  0.00000000000E+00 0. -1.
         11    1    1    2    0    0  0.16182706412E+02  0.60849345498E+02 -0.11469957460E+03  0.13084538680E+03  0.00000000000E+00 0.  1.
</event>
<event>
 7    1  0.2384639E-009  0.1372444E+03  0.7561462E-02  0.1217086E+00
          1   -1    0    0  501    0  0.00000000000E+00  0.00000000000E+00  0.84697331763E+03  0.84697331763E+03  0.00000000000E+00 0. -1.
         -1   -1    0    0    0  501 -0.00000000000E+00 -0.00000000000E+00 -0.24377460696E+02  0.24377460696E+02  0.00000000000E+00 0.  1.
         25    2    1    2    0    0  0.33839590963E+02 -0.87376821163E+02  0.41509248672E+03  0.44354174767E+03  0.12509069748E+03 0.  0.
          5    1    3    3  502    0  0.76427154820E+02 -0.44073126700E+02  0.30734554960E+03  0.31978478661E+03  0.41800000000E+01 0.  1.
         -5    1    3    3    0  502 -0.42587563857E+02 -0.43303694463E+02  0.10774693713E+03  0.12375696105E+03  0.41800000000E+01 0.  1.
        -11    1    1    2    0    0  0.12021631218E+02 -0.11283104419E+02  0.23614001139E+02  0.28800158199E+02  0.00000000000E+00 0.  1.
         11    1    1    2    0    0 -0.45861222181E+02  0.98659925583E+02  0.38388936907E+03  0.39900887246E+03  0.00000000000E+00 0. -1.
</event>
<event>
 7    1  0.2384639E-009  0.9610163E+02  0.7561462E-02  0.1288714E+00
          1   -1    0    0  501    0  0.00000000000E+00  0.00000000000E+00  0.12277824306E+03  0.12277824306E+03  0.00000000000E+00 0. -1.
         -1   -1    0    0    0  501 -0.00000000000E+00 -0.00000000000E+00 -0.13552037930E+03  0.13552037930E+03  0.00000000000E+00 0.  1.
         25    2    1    2    0    0  0.60646264559E+02  0.15314773927E+02  0.23049207684E+02  0.14174705522E+03  0.12509376477E+03 0.  0.
          5    1    3    3  502    0  0.65341024346E+02 -0.10793745656E+02 -0.36992897755E+02  0.75973030031E+02  0.41800000000E+01 0. -1.
         -5    1    3    3    0  502 -0.46947597863E+01  0.26108519583E+02  0.60042105439E+02  0.65774025190E+02  0.41800000000E+01 0. -1.
        -11    1    1    2    0    0 -0.69275599382E+02  0.12033489142E+02 -0.48259242081E+02  0.85281111489E+02  0.00000000000E+00 0.  1.
         11    1    1    2    0    0  0.86293348222E+01 -0.27348263068E+02  0.12467898158E+02  0.31270455654E+02  0.00000000000E+00 0. -1.
</event>
<event>
 7    1  0.2384639E-009  0.1069613E+03  0.7561462E-02  0.1266303E+00
          2   -1    0    0  501    0  0.00000000000E+00  0.00000000000E+00  0.76126688573E+03  0.76126688573E+03  0.00000000000E+00 0. -1.
         -2   -1    0    0    0  501 -0.00000000000E+00 -0.00000000000E+00 -0.18218890226E+02  0.18218890226E+02  0.00000000000E+00 0.  1.
         25    2    1    2    0    0 -0.13429528912E+02 -0.32614937296E+02  0.31946645975E+03  0.34489320966E+03  0.12509364805E+03 0.  0.
          5    1    3    3  502    0  0.35187454192E+02  0.24329602293E+02  0.19415876933E+03  0.19885971585E+03  0.41800000000E+01 0.  1.
         -5    1    3    3    0  502 -0.48616983104E+02 -0.56944539590E+02  0.12530769041E+03  0.14603349380E+03  0.41800000000E+01 0.  1.
        -11    1    1    2    0    0 -0.35362840596E+02 -0.30738220851E+01  0.12441686082E+03  0.12938135157E+03  0.00000000000E+00 0.  1.
         11    1    1    2    0    0  0.48792369508E+02  0.35688759382E+02  0.29916467493E+03  0.30521121473E+03  0.00000000000E+00 0. -1.
</event>
<event>
 7    1  0.2384639E-009  0.9052266E+02  0.7561462E-02  0.1301591E+00
         -1   -1    0    0    0  501 -0.00000000000E+00  0.00000000000E+00  0.28558546598E+03  0.28558546598E+03  0.00000000000E+00 0.  1.
          1   -1    0    0  501    0  0.00000000000E+00 -0.00000000000E+00 -0.57915761255E+02  0.57915761255E+02  0.00000000000E+00 0. -1.
         25    2    1    2    0    0 -0.25381309279E+02 -0.96341882605E+01  0.22794980568E+03  0.26143169220E+03  0.12509351435E+03 0.  0.
          5    1    3    3  502    0 -0.74102310054E+02  0.68635328469E+01  0.11224584611E+03  0.13473998221E+03  0.41800000000E+01 0. -1.
         -5    1    3    3    0  502  0.48721000775E+02 -0.16497721107E+02  0.11570395957E+03  0.12669170998E+03  0.41800000000E+01 0. -1.
        -11    1    1    2    0    0 -0.14037991756E+02  0.61548646286E+01  0.29027552888E+02  0.32826001855E+02  0.00000000000E+00 0.  1.
         11    1    1    2    0    0  0.39419301035E+02  0.34793236319E+01 -0.29307653838E+02  0.49243533185E+02  0.00000000000E+00 0. -1.
</event>
<event>
 7    1  0.2384639E-009  0.1151728E+03  0.7561462E-02  0.1251280E+00
         -1   -1    0    0    0  501 -0.00000000000E+00  0.00000000000E+00  0.12316773245E+03  0.12316773245E+03  0.00000000000E+00 0.  1.
          1   -1    0    0  501    0  0.00000000000E+00 -0.00000000000E+00 -0.31316694919E+03  0.31316694919E+03  0.00000000000E+00 0. -1.
         25    2    1    2    0    0 -0.46596735953E+02  0.75677773639E+02 -0.25005938139E+03  0.29338710587E+03  0.12509164019E+03 0.  0.
          5    1    3    3  502    0 -0.55264825706E+02  0.31490050991E+02 -0.33217750829E+02  0.71879869517E+02  0.41800000000E+01 0.  1.
         -5    1    3    3    0  502  0.86680897537E+01  0.44187722648E+02 -0.21684163056E+03  0.22150723635E+03  0.41800000000E+01 0.  1.
        -11    1    1    2    0    0  0.33761458103E+02 -0.93503694367E+02  0.26579068057E+02  0.10290395411E+03  0.00000000000E+00 0. -1.
         11    1    1    2    0    0  0.12835277850E+02  0.17825920728E+02  0.33481096584E+02  0.40043621661E+02  0.00000000000E+00 0.  1.
</event>
<event>
 7    1  0.2384639E-009  0.1047087E+03  0.7561462E-02  0.1270695E+00
         -1   -1    0    0    0  501 -0.00000000000E+00  0.00000000000E+00  0.47157146752E+03  0.47157146752E+03  0.00000000000E+00 0.  1.
          1   -1    0    0  501    0  0.00000000000E+00 -0.00000000000E+00 -0.38297569727E+02  0.38297569727E+02  0.00000000000E+00 0. -1.
         25    2    1    2    0    0 -0.37149085352E+02  0.12847457983E+01  0.10441890964E+03  0.16712921481E+03  0.12508861114E+03 0.  0.
          5    1    3    3  502    0  0.31173945447E+02 -0.28511346146E+02  0.76376263460E+02  0.87381449713E+02  0.41800000000E+01 0. -1.
         -5    1    3    3    0  502 -0.68323030799E+02  0.29796091944E+02  0.28042646180E+02  0.79747765094E+02  0.41800000000E+01 0. -1.
        -11    1    1    2    0    0  0.68664145435E+01  0.40292938505E+02  0.97224439176E+02  0.10546686738E+03  0.00000000000E+00 0. -1.
         11    1    1    2    0    0  0.30282670808E+02 -0.41577684304E+02  0.23163054897E+03  0.23727295506E+03  0.00000000000E+00 0.  1.
</event>
<event>
 7    1  0.2520750E-009  0.1040746E+03  0.7561462E-02  0.1271954E+00
         -1   -1    0    0    0  501 -0.00000000000E+00  0.00000000000E+00  0.28082057025E+02  0.28082057025E+02  0.00000000000E+00 0.  1.
          1   -1    0    0  501    0  0.00000000000E+00 -0.00000000000E+00 -0.46147006962E+03  0.46147006962E+03  0.00000000000E+00 0. -1.
         25    2    1    2    0    0 -0.23646832297E+02 -0.58199700579E+01 -0.19261103839E+03  0.23095250702E+03  0.12508798368E+03 0.  0.
          5    1    3    3  502    0  0.89836449989E+01  0.56101008568E+02 -0.77890992860E+02  0.96501337859E+02  0.41800000000E+01 0.  1.
         -5    1    3    3    0  502 -0.32630477296E+02 -0.61920978626E+02 -0.11472004553E+03  0.13445116916E+03  0.41800000000E+01 0.  1.
        -11    1    1    2    0    0  0.26862785253E+02  0.39203861213E+02 -0.70311065094E+02  0.84865763652E+02  0.00000000000E+00 0.  1.
         11    1    1    2    0    0 -0.32159529559E+01 -0.33383891155E+02 -0.17046590911E+03  0.17373385597E+03  0.00000000000E+00 0. -1.
</event>
<event>
 7    1  0.2384639E-009  0.9704430E+02  0.7561462E-02  0.1286637E+00
          1   -1    0    0  501    0  0.00000000000E+00  0.00000000000E+00  0.51023590638E+02  0.51023590638E+02  0.00000000000E+00 0. -1.
         -1   -1    0    0    0  501 -0.00000000000E+00 -0.00000000000E+00 -0.30499271975E+03  0.30499271975E+03  0.00000000000E+00 0.  1.
         25    2    1    2    0    0 -0.59913515335E+02  0.16224593780E+02 -0.15969637265E+03  0.21214217805E+03  0.12509398669E+03 0.  0.
          5    1    3    3  502    0 -0.90084248193E+02  0.32048355296E+02 -0.14727302271E+03  0.17563907443E+03  0.41800000000E+01 0. -1.
         -5    1    3    3    0  502  0.30170732858E+02 -0.15823761516E+02 -0.12423349943E+02  0.36503103615E+02  0.41800000000E+01 0. -1.
        -11    1    1    2    0    0  0.41814236293E+02 -0.35551479208E+01 -0.10935052890E+03  0.11712645988E+03  0.00000000000E+00 0.  1.
         11    1    1    2    0    0  0.18099279043E+02 -0.12669445859E+02  0.15077772440E+02  0.26747672459E+02  0.00000000000E+00 0. -1.
</event>
<event>
 7    1  0.2384639E-009  0.1062893E+03  0.7561462E-02  0.1267600E+00
         -2   -1    0    0    0  501 -0.00000000000E+00  0.00000000000E+00  0.49316603913E+02  0.49316603913E+02  0.00000000000E+00 0.  1.
          2   -1    0    0  501    0  0.00000000000E+00 -0.00000000000E+00 -0.27633363327E+03  0.27633363327E+03  0.00000000000E+00 0. -1.
         25    2    1    2    0    0 -0.46192819687E+01 -0.34781191721E+02 -0.16208132226E+03  0.20772333677E+03  0.12509020966E+03 0.  0.
          5    1    3    3  502    0 -0.45507508668E+02 -0.64234773719E+02 -0.10766753901E+03  0.13344216296E+03  0.41800000000E+01 0.  1.
         -5    1    3    3    0  502  0.40888226699E+02  0.29453581999E+02 -0.54413783248E+02  0.74281173809E+02  0.41800000000E+01 0.  1.
        -11    1    1    2    0    0  0.16936948903E+02  0.56077401526E+02 -0.12344558932E+02  0.59865877888E+02  0.00000000000E+00 0.  1.
         11    1    1    2    0    0 -0.12317666935E+02 -0.21296209806E+02 -0.52591148165E+02  0.58061022521E+02  0.00000000000E+00 0. -1.
</event>
<event>
 7    1  0.2384639E-009  0.1215834E+03  0.7561462E-02  0.1240507E+00
          2   -1    0    0  501    0  0.00000000000E+00  0.00000000000E+00  0.75934460344E+03  0.75934460344E+03  0.00000000000E+00 0. -1.
         -2   -1    0    0    0  501 -0.00000000000E+00 -0.00000000000E+00 -0.27250566505E+02  0.27250566505E+02  0.00000000000E+00 0.  1.
         25    2    1    2    0    0 -0.62003191627E+02 -0.65388378208E+02  0.50375593523E+03  0.52681652471E+03  0.12508226353E+03 0.  0.
          5    1    3    3  502    0 -0.26958747191E+02 -0.99951313411E+02  0.30965283434E+03  0.32652624598E+03  0.41800000000E+01 0.  1.
         -5    1    3    3    0  502 -0.35044444436E+02  0.34562935203E+02  0.19410310089E+03  0.20029027873E+03  0.41800000000E+01 0.  1.
        -11    1    1    2    0    0  0.24181051560E+02  0.23391914168E+02  0.18637177295E+03  0.18938411406E+03  0.00000000000E+00 0. -1.
         11    1    1    2    0    0  0.37822140067E+02  0.41996464039E+02  0.41966328748E+02  0.70394531177E+02  0.00000000000E+00 0.  1.
</event>
<event>
 7    1  0.2384639E-009  0.8363174E+02  0.7561462E-02  0.1319050E+00
          1   -1    0    0  501    0  0.00000000000E+00  0.00000000000E+00  0.34243856191E+03  0.34243856191E+03  0.00000000000E+00 0. -1.
         -1   -1    0    0    0  501 -0.00000000000E+00 -0.00000000000E+00 -0.51958805641E+02  0.51958805641E+02  0.00000000000E+00 0.  1.
         25    2    1    2    0    0  0.35688836334E+02  0.47362010487E+02  0.10914581849E+03  0.17628499759E+03  0.12508692020E+03 0.  0.
          5    1    3    3  502    0  0.38977674709E+02  0.41442549882E+02  0.13642351424E+03  0.14787018531E+03  0.41800000000E+01 0. -1.
         -5    1    3    3    0  502 -0.32888383754E+01  0.59194606046E+01 -0.27277695745E+02  0.28414812280E+02  0.41800000000E+01 0. -1.
        -11    1    1    2    0    0 -0.62544633353E+02 -0.25162303805E+02  0.16761624397E+03  0.18066592910E+03  0.00000000000E+00 0. -1.
         11    1    1    2    0    0  0.26855797019E+02 -0.22199706682E+02  0.13717693811E+02  0.37446440869E+02  0.00000000000E+00 0.  1.
</event>
<event>
 7    1  0.2384639E-009  0.8599516E+02  0.7561462E-02  0.1312850E+00
          1   -1    0    0  501    0  0.00000000000E+00  0.00000000000E+00  0.23017423713E+03  0.23017423713E+03  0.00000000000E+00 0. -1.
         -1   -1    0    0    0  501 -0.00000000000E+00 -0.00000000000E+00 -0.64945788627E+02  0.64945788627E+02  0.00000000000E+00 0.  1.
         25    2    1    2    0    0  0.30916758671E+02  0.31878091177E+02  0.50927294180E+02  0.14217688938E+03  0.12509444400E+03 0.  0.
          5    1    3    3  502    0 -0.24481880608E+02 -0.19077005318E+01  0.70093681736E+02  0.74388160474E+02  0.41800000000E+01 0.  1.
         -5    1    3    3    0  502  0.55398639279E+02  0.33785791709E+02 -0.19166387556E+02  0.67788728911E+02  0.41800000000E+01 0.  1.
        -11    1    1    2    0    0 -0.29112786500E+02  0.16622533605E+02  0.94948272909E+02  0.10069278767E+03  0.00000000000E+00 0. -1.
         11    1    1    2    0    0 -0.18039721707E+01 -0.48500624782E+02  0.19352881412E+02  0.52250348695E+02  0.00000000000E+00 0.  1.
</event>
<event>
 7    1  0.2384639E-009  0.1322350E+03  0.7561462E-02  0.1224177E+00
          1   -1    0    0  501    0  0.00000000000E+00  0.00000000000E+00  0.10386193548E+03  0.10386193548E+03  0.00000000000E+00 0. -1.
         -1   -1    0    0    0  501 -0.00000000000E+00 -0.00000000000E+00 -0.39116455632E+03  0.39116455632E+03  0.00000000000E+00 0.  1.
         25    2    1    2    0    0 -0.91429465414E+02  0.14240513476E+02 -0.32472281498E+03  0.36007820473E+03  0.12509703266E+03 0.  0.
          5    1    3    3  502    0 -0.11521388559E+03 -0.99557851834E+00 -0.30302077837E+03  0.32421334818E+03  0.41800000000E+01 0.  1.
         -5    1    3    3    0  502  0.23784420179E+02  0.15236091995E+02 -0.21702036607E+02  0.35864856551E+02  0.41800000000E+01 0.  1.
        -11    1    1    2    0    0  0.78753209826E+02  0.22378778158E+02  0.11620643965E+01  0.81879351264E+02  0.00000000000E+00 0.  1.
         11    1    1    2    0    0  0.12676255588E+02 -0.36619291635E+02  0.36258129744E+02  0.53068935811E+02  0.00000000000E+00 0. -1.
</event>
<event>
 7    1  0.2384639E-009  0.1118572E+03  0.7561462E-02  0.1257169E+00
          2   -1    0    0  501    0  0.00000000000E+00  0.00000000000E+00  0.42748838651E+03  0.42748838651E+03  0.00000000000E+00 0.  1.
         -2   -1    0    0    0  501 -0.00000000000E+00 -0.00000000000E+00 -0.48388578725E+02  0.48388578725E+02  0.00000000000E+00 0. -1.
         25    2    1    2    0    0  0.77778714361E+02 -0.41296787861E+02  0.25414238488E+03  0.29663396626E+03  0.12509358517E+03 0.  0.
          5    1    3    3  502    0  0.34361672307E+02  0.65855930436E+01  0.22115975512E+03  0.22394911084E+03  0.41800000000E+01 0.  1.
         -5    1    3    3    0  502  0.43417042053E+02 -0.47882380904E+02  0.32982629758E+02  0.72684855420E+02  0.41800000000E+01 0.  1.
        -11    1    1    2    0    0 -0.45629774732E+02 -0.23535743728E+02  0.76571939497E+02  0.92191482758E+02  0.00000000000E+00 0. -1.
         11    1    1    2    0    0 -0.32148939629E+02  0.64832531588E+02  0.48385483410E+02  0.87051516220E+02  0.00000000000E+00 0.  1.
</event>
<event>
 7    1  0.2384639E-009  0.9317866E+02  0.7561462E-02  0.1295332E+00
          2   -1    0    0  501    0  0.00000000000E+00  0.00000000000E+00  0.82324979159E+03  0.82324979159E+03  0.00000000000E+00 0. -1.
         -2   -1    0    0    0  501 -0.00000000000E+00 -0.00000000000E+00 -0.15594400422E+02  0.15594400422E+02  0.00000000000E+00 0.  1.
         25    2    1    2    0    0 -0.16339499881E+02 -0.16412127504E+01  0.65444640250E+03  0.66649531575E+03  0.12508492849E+03 0.  0.
          5    1    3    3  502    0  0.30348780480E+02 -0.43293541369E+02  0.17201464715E+03  0.18000525113E+03  0.41800000000E+01 0. -1.
         -5    1    3    3    0  502 -0.46688280361E+02  0.41652328619E+02  0.48243175535E+03  0.48649006462E+03  0.41800000000E+01 0. -1.
        -11    1    1    2    0    0 -0.26247443832E+02 -0.69873661363E+01  0.10014984182E+03  0.10376773299E+03  0.00000000000E+00 0. -1.
         11    1    1    2    0    0  0.42586943713E+02  0.86285788867E+01  0.53059146848E+02  0.68581143273E+02  0.00000000000E+00 0.  1.
</event>
<event>
 7    1  0.2384639E-009  0.1107623E+03  0.7561462E-02  0.1259165E+00
         -2   -1    0    0    0  501 -0.00000000000E+00  0.00000000000E+00  0.76298080767E+02  0.76298080767E+02  0.00000000000E+00 0.  1.
          2   -1    0    0  501    0  0.00000000000E+00 -0.00000000000E+00 -0.18634616568E+03  0.18634616568E+03  0.00000000000E+00 0. -1.
         25    2    1    2    0    0  0.41198619032E+02  0.19913672179E+02 -0.42790335010E+02  0.13990318416E+03  0.12509199662E+03 0.  0.
          5    1    3    3  502    0  0.33555135540E+02 -0.47062907970E+02  0.34441458293E+01  0.58053414785E+02  0.41800000000E+01 0.  1.
         -5    1    3    3    0  502  0.76434834918E+01  0.66976580149E+02 -0.46234480840E+02  0.81849769376E+02  0.41800000000E+01 0.  1.
        -11    1    1    2    0    0  0.10734555468E+02 -0.39192886642E+02 -0.50594118373E+02  0.64892818234E+02  0.00000000000E+00 0. -1.
         11    1    1    2    0    0 -0.51933174500E+02  0.19279214463E+02 -0.16663631527E+02  0.57848244050E+02  0.00000000000E+00 0.  1.
</event>
<event>
 7    1  0.2384639E-009  0.8319476E+02  0.7561462E-02  0.1320222E+00
         -1   -1    0    0    0  501 -0.00000000000E+00  0.00000000000E+00  0.29267245716E+02  0.29267245716E+02  0.00000000000E+00 0.  1.
          1   -1    0    0  501    0  0.00000000000E+00 -0.00000000000E+00 -0.43969127562E+03  0.43969127562E+03  0.00000000000E+00 0. -1.
         25    2    1    2    0    0 -0.35791575263E+02  0.86277426413E+01 -0.39105504190E+03  0.41222210786E+03  0.12509014993E+03 0.  0.
          5    1    3    3  502    0 -0.68178330422E+02 -0.25340503843E+02 -0.15188309165E+03  0.16845287710E+03  0.41800000000E+01 0. -1.
         -5    1    3    3    0  502  0.32386755159E+02  0.33968246484E+02 -0.23917195025E+03  0.24376923076E+03  0.41800000000E+01 0. -1.
        -11    1    1    2    0    0  0.44393878410E+01 -0.13927639150E+02  0.62546327757E+01  0.15899928549E+02  0.00000000000E+00 0.  1.
         11    1    1    2    0    0  0.31352187422E+02  0.52998965091E+01 -0.25623620775E+02  0.40836484922E+02  0.00000000000E+00 0. -1.
</event>
<event>
 7    1  0.2384639E-009  0.1845396E+03  0.7561462E-02  0.1163481E+00
         -3   -1    0    0    0  501 -0.00000000000E+00  0.00000000000E+00  0.27440303795E+03  0.27440303795E+03  0.00000000000E+00 0.  1.
          3   -1    0    0  501    0  0.00000000000E+00 -0.00000000000E+00 -0.16439383019E+03  0.16439383019E+03  0.00000000000E+00 0. -1.
         25    2    1    2    0    0 -0.15334746326E+03 -0.76386997344E+02  0.11943126420E+03  0.24343657281E+03  0.12508844976E+03 0.  0.
          5    1    3    3  502    0 -0.47054019773E+02 -0.40945861129E+02 -0.18957595733E+02  0.65326159816E+02  0.41800000000E+01 0.  1.
         -5    1    3    3    0  502 -0.10629344348E+03 -0.35441136216E+02  0.13838885993E+03  0.17811041299E+03  0.41800000000E+01 0.  1.
        -11    1    1    2    0    0  0.12200049623E+03  0.11702892281E+02  0.20120431805E+01  0.12257702511E+03  0.00000000000E+00 0.  1.
         11    1    1    2    0    0  0.31346967028E+02  0.64684105063E+02 -0.11434099623E+02  0.72783270220E+02  0.00000000000E+00 0. -1.
</event>
<event>
 7    1  0.2384639E-009  0.1316869E+03  0.7561462E-02  0.1224974E+00
          1   -1    0    0  501    0  0.00000000000E+00  0.00000000000E+00  0.20037938772E+03  0.20037938772E+03  0.00000000000E+00 0. -1.
         -1   -1    0    0    0  501 -0.00000000000E+00 -0.00000000000E+00 -0.96053590478E+02  0.96053590478E+02  0.00000000000E+00 0.  1.
         25    2    1    2    0    0  0.51018543511E+02  0.62618391103E+02  0.90358916568E+02  0.17417303502E+03  0.12509019801E+03 0.  0.
          5    1    3    3  502    0 -0.24862562993E+02  0.62036012194E+02  0.66853184252E+02  0.94622589756E+02  0.41800000000E+01 0. -1.
         -5    1    3    3    0  502  0.75881106504E+02  0.58237890852E+00  0.23505732316E+02  0.79550445261E+02  0.41800000000E+01 0. -1.
        -11    1    1    2    0    0 -0.41784987193E-01 -0.69033367433E+02  0.15915219171E+02  0.70844207713E+02  0.00000000000E+00 0. -1.
         11    1    1    2    0    0 -0.50976758524E+02  0.64149763303E+01 -0.19483384954E+01  0.51415735469E+02  0.00000000000E+00 0.  1.
</event>
<event>
 7    1  0.2384639E-009  0.2143586E+03  0.7561462E-02  0.1138160E+00
         -1   -1    0    0    0  501 -0.00000000000E+00  0.00000000000E+00  0.53354113125E+02  0.53354113125E+02  0.00000000000E+00 0.  1.
          1   -1    0    0  501    0  0.00000000000E+00 -0.00000000000E+00 -0.10075744553E+04  0.10075744553E+04  0.00000000000E+00 0. -1.
         25    2    1    2    0    0 -0.17700967003E+03 -0.53930192591E+02 -0.69257397466E+03  0.72770003013E+03  0.12509090501E+03 0.  0.
          5    1    3    3  502    0 -0.72147215865E+02 -0.86658570861E+02 -0.32437842411E+03  0.34344397373E+03  0.41800000000E+01 0. -1.
         -5    1    3    3    0  502 -0.10486245416E+03  0.32728378270E+02 -0.36819555054E+03  0.38425605640E+03  0.41800000000E+01 0. -1.
        -11    1    1    2    0    0  0.44865542908E+02 -0.25661814459E+02 -0.74990284297E+02  0.91076826914E+02  0.00000000000E+00 0. -1.
         11    1    1    2    0    0  0.13214412712E+03  0.79592007050E+02 -0.18665608317E+03  0.24215171134E+03  0.00000000000E+00 0.  1.
</event>
<event>
 7    1  0.2384639E-009  0.9330561E+02  0.7561462E-02  0.1295039E+00
          1   -1    0    0  501    0  0.00000000000E+00  0.00000000000E+00  0.18374778947E+02  0.18374778947E+02  0.00000000000E+00 0. -1.
         -1   -1    0    0    0  501 -0.00000000000E+00 -0.00000000000E+00 -0.11279048828E+04  0.11279048828E+04  0.00000000000E+00 0.  1.
         25    2    1    2    0    0 -0.49368577930E+02 -0.62320372548E+02 -0.82538465743E+03  0.83858848353E+03  0.12509886753E+03 0.  0.
          5    1    3    3  502    0  0.63619104389E+01 -0.28708249386E+02 -0.66204330518E+03  0.66270917289E+03  0.41800000000E+01 0.  1.
         -5    1    3    3    0  502 -0.55730488369E+02 -0.33612123162E+02 -0.16334135225E+03  0.17587931064E+03  0.41800000000E+01 0.  1.
        -11    1    1    2    0    0  0.37121985751E+02  0.10688033715E+02 -0.22474232215E+03  0.22803812676E+03  0.00000000000E+00 0.  1.
         11    1    1    2    0    0  0.12246592179E+02  0.51632338832E+02 -0.59403124254E+02  0.79653051445E+02  0.00000000000E+00 0. -1.
</event>
<event>
 7    1  0.2384639E-009  0.1440693E+03  0.7561462E-02  0.1207956E+00
         -2   -1    0    0    0  501 -0.00000000000E+00  0.00000000000E+00  0.18160550586E+03  0.18160550586E+03  0.00000000000E+00 0.  1.
          2   -1    0    0  501    0  0.00000000000E+00 -0.00000000000E+00 -0.14579616042E+03  0.14579616042E+03  0.00000000000E+00 0. -1.
         25    2    1    2    0    0 -0.10079325552E+03  0.21595995109E+01  0.85793468634E+02  0.18212307866E+03  0.12507738521E+03 0.  0.
          5    1    3    3  502    0  0.18420701963E+02  0.27914617732E+02  0.13724820397E+01  0.33732836389E+02  0.41800000000E+01 0.  1.
         -5    1    3    3    0  502 -0.11921395749E+03 -0.25755018221E+02  0.84420986594E+02  0.14839024227E+03  0.41800000000E+01 0.  1.
        -11    1    1    2    0    0  0.23989582233E+02  0.38600970763E+02 -0.34269353109E+02  0.56920326440E+02  0.00000000000E+00 0. -1.
         11    1    1    2    0    0  0.76803673291E+02 -0.40760570274E+02 -0.15714770087E+02  0.88358261181E+02  0.00000000000E+00 0.  1.
</event>
<event>
 7    1  0.2384639E-009  0.8423306E+02  0.7561462E-02  0.1317450E+00
          2   -1    0    0  501    0  0.00000000000E+00  0.00000000000E+00  0.17899216324E+03  0.17899216324E+03  0.00000000000E+00 0. -1.
         -2   -1    0    0    0  501 -0.00000000000E+00 -0.00000000000E+00 -0.75064268063E+02  0.75064268063E+02  0.00000000000E+00 0.  1.
         25    2    1    2    0    0 -0.34895976736E+02 -0.37869318783E+02  0.89439818077E+02  0.16216858864E+03  0.12508939039E+03 0.  0.
          5    1    3    3  502    0 -0.25124891355E+02 -0.54814647932E+02  0.11487764872E+03  0.12980852194E+03  0.41800000000E+01 0.  1.
         -5    1    3    3    0  502 -0.97710853803E+01  0.16945329149E+02 -0.25437830638E+02  0.32360066704E+02  0.41800000000E+01 0.  1.
        -11    1    1    2    0    0 -0.21921605956E+02  0.53883411238E+01  0.13759959219E+02  0.26437237100E+02  0.00000000000E+00 0.  1.
         11    1    1    2    0    0  0.56817582692E+02  0.32480977659E+02  0.72811788202E+00  0.65450605561E+02  0.00000000000E+00 0. -1.
</event>
<event>
 7    1  0.2384639E-009  0.1145440E+03  0.7561462E-02  0.1252379E+00
          1   -1    0    0  501    0  0.00000000000E+00  0.00000000000E+00  0.71408359731E+03  0.71408359731E+03  0.00000000000E+00 0. -1.
         -1   -1    0    0    0  501 -0.00000000000E+00 -0.00000000000E+00 -0.20411198108E+02  0.20411198108E+02  0.00000000000E+00 0.  1.
         25    2    1    2    0    0 -0.33639155817E+02  0.34018224318E+02  0.47521382229E+03  0.49372560844E+03  0.12509183482E+03 0.  0.
          5    1    3    3  502    0  0.29531566426E+02 -0.27241836623E+02  0.22148282219E+03  0.22513627873E+03  0.41800000000E+01 0.  1.
         -5    1    3    3    0  502 -0.63170722244E+02  0.61260060941E+02  0.25373100011E+03  0.26858932970E+03  0.41800000000E+01 0.  1.
        -11    1    1    2    0    0 -0.26945698208E+02 -0.29335347349E+02  0.73734728285E+02  0.83805986727E+02  0.00000000000E+00 0.  1.
         11    1    1    2    0    0  0.60584854025E+02 -0.46828769690E+01  0.14472384863E+03  0.15696320026E+03  0.00000000000E+00 0. -1.
</event>
<event>
 7    1  0.2384639E-009  0.2977537E+03  0.7561462E-02  0.1086369E+00
          2   -1    0    0  501    0  0.00000000000E+00  0.00000000000E+00  0.23794466509E+03  0.23794466509E+03  0.00000000000E+00 0.  1.
         -2   -1    0    0    0  501 -0.00000000000E+00 -0.00000000000E+00 -0.39629089424E+03  0.39629089424E+03  0.00000000000E+00 0. -1.
         25    2    1    2    0    0  0.11778224035E+03 -0.25598780038E+03 -0.25121945159E+02  0.30932283347E+03  0.12508834116E+03 0.  0.
          5    1    3    3  502    0  0.23088948129E+02 -0.17137107015E+03  0.20805773797E+02  0.17421680698E+03  0.41800000000E+01 0.  1.
         -5    1    3    3    0  502  0.94693292222E+02 -0.84616730225E+02 -0.45927718957E+02  0.13510602649E+03  0.41800000000E+01 0.  1.
        -11    1    1    2    0    0 -0.13113537264E+03  0.20992104726E+03 -0.12051312030E+03  0.27529392329E+03  0.00000000000E+00 0.  1.
         11    1    1    2    0    0  0.13353132288E+02  0.46066753122E+02 -0.12711163695E+02  0.49618802561E+02  0.00000000000E+00 0. -1.
</event>
<event>
 7    1  0.2384639E-009  0.1053824E+03  0.7561462E-02  0.1269368E+00
          1   -1    0    0  501    0  0.00000000000E+00  0.00000000000E+00  0.48370571238E+03  0.48370571238E+03  0.00000000000E+00 0. -1.
         -1   -1    0    0    0  501 -0.00000000000E+00 -0.00000000000E+00 -0.27881410352E+02  0.27881410352E+02  0.00000000000E+00 0.  1.
         25    2    1    2    0    0 -0.31576318438E+02  0.25136495319E+02  0.23268369445E+03  0.26724265517E+03  0.12509207727E+03 0.  0.
          5    1    3    3  502    0 -0.40320518431E+02 -0.36891501746E+02  0.50436464515E+02  0.74485142547E+02  0.41800000000E+01 0.  1.
         -5    1    3    3    0  502  0.87441999923E+01  0.62027997065E+02  0.18224722994E+03  0.19275751262E+03  0.41800000000E+01 0.  1.
        -11    1    1    2    0    0  0.15321669483E+02 -0.56126109647E+02  0.94013406413E+02  0.11055955104E+03  0.00000000000E+00 0. -1.
         11    1    1    2    0    0  0.16254648955E+02  0.30989614328E+02  0.12912720116E+03  0.13378491652E+03  0.00000000000E+00 0.  1.
</event>
<event>
 7    1  0.2384639E-009  0.1458930E+03  0.7561462E-02  0.1205612E+00
         -1   -1    0    0    0  501 -0.00000000000E+00  0.00000000000E+00  0.50375796805E+03  0.50375796805E+03  0.00000000000E+00 0.  1.
          1   -1    0    0  501    0  0.00000000000E+00 -0.00000000000E+00 -0.58641045442E+02  0.58641045442E+02  0.00000000000E+00 0. -1.
         25    2    1    2    0    0  0.25480352709E+02  0.11633119699E+03  0.33439849405E+03  0.37636687789E+03  0.12508988044E+03 0.  0.
          5    1    3    3  502    0  0.19925418893E+02  0.14334160446E+03  0.27728342981E+03  0.31280570764E+03  0.41800000000E+01 0.  1.
         -5    1    3    3    0  502  0.55549338166E+01 -0.27010407466E+02  0.57115064239E+02  0.63561170255E+02  0.41800000000E+01 0.  1.
        -11    1    1    2    0    0 -0.13159872781E+02 -0.54265921574E+02  0.10930293478E+03  0.12273998553E+03  0.00000000000E+00 0.  1.
         11    1    1    2    0    0 -0.12320479929E+02 -0.62065275416E+02  0.14154937862E+01  0.63292150073E+02  0.00000000000E+00 0. -1.
</event>
<event>
 7    1  0.2384639E-009  0.1026962E+03  0.7561462E-02  0.1274726E+00
          2   -1    0    0  501    0  0.00000000000E+00  0.00000000000E+00  0.53466951483E+02  0.53466951483E+02  0.00000000000E+00 0. -1.
         -2   -1    0    0    0  501 -0.00000000000E+00 -0.00000000000E+00 -0.28491284694E+03  0.28491284694E+03  0.00000000000E+00 0.  1.
         25    2    1    2    0    0  0.45098587914E+02 -0.34897416111E+02 -0.14351415726E+03  0.19873577262E+03  0.12509149332E+03 0.  0.
          5    1    3    3  502    0  0.79009037291E+02 -0.56341450480E+02 -0.10228815412E+03  0.14105717241E+03  0.41800000000E+01 0. -1.
         -5    1    3    3    0  502 -0.33910449377E+02  0.21444034369E+02 -0.41226003142E+02  0.57678600209E+02  0.41800000000E+01 0. -1.
        -11    1    1    2    0    0 -0.29040067811E+02 -0.50991890818E+00 -0.95688234161E+02  0.99999118559E+02  0.00000000000E+00 0. -1.
         11    1    1    2    0    0 -0.16058520103E+02  0.35407335020E+02  0.77564959606E+01  0.39644907248E+02  0.00000000000E+00 0.  1.
</event>
<event>
 7    1  0.2384639E-009  0.1802390E+03  0.7561462E-02  0.1167572E+00
         -1   -1    0    0    0  501 -0.00000000000E+00  0.00000000000E+00  0.58687407272E+03  0.58687407272E+03  0.00000000000E+00 0.  1.
          1   -1    0    0  501    0  0.00000000000E+00 -0.00000000000E+00 -0.74195437012E+02  0.74195437012E+02  0.00000000000E+00 0. -1.
         25    2    1    2    0    0 -0.15707627190E+03 -0.30387964398E+02  0.14339331408E+03  0.24861113226E+03  0.12509783764E+03 0.  0.
          5    1    3    3  502    0 -0.11618366622E+03  0.15727617476E+02  0.32606775287E+02  0.12176484075E+03  0.41800000000E+01 0. -1.
         -5    1    3    3    0  502 -0.40892605681E+02 -0.46115581873E+02  0.11078653879E+03  0.12684629151E+03  0.41800000000E+01 0. -1.
        -11    1    1    2    0    0  0.46595784151E+02  0.50908800091E+02  0.10981116926E+03  0.12969720861E+03  0.00000000000E+00 0. -1.
         11    1    1    2    0    0  0.11048048775E+03 -0.20520835694E+02  0.25947415237E+03  0.28276116886E+03  0.00000000000E+00 0.  1.
</event>
<event>
 7    1  0.2384639E-009  0.1129315E+03  0.7561462E-02  0.1255235E+00
          4   -1    0    0  501    0  0.00000000000E+00  0.00000000000E+00  0.76794876230E+03  0.76794876230E+03  0.00000000000E+00 0. -1.
         -4   -1    0    0    0  501 -0.00000000000E+00 -0.00000000000E+00 -0.18772218433E+02  0.18772218433E+02  0.00000000000E+00 0.  1.
         25    2    1    2    0    0 -0.49722698379E+01 -0.41059353768E+02  0.50193596554E+03  0.51894000463E+03  0.12509364856E+03 0.  0.
          5    1    3    3  502    0 -0.63005221168E+02 -0.37518964196E+02  0.28351267382E+03  0.29287239403E+03  0.41800000000E+01 0. -1.
         -5    1    3    3    0  502  0.58032951331E+02 -0.35403895720E+01  0.21842329172E+03  0.22606761060E+03  0.41800000000E+01 0. -1.
        -11    1    1    2    0    0  0.19210384836E+02  0.64166948196E+02  0.21720722865E+03  0.22730027784E+03  0.00000000000E+00 0. -1.
         11    1    1    2    0    0 -0.14238114999E+02 -0.23107594428E+02  0.30033349676E+02  0.40480698261E+02  0.00000000000E+00 0.  1.
</event>
<event>
 7    1  0.2384639E-009  0.1803064E+03  0.7561462E-02  0.1167507E+00
         -3   -1    0    0    0  501 -0.00000000000E+00  0.00000000000E+00  0.25633515571E+03  0.25633515571E+03  0.00000000000E+00 0.  1.
          3   -1    0    0  501    0  0.00000000000E+00 -0.00000000000E+00 -0.14732111929E+03  0.14732111929E+03  0.00000000000E+00 0. -1.
         25    2    1    2    0    0  0.80778293524E+01 -0.15633648631E+03  0.24121391590E+02  0.20182928729E+03  0.12508745500E+03 0.  0.
          5    1    3    3  502    0 -0.36846893706E+02 -0.10646366726E+03 -0.28676408164E+02  0.11632718860E+03  0.41800000000E+01 0.  1.
         -5    1    3    3    0  502  0.44924723058E+02 -0.49872819048E+02  0.52797799753E+02  0.85502098690E+02  0.41800000000E+01 0.  1.
        -11    1    1    2    0    0 -0.37172660277E+02  0.14451218684E+03  0.56708617546E+02  0.15962908921E+03  0.00000000000E+00 0. -1.
         11    1    1    2    0    0  0.29094830924E+02  0.11824299471E+02  0.28184027283E+02  0.42197898507E+02  0.00000000000E+00 0.  1.
</event>
<event>
 7    1  0.2384639E-009  0.9491082E+02  0.7561462E-02  0.1291377E+00
          1   -1    0    0  501    0  0.00000000000E+00  0.00000000000E+00  0.10547756606E+03  0.10547756606E+03  0.00000000000E+00 0. -1.
         -1   -1    0    0    0  501 -0.00000000000E+00 -0.00000000000E+00 -0.19746552721E+03  0.19746552721E+03  0.00000000000E+00 0.  1.
         25    2    1    2    0    0 -0.39175281777E+02  0.51267193466E+02  0.12108533668E+02  0.14126894360E+03  0.12508904832E+03 0.  0.
          5    1    3    3  502    0 -0.32506975883E+02  0.47637075674E+02 -0.51282888294E+02  0.77287783586E+02  0.41800000000E+01 0.  1.
         -5    1    3    3    0  502 -0.66683058940E+01  0.36301177921E+01  0.63391421962E+02  0.63981160016E+02  0.41800000000E+01 0.  1.
        -11    1    1    2    0    0  0.72398859405E+02 -0.53518247643E+02 -0.70286710982E+02  0.11421917271E+03  0.00000000000E+00 0.  1.
         11    1    1    2    0    0 -0.33223577628E+02  0.22510541768E+01 -0.33809783836E+02  0.47454976961E+02  0.00000000000E+00 0. -1.
</event>
<event>
 7    1  0.2384639E-009  0.1752037E+03  0.7561462E-02  0.1172527E+00
         -2   -1    0    0    0  501 -0.00000000000E+00  0.00000000000E+00  0.67975088772E+02  0.67975088772E+02  0.00000000000E+00 0.  1.
          2   -1    0    0  501    0  0.00000000000E+00 -0.00000000000E+00 -0.50270875634E+03  0.50270875634E+03  0.00000000000E+00 0. -1.
         25    2    1    2    0    0 -0.46398600090E+01  0.14612716345E+03 -0.18139766102E+03  0.26444591697E+03  0.12510737541E+03 0.  0.
          5    1    3    3  502    0 -0.52470713338E+02  0.53497006376E+02 -0.12511685755E+03  0.14589998592E+03  0.41800000000E+01 0.  1.
         -5    1    3    3    0  502  0.47830853329E+02  0.92630157070E+02 -0.56280803472E+02  0.11854593105E+03  0.41800000000E+01 0.  1.
        -11    1    1    2    0    0 -0.25749540970E+02 -0.44602554280E+01 -0.27649829413E+02  0.38045312526E+02  0.00000000000E+00 0.  1.
         11    1    1    2    0    0  0.30389400979E+02 -0.14166690802E+03 -0.22568617714E+03  0.26819261561E+03  0.00000000000E+00 0. -1.
</event>
<event>
 7    1  0.2384639E-009  0.1904653E+03  0.7561462E-02  0.1158042E+00
          2   -1    0    0  501    0  0.00000000000E+00  0.00000000000E+00  0.81898792034E+03  0.81898792034E+03  0.00000000000E+00 0. -1.
         -2   -1    0    0    0  501 -0.00000000000E+00 -0.00000000000E+00 -0.52546217653E+02  0.52546217653E+02  0.00000000000E+00 0.  1.
         25    2    1    2    0    0  0.17285913230E+03  0.15778626365E+02  0.46100197271E+03  0.50823159804E+03  0.12508914317E+03 0.  0.
          5    1    3    3  502    0 -0.10666949438E+02 -0.21081948468E+01 -0.56422507488E-01  0.11649200802E+02  0.41800000000E+01 0.  1.
         -5    1    3    3    0  502  0.18352608174E+03  0.17886821211E+02  0.46105839522E+03  0.49658239724E+03  0.41800000000E+01 0.  1.
        -11    1    1    2    0    0 -0.71796230659E+02  0.24763677876E+02  0.18996112034E+03  0.20458046270E+03  0.00000000000E+00 0. -1.
         11    1    1    2    0    0 -0.10106290164E+03 -0.40542304241E+02  0.11547860964E+03  0.15872207725E+03  0.00000000000E+00 0.  1.
</event>
<event>
 7    1  0.2384639E-009  0.1307977E+03  0.7561462E-02  0.1226277E+00
         -2   -1    0    0    0  501 -0.00000000000E+00  0.00000000000E+00  0.94563773710E+02  0.94563773710E+02  0.00000000000E+00 0.  1.
          2   -1    0    0  501    0  0.00000000000E+00 -0.00000000000E+00 -0.21646404321E+03  0.21646404321E+03  0.00000000000E+00 0. -1.
         25    2    1    2    0    0 -0.57466412205E+02  0.11691593161E+02 -0.48727623164E+02  0.14649575287E+03  0.12509013738E+03 0.  0.
          5    1    3    3  502    0  0.10774390280E+02  0.50162290438E+02  0.45321976651E+01  0.51675488228E+02  0.41800000000E+01 0. -1.
         -5    1    3    3    0  502 -0.68240802485E+02 -0.38470697278E+02 -0.53259820829E+02  0.94820264646E+02  0.41800000000E+01 0. -1.
        -11    1    1    2    0    0  0.21521246183E+01 -0.58906011110E+02  0.32522607631E+01  0.59034964092E+02  0.00000000000E+00 0. -1.
         11    1    1    2    0    0  0.55314287587E+02  0.47214417949E+02 -0.76424907099E+02  0.10549709995E+03  0.00000000000E+00 0.  1.
</event>
<event>
 7    1  0.2384639E-009  0.1092838E+03  0.7561462E-02  0.1261902E+00
          1   -1    0    0  501    0  0.00000000000E+00  0.00000000000E+00  0.15699726398E+03  0.15699726398E+03  0.00000000000E+00 0. -1.
         -1   -1    0    0    0  501 -0.00000000000E+00 -0.00000000000E+00 -0.10935901680E+03  0.10935901680E+03  0.00000000000E+00 0.  1.
         25    2    1    2    0    0  0.16430103614E+02 -0.53946408344E+02  0.86107418374E+02  0.16199436005E+03  0.12509005521E+03 0.  0.
          5    1    3    3  502    0 -0.13693577389E+02  0.35228032056E+02  0.45768552418E+02  0.59504294758E+02  0.41800000000E+01 0.  1.
         -5    1    3    3    0  502  0.30123681003E+02 -0.89174440399E+02  0.40338865955E+02  0.10249006530E+03  0.41800000000E+01 0.  1.
        -11    1    1    2    0    0 -0.32959430615E+02  0.33896789613E+01 -0.38993113799E+02  0.51169101162E+02  0.00000000000E+00 0.  1.
         11    1    1    2    0    0  0.16529327001E+02  0.50556729382E+02  0.52394260238E+00  0.53192819561E+02  0.00000000000E+00 0. -1.
</event>
<event>
 7    1  0.2384639E-009  0.9990467E+02  0.7561462E-02  0.1280497E+00
         -1   -1    0    0    0  501 -0.00000000000E+00  0.00000000000E+00  0.13886095228E+03  0.13886095228E+03  0.00000000000E+00 0.  1.
          1   -1    0    0  501    0  0.00000000000E+00 -0.00000000000E+00 -0.84703235787E+02  0.84703235787E+02  0.00000000000E+00 0. -1.
         25    2    1    2    0    0 -0.16990054816E+02 -0.31929622672E+01  0.40626342857E+02  0.13265610661E+03  0.12509310899E+03 0.  0.
          5    1    3    3  502    0 -0.58071985748E+02 -0.38739060074E+02  0.11493430910E+02  0.70870597981E+02  0.41800000000E+01 0. -1.
         -5    1    3    3    0  502  0.41081930932E+02  0.35546097806E+02  0.29132911947E+02  0.61785508632E+02  0.41800000000E+01 0. -1.
        -11    1    1    2    0    0  0.42019350196E+02  0.18651349291E+02 -0.16523334838E+02  0.48852013423E+02  0.00000000000E+00 0. -1.
         11    1    1    2    0    0 -0.25029295380E+02 -0.15458387024E+02  0.30054708469E+02  0.42056068026E+02  0.00000000000E+00 0.  1.
</event>
<event>
 7    1  0.2384639E-009  0.1170350E+03  0.7561462E-02  0.1248070E+00
          1   -1    0    0  501    0  0.00000000000E+00  0.00000000000E+00  0.25956772890E+03  0.25956772890E+03  0.00000000000E+00 0. -1.
         -1   -1    0    0    0  501 -0.00000000000E+00 -0.00000000000E+00 -0.57348571025E+02  0.57348571025E+02  0.00000000000E+00 0.  1.
         25    2    1    2    0    0  0.10514876150E+01 -0.57053954996E+02  0.11371008216E+03  0.17842324199E+03  0.12509440871E+03 0.  0.
          5    1    3    3  502    0 -0.19853644973E+02  0.34252173559E+02  0.54643162550E+02  0.67607146263E+02  0.41800000000E+01 0.  1.
         -5    1    3    3    0  502  0.20905132588E+02 -0.91306128555E+02  0.59066919607E+02  0.11081609573E+03  0.41800000000E+01 0.  1.
        -11    1    1    2    0    0  0.36738252063E+02  0.63854691079E+01  0.11831689191E+02  0.39121122804E+02  0.00000000000E+00 0.  1.
         11    1    1    2    0    0 -0.37789739678E+02  0.50668485888E+02  0.76677386529E+02  0.99371935133E+02  0.00000000000E+00 0. -1.
</event>
<event>
 7    1  0.2384639E-009  0.1175718E+03  0.7561462E-02  0.1247157E+00
         -1   -1    0    0    0  501 -0.00000000000E+00  0.00000000000E+00  0.51819715952E+02  0.51819715952E+02  0.00000000000E+00 0.  1.
          1   -1    0    0  501    0  0.00000000000E+00 -0.00000000000E+00 -0.50590302059E+03  0.50590302059E+03  0.00000000000E+00 0. -1.
         25    2    1    2    0    0  0.77113436802E+02 -0.64679874759E+02 -0.32578203878E+03  0.36319664109E+03  0.12509154639E+03 0.  0.
          5    1    3    3  502    0 -0.15162540326E+02 -0.19108545814E+02 -0.19577212709E+03  0.19733027466E+03  0.41800000000E+01 0. -1.
         -5    1    3    3    0  502  0.92275977128E+02 -0.45571328945E+02 -0.13000991169E+03  0.16586636644E+03  0.41800000000E+01 0. -1.
        -11    1    1    2    0    0 -0.65275497186E+02  0.68820358754E+02 -0.14522791032E+03  0.17345973091E+03  0.00000000000E+00 0. -1.
         11    1    1    2    0    0 -0.11837939616E+02 -0.41404839943E+01  0.16926644461E+02  0.21066364536E+02  0.00000000000E+00 0.  1.
</event>
<event>
 7    1  0.2384639E-009  0.1231160E+03  0.7561462E-02  0.1238043E+00
         -1   -1    0    0    0  501 -0.00000000000E+00  0.00000000000E+00  0.10103356563E+03  0.10103356563E+03  0.00000000000E+00 0.  1.
          1   -1    0    0  501    0  0.00000000000E+00 -0.00000000000E+00 -0.19534916101E+03  0.19534916101E+03  0.00000000000E+00 0. -1.
         25    2    1    2    0    0  0.78778906350E+02 -0.14318610850E+02 -0.11016095713E+02  0.14892874732E+03  0.12508908310E+03 0.  0.
          5    1    3    3  502    0  0.20608963875E+01 -0.44148340144E+02  0.33165489673E+02  0.55414306246E+02  0.41800000000E+01 0. -1.
         -5    1    3    3    0  502  0.76718009962E+02  0.29829729294E+02 -0.44181585386E+02  0.93514441075E+02  0.41800000000E+01 0. -1.
        -11    1    1    2    0    0  0.13839548861E+02 -0.16750679158E+02 -0.50982367324E+01  0.22318386651E+02  0.00000000000E+00 0. -1.
         11    1    1    2    0    0 -0.92618455210E+02  0.31069290008E+02 -0.78201262932E+02  0.12513559266E+03  0.00000000000E+00 0.  1.
</event>
<event>
 7    1  0.2384639E-009  0.9260273E+02  0.7561462E-02  0.1296668E+00
         -1   -1    0    0    0  501 -0.00000000000E+00  0.00000000000E+00  0.17162803343E+03  0.17162803343E+03  0.00000000000E+00 0.  1.
          1   -1    0    0  501    0  0.00000000000E+00 -0.00000000000E+00 -0.98227323137E+02  0.98227323137E+02  0.00000000000E+00 0. -1.
         25    2    1    2    0    0 -0.45940719210E+02 -0.27417649285E+02  0.89230953110E+02  0.16270193597E+03  0.12508988689E+03 0.  0.
          5    1    3    3  502    0  0.12339962296E+02  0.15452113579E+02 -0.22044826427E+02  0.29908013236E+02  0.41800000000E+01 0. -1.
         -5    1    3    3    0  502 -0.58280681506E+02 -0.42869762864E+02  0.11127577954E+03  0.13279392274E+03  0.41800000000E+01 0. -1.
        -11    1    1    2    0    0  0.33894538889E+02  0.53762606853E+02 -0.34865716467E+02  0.72490522463E+02  0.00000000000E+00 0. -1.
         11    1    1    2    0    0  0.12046180321E+02 -0.26344957568E+02  0.19035473646E+02  0.34662898126E+02  0.00000000000E+00 0.  1.
</event>
<event>
 7    1  0.2384639E-009  0.1158578E+03  0.7561462E-02  0.1250091E+00
          3   -1    0    0  501    0  0.00000000000E+00  0.00000000000E+00  0.61374930219E+02  0.61374930219E+02  0.00000000000E+00 0. -1.
         -3   -1    0    0    0  501 -0.00000000000E+00 -0.00000000000E+00 -0.32342225404E+03  0.32342225404E+03  0.00000000000E+00 0.  1.
         25    2    1    2    0    0  0.76596414020E+02  0.14718872235E+02 -0.82945271358E+02  0.16914912366E+03  0.12509137521E+03 0.  0.
          5    1    3    3  502    0  0.20930578377E+01  0.34600220417E+02  0.20170590991E+02  0.40322218254E+02  0.41800000000E+01 0.  1.
         -5    1    3    3    0  502  0.74503356182E+02 -0.19881348183E+02 -0.10311586235E+03  0.12882690540E+03  0.41800000000E+01 0.  1.
        -11    1    1    2    0    0 -0.87803560593E+02  0.13849819212E+02 -0.12387470455E+03  0.15246712817E+03  0.00000000000E+00 0. -1.
         11    1    1    2    0    0  0.11207146574E+02 -0.28568691447E+02 -0.55227347910E+02  0.63180932428E+02  0.00000000000E+00 0.  1.
</event>
<event>
 7    1  0.2384639E-009  0.1813598E+03  0.7561462E-02  0.1166494E+00
          2   -1    0    0  501    0  0.00000000000E+00  0.00000000000E+00  0.70757031313E+03  0.70757031313E+03  0.00000000000E+00 0. -1.
         -2   -1    0    0    0  501 -0.00000000000E+00 -0.00000000000E+00 -0.56896828844E+02  0.56896828844E+02  0.00000000000E+00 0.  1.
         25    2    1    2    0    0  0.14203510421E+03  0.75968528289E+02  0.43155957741E+03  0.47732559367E+03  0.12510341883E+03 0.  0.
          5    1    3    3  502    0  0.54730395408E+02  0.71850343500E+02  0.33513164157E+03  0.34711464623E+03  0.41800000000E+01 0.  1.
         -5    1    3    3    0  502  0.87304708801E+02  0.41181847886E+01  0.96427935832E+02  0.13021094744E+03  0.41800000000E+01 0.  1.
        -11    1    1    2    0    0 -0.94754797269E+02 -0.94681174382E+02  0.17015569152E+03  0.21655474076E+03  0.00000000000E+00 0.  1.
         11    1    1    2    0    0 -0.47280306941E+02  0.18712646093E+02  0.48958215358E+02  0.70586807544E+02  0.00000000000E+00 0. -1.
</event>
<event>
 7    1  0.2384639E-009  0.1686583E+03  0.7561462E-02  0.1179254E+00
         -1   -1    0    0    0  501 -0.00000000000E+00  0.00000000000E+00  0.17639150602E+03  0.17639150602E+03  0.00000000000E+00 0.  1.
          1   -1    0    0  501    0  0.00000000000E+00 -0.00000000000E+00 -0.32164532612E+03  0.32164532612E+03  0.00000000000E+00 0. -1.
         25    2    1    2    0    0 -0.14275721172E+03  0.30809966429E+02 -0.23720873036E+03  0.30535683966E+03  0.12508374091E+03 0.  0.
          5    1    3    3  502    0 -0.60086333494E+02 -0.43347702416E+02 -0.13655141998E+03  0.15541284849E+03  0.41800000000E+01 0.  1.
         -5    1    3    3    0  502 -0.82670878227E+02  0.74157668845E+02 -0.10065731038E+03  0.14994399117E+03  0.41800000000E+01 0.  1.
        -11    1    1    2    0    0  0.98525745185E+01 -0.15255146069E+02 -0.13236210309E+02  0.22471981879E+02  0.00000000000E+00 0.  1.
         11    1    1    2    0    0  0.13290463720E+03 -0.15554820360E+02  0.10519112057E+03  0.17020801060E+03  0.00000000000E+00 0. -1.
</event>
<event>
 7    1  0.2384639E-009  0.1049206E+03  0.7561462E-02  0.1270276E+00
          1   -1    0    0  501    0  0.00000000000E+00  0.00000000000E+00  0.40094370310E+02  0.40094370310E+02  0.00000000000E+00 0. -1.
         -1   -1    0    0    0  501 -0.00000000000E+00 -0.00000000000E+00 -0.29785177094E+03  0.29785177094E+03  0.00000000000E+00 0.  1.
         25    2    1    2    0    0 -0.16501542198E+01  0.17427665541E+01 -0.17108576131E+03  0.21194994126E+03  0.12508668847E+03 0.  0.
          5    1    3    3  502    0 -0.33585890864E+02 -0.49536671440E+02 -0.56824235267E+02  0.82633891329E+02  0.41800000000E+01 0. -1.
         -5    1    3    3    0  502  0.31935736644E+02  0.51279437995E+02 -0.11426152605E+03  0.12931604993E+03  0.41800000000E+01 0. -1.
        -11    1    1    2    0    0 -0.21217995809E+02 -0.39678833039E+02 -0.30053426930E+02  0.54109348617E+02  0.00000000000E+00 0.  1.
         11    1    1    2    0    0  0.22868150029E+02  0.37936066485E+02 -0.56618212389E+02  0.71886851373E+02  0.00000000000E+00 0. -1.
</event>
<event>
 7    1  0.2384639E-009  0.8694705E+02  0.7561462E-02  0.1310418E+00
          2   -1    0    0  501    0  0.00000000000E+00  0.00000000000E+00  0.26097587802E+02  0.26097587802E+02  0.00000000000E+00 0. -1.
         -2   -1    0    0    0  501 -0.00000000000E+00 -0.00000000000E+00 -0.64293109400E+03  0.64293109400E+03  0.00000000000E+00 0.  1.
         25    2    1    2    0    0  0.41823274968E+02  0.53190479932E+02 -0.41118958352E+03  0.43508795128E+03  0.12508492424E+03 0.  0.
          5    1    3    3  502    0  0.29875770839E+02  0.25484291224E+02 -0.22989509236E+02  0.45694646484E+02  0.41800000000E+01 0.  1.
         -5    1    3    3    0  502  0.11947504129E+02  0.27706188708E+02 -0.38820007428E+03  0.38939330480E+03  0.41800000000E+01 0.  1.
        -11    1    1    2    0    0  0.23338842768E+02 -0.20390757745E+02 -0.10605727083E+03  0.11049266618E+03  0.00000000000E+00 0.  1.
         11    1    1    2    0    0 -0.65162117736E+02 -0.32799722187E+02 -0.99586651849E+02  0.12344806434E+03  0.00000000000E+00 0. -1.
</event>
<event>
 7    1  0.2384639E-009  0.9928060E+02  0.7561462E-02  0.1281816E+00
         -1   -1    0    0    0  501 -0.00000000000E+00  0.00000000000E+00  0.72949368718E+01  0.72949368718E+01  0.00000000000E+00 0.  1.
          1   -1    0    0  501    0  0.00000000000E+00 -0.00000000000E+00 -0.20324914179E+04  0.20324914179E+04  0.00000000000E+00 0. -1.
         25    2    1    2    0    0  0.28148695137E+01  0.46396787495E+01 -0.16541385058E+04  0.16588704225E+04  0.12508969598E+03 0.  0.
          5    1    3    3  502    0 -0.11315547356E+02 -0.52377495506E+02 -0.11583978096E+04  0.11596440839E+04  0.41800000000E+01 0.  1.
         -5    1    3    3    0  502  0.14130416870E+02  0.57017174255E+02 -0.49574069617E+03  0.49922633853E+03  0.41800000000E+01 0.  1.
        -11    1    1    2    0    0  0.16856010072E+02  0.36564740626E+02 -0.16176474468E+03  0.16670014383E+03  0.00000000000E+00 0.  1.
         11    1    1    2    0    0 -0.19670879585E+02 -0.41204419376E+02 -0.20929323059E+03  0.21421578851E+03  0.00000000000E+00 0. -1.
</event>
<event>
 7    1  0.2384639E-009  0.1490186E+03  0.7561462E-02  0.1201684E+00
         -1   -1    0    0    0  501 -0.00000000000E+00  0.00000000000E+00  0.24999190975E+02  0.24999190975E+02  0.00000000000E+00 0.  1.
          1   -1    0    0  501    0  0.00000000000E+00 -0.00000000000E+00 -0.95978100188E+03  0.95978100188E+03  0.00000000000E+00 0. -1.
         25    2    1    2    0    0  0.83133218158E+02 -0.71273532601E+02 -0.46923245766E+03  0.49781280785E+03  0.12508974348E+03 0.  0.
          5    1    3    3  502    0  0.82712089029E+02  0.85693698081E+01 -0.19186215360E+03  0.20914894730E+03  0.41800000000E+01 0.  1.
         -5    1    3    3    0  502  0.42112912889E+00 -0.79842902409E+02 -0.27737030406E+03  0.28866386056E+03  0.41800000000E+01 0.  1.
        -11    1    1    2    0    0 -0.42669048641E+02 -0.10185967151E+02 -0.23622663174E+03  0.24026531831E+03  0.00000000000E+00 0. -1.
         11    1    1    2    0    0 -0.40464169517E+02  0.81459499752E+02 -0.22932272150E+03  0.24670206669E+03  0.00000000000E+00 0.  1.
</event>
<event>
 7    1  0.2384639E-009  0.9171224E+02  0.7561462E-02  0.1298757E+00
          2   -1    0    0  501    0  0.00000000000E+00  0.00000000000E+00  0.39640140208E+03  0.39640140208E+03  0.00000000000E+00 0. -1.
         -2   -1    0    0    0  501 -0.00000000000E+00 -0.00000000000E+00 -0.70918585384E+02  0.70918585384E+02  0.00000000000E+00 0.  1.
         25    2    1    2    0    0 -0.50042260627E+02 -0.54374616974E+02  0.32112317733E+03  0.35246128596E+03  0.12509211112E+03 0.  0.
          5    1    3    3  502    0 -0.27375122823E+02 -0.56369134126E+02  0.49796695644E+02  0.80150233492E+02  0.41800000000E+01 0.  1.
         -5    1    3    3    0  502 -0.22667137804E+02  0.19945171522E+01  0.27132648168E+03  0.27231105247E+03  0.41800000000E+01 0.  1.
        -11    1    1    2    0    0  0.34600643484E+02 -0.60437689977E+01  0.31187582926E+02  0.46972300369E+02  0.00000000000E+00 0. -1.
         11    1    1    2    0    0  0.15441617144E+02  0.60418385972E+02 -0.26827943556E+02  0.67886401134E+02  0.00000000000E+00 0.  1.
</event>
<event>
 7    1  0.2384639E-009  0.1093691E+03  0.7561462E-02  0.1261743E+00
          2   -1    0    0  501    0  0.00000000000E+00  0.00000000000E+00  0.62367728691E+03  0.62367728691E+03  0.00000000000E+00 0. -1.
         -2   -1    0    0    0  501 -0.00000000000E+00 -0.00000000000E+00 -0.29208286384E+02  0.29208286384E+02  0.00000000000E+00 0.  1.
         25    2    1    2    0    0 -0.39263109789E+02  0.63205528601E+02  0.38461759154E+03  0.41123601035E+03  0.12509130203E+03 0.  0.
          5    1    3    3  502    0 -0.42308965751E+02  0.99138035429E+02  0.31053516590E+03  0.32873691657E+03  0.41800000000E+01 0. -1.
         -5    1    3    3    0  502  0.30458559628E+01 -0.35932506828E+02  0.74082425639E+02  0.82499093777E+02  0.41800000000E+01 0. -1.
        -11    1    1    2    0    0  0.24804931084E+02 -0.35394004261E+02  0.20550940827E+03  0.21000508811E+03  0.00000000000E+00 0. -1.
         11    1    1    2    0    0  0.14458178704E+02 -0.27811524341E+02  0.43420007108E+01  0.31644474838E+02  0.00000000000E+00 0.  1.
</event>
<event>
 7    1  0.2384639E-009  0.1451406E+03  0.7561462E-02  0.1206575E+00
         -1   -1    0    0    0  501 -0.00000000000E+00  0.00000000000E+00  0.10022869266E+03  0.10022869266E+03  0.00000000000E+00 0.  1.
          1   -1    0    0  501    0  0.00000000000E+00 -0.00000000000E+00 -0.32484262752E+03  0.32484262752E+03  0.00000000000E+00 0. -1.
         25    2    1    2    0    0 -0.41155013042E+02 -0.13122251787E+03 -0.16814129169E+03  0.25066281624E+03  0.12508904501E+03 0.  0.
          5    1    3    3  502    0  0.15004796568E+02 -0.90878533072E+01 -0.96711754489E+02  0.98378701222E+02  0.41800000000E+01 0. -1.
         -5    1    3    3    0  502 -0.56159809610E+02 -0.12213466456E+03 -0.71429537204E+02  0.15228411502E+03  0.41800000000E+01 0. -1.
        -11    1    1    2    0    0  0.50372299858E+01  0.90711059590E+01 -0.45375651340E+02  0.46546840749E+02  0.00000000000E+00 0. -1.
         11    1    1    2    0    0  0.36117783056E+02  0.12215141191E+03 -0.11096991834E+02  0.12786166318E+03  0.00000000000E+00 0.  1.
</event>
<event>
 7    1  0.2384639E-009  0.7679171E+02  0.7561462E-02  0.1338411E+00
         -1   -1    0    0    0  501 -0.00000000000E+00  0.00000000000E+00  0.50356349184E+03  0.50356349184E+03  0.00000000000E+00 0.  1.
          1   -1    0    0  501    0  0.00000000000E+00 -0.00000000000E+00 -0.24131987988E+02  0.24131987988E+02  0.00000000000E+00 0. -1.
         25    2    1    2    0    0  0.10661381108E+02  0.28325941131E+01  0.31951642256E+03  0.34330614115E+03  0.12508666449E+03 0.  0.
          5    1    3    3  502    0  0.32151371111E+02 -0.15427068108E+02  0.31167914793E+03  0.31374044806E+03  0.41800000000E+01 0.  1.
         -5    1    3    3    0  502 -0.21489990003E+02  0.18259662221E+02  0.78372746335E+01  0.29565693099E+02  0.41800000000E+01 0.  1.
        -11    1    1    2    0    0 -0.37804593443E+02 -0.31852712805E+02  0.66391549851E+02  0.82774515946E+02  0.00000000000E+00 0.  1.
         11    1    1    2    0    0  0.27143212335E+02  0.29020118692E+02  0.93523531446E+02  0.10161482273E+03  0.00000000000E+00 0. -1.
</event>
<event>
 7    1  0.2384639E-009  0.9978563E+02  0.7561462E-02  0.1280747E+00
         -1   -1    0    0    0  501 -0.00000000000E+00  0.00000000000E+00  0.70394143684E+02  0.70394143684E+02  0.00000000000E+00 0.  1.
          1   -1    0    0  501    0  0.00000000000E+00 -0.00000000000E+00 -0.17396049449E+03  0.17396049449E+03  0.00000000000E+00 0. -1.
         25    2    1    2    0    0 -0.77764247509E+01 -0.55133455073E+02 -0.61233942638E+02  0.14998779444E+03  0.12508625863E+03 0.  0.
          5    1    3    3  502    0  0.10405973568E+02 -0.84886758618E+02 -0.77095407971E+01  0.85970666473E+02  0.41800000000E+01 0.  1.
         -5    1    3    3    0  502 -0.18182398319E+02  0.29753303545E+02 -0.53524401841E+02  0.64017127965E+02  0.41800000000E+01 0.  1.
        -11    1    1    2    0    0  0.30732361069E+02  0.43027461476E+02 -0.11583339308E+02  0.54129605647E+02  0.00000000000E+00 0.  1.
         11    1    1    2    0    0 -0.22955936318E+02  0.12105993597E+02 -0.30749068859E+02  0.40237238088E+02  0.00000000000E+00 0. -1.
</event>
<event>
 7    1  0.2384639E-009  0.9555307E+02  0.7561462E-02  0.1289935E+00
          2   -1    0    0  501    0  0.00000000000E+00  0.00000000000E+00  0.24496127775E+03  0.24496127775E+03  0.00000000000E+00 0. -1.
         -2   -1    0    0    0  501 -0.00000000000E+00 -0.00000000000E+00 -0.55868045682E+02  0.55868045682E+02  0.00000000000E+00 0.  1.
         25    2    1    2    0    0  0.36664887100E+02  0.27296826570E+02  0.10398569667E+03  0.16897019292E+03  0.12509384596E+03 0.  0.
          5    1    3    3  502    0 -0.77398097394E+00 -0.39314660676E+02 -0.39080319717E+00  0.39545754737E+02  0.41800000000E+01 0.  1.
         -5    1    3    3    0  502  0.37438868074E+02  0.66611487246E+02  0.10437649986E+03  0.12942443819E+03  0.41800000000E+01 0.  1.
        -11    1    1    2    0    0 -0.17776059205E+02 -0.45472110737E+02  0.92525357920E+02  0.10461664779E+03  0.00000000000E+00 0. -1.
         11    1    1    2    0    0 -0.18888827894E+02  0.18175284167E+02 -0.74178225227E+01  0.27242482720E+02  0.00000000000E+00 0.  1.
</event>
<event>
 7    1  0.2384639E-009  0.2936781E+03  0.7561462E-02  0.1088444E+00
          2   -1    0    0  501    0  0.00000000000E+00  0.00000000000E+00  0.38828335558E+03  0.38828335558E+03  0.00000000000E+00 0.  1.
         -2   -1    0    0    0  501 -0.00000000000E+00 -0.00000000000E+00 -0.25130089216E+03  0.25130089216E+03  0.00000000000E+00 0. -1.
         25    2    1    2    0    0  0.20495924830E+03  0.17983182933E+03 -0.37294932097E+02  0.30230237786E+03  0.12509210767E+03 0.  0.
          5    1    3    3  502    0  0.16560815099E+02 -0.18636739604E+02 -0.10285438789E+02  0.27291964218E+02  0.41800000000E+01 0. -1.
         -5    1    3    3    0  502  0.18839843320E+03  0.19846856893E+03 -0.27009493309E+02  0.27501041365E+03  0.41800000000E+01 0. -1.
        -11    1    1    2    0    0 -0.33823507694E+01  0.10578724132E+02  0.36034014603E+01  0.11676223836E+02  0.00000000000E+00 0.  1.
         11    1    1    2    0    0 -0.20157689753E+03 -0.19041055346E+03  0.17067399406E+03  0.32560564604E+03  0.00000000000E+00 0. -1.
</event>
<event>
 7    1  0.2384639E-009  0.1137626E+03  0.7561462E-02  0.1253757E+00
         -1   -1    0    0    0  501 -0.00000000000E+00  0.00000000000E+00  0.59947278669E+02  0.59947278669E+02  0.00000000000E+00 0.  1.
          1   -1    0    0  501    0  0.00000000000E+00 -0.00000000000E+00 -0.25685543951E+03  0.25685543951E+03  0.00000000000E+00 0. -1.
         25    2    1    2    0    0 -0.19645035276E+02  0.56428372034E+02 -0.99366849503E+02  0.17056238421E+03  0.12509063732E+03 0.  0.
          5    1    3    3  502    0  0.15138489423E+02  0.84538333577E+02 -0.36768352523E+02  0.93516243794E+02  0.41800000000E+01 0.  1.
         -5    1    3    3    0  502 -0.34783524699E+02 -0.28109961543E+02 -0.62598496980E+02  0.77046140414E+02  0.41800000000E+01 0.  1.
        -11    1    1    2    0    0  0.93662361279E+01  0.18636676460E+02 -0.56165077469E+02  0.59913003729E+02  0.00000000000E+00 0. -1.
         11    1    1    2    0    0  0.10278799148E+02 -0.75065048494E+02 -0.41376233864E+02  0.86327330238E+02  0.00000000000E+00 0.  1.
</event>
<event>
 7    1  0.2384639E-009  0.1406193E+03  0.7561462E-02  0.1212498E+00
          1   -1    0    0  501    0  0.00000000000E+00  0.00000000000E+00  0.58166276343E+03  0.58166276343E+03  0.00000000000E+00 0. -1.
         -1   -1    0    0    0  501 -0.00000000000E+00 -0.00000000000E+00 -0.39354170738E+02  0.39354170738E+02  0.00000000000E+00 0.  1.
         25    2    1    2    0    0  0.10368918931E+03  0.86806829271E+01  0.33043234651E+03  0.36831979957E+03  0.12508851625E+03 0.  0.
          5    1    3    3  502    0 -0.14518309502E+02 -0.30602642702E+02  0.10904087969E+03  0.11425711748E+03  0.41800000000E+01 0.  1.
         -5    1    3    3    0  502  0.11820749882E+03  0.39283325629E+02  0.22139146682E+03  0.25406268209E+03  0.41800000000E+01 0.  1.
        -11    1    1    2    0    0 -0.26248692801E+02 -0.32199338138E+02  0.13434034179E+03  0.14061692175E+03  0.00000000000E+00 0. -1.
         11    1    1    2    0    0 -0.77440496513E+02  0.23518655211E+02  0.77535904394E+02  0.11208021285E+03  0.00000000000E+00 0.  1.
</event>
<event>
 7    1  0.2384639E-009  0.1102935E+03  0.7561462E-02  0.1260027E+00
          1   -1    0    0  501    0  0.00000000000E+00  0.00000000000E+00  0.18227537239E+03  0.18227537239E+03  0.00000000000E+00 0. -1.
         -1   -1    0    0    0  501 -0.00000000000E+00 -0.00000000000E+00 -0.94515682090E+02  0.94515682090E+02  0.00000000000E+00 0.  1.
         25    2    1    2    0    0 -0.11960941596E+02  0.67255525033E+02  0.21665469809E+02  0.14416370298E+03  0.12508961150E+03 0.  0.
          5    1    3    3  502    0 -0.63614767735E+02  0.87327072232E+01  0.10606028049E+02  0.65215481907E+02  0.41800000000E+01 0. -1.
         -5    1    3    3    0  502  0.51653826139E+02  0.58522817809E+02  0.11059441760E+02  0.78948221077E+02  0.41800000000E+01 0. -1.
        -11    1    1    2    0    0  0.25490502047E+02 -0.50189089321E+02  0.86222927443E+02  0.10297137271E+03  0.00000000000E+00 0. -1.
         11    1    1    2    0    0 -0.13529560451E+02 -0.17066435711E+02 -0.20128706954E+02  0.29655978782E+02  0.00000000000E+00 0.  1.
</event>
<event>
 7    1  0.2384639E-009  0.3407465E+03  0.7561462E-02  0.1066478E+00
          2   -1    0    0  501    0  0.00000000000E+00  0.00000000000E+00  0.21147111796E+04  0.21147111796E+04  0.00000000000E+00 0. -1.
         -2   -1    0    0    0  501 -0.00000000000E+00 -0.00000000000E+00 -0.62933175709E+02  0.62933175709E+02  0.00000000000E+00 0.  1.
         25    2    1    2    0    0 -0.18233649079E+03  0.27668333898E+03  0.13659807333E+04  0.14111522592E+04  0.12508824482E+03 0.  0.
          5    1    3    3  502    0 -0.16175690281E+03  0.15426156661E+03  0.74279088633E+03  0.77570464725E+03  0.41800000000E+01 0.  1.
         -5    1    3    3    0  502 -0.20579587981E+02  0.12242177237E+03  0.62318984696E+03  0.63544761196E+03  0.41800000000E+01 0.  1.
        -11    1    1    2    0    0  0.11992988871E+03 -0.21372826127E+03  0.41966957530E+03  0.48598919772E+03  0.00000000000E+00 0.  1.
         11    1    1    2    0    0  0.62406602082E+02 -0.62955077704E+02  0.26612769527E+03  0.28050289835E+03  0.00000000000E+00 0. -1.
</event>
<event>
 7    1  0.2384639E-009  0.1373190E+03  0.7561462E-02  0.1216983E+00
          2   -1    0    0  501    0  0.00000000000E+00  0.00000000000E+00  0.12007032560E+03  0.12007032560E+03  0.00000000000E+00 0.  1.
         -2   -1    0    0    0  501 -0.00000000000E+00 -0.00000000000E+00 -0.25529951476E+03  0.25529951476E+03  0.00000000000E+00 0. -1.
         25    2    1    2    0    0  0.10644683523E+03 -0.57017502818E+02 -0.34241198408E+01  0.17390056597E+03  0.12509099844E+03 0.  0.
          5    1    3    3  502    0 -0.18760023996E+01  0.20218208464E+02  0.30185596874E+02  0.36618820259E+02  0.41800000000E+01 0.  1.
         -5    1    3    3    0  502  0.10832283763E+03 -0.77235711282E+02 -0.33609716715E+02  0.13728174572E+03  0.41800000000E+01 0.  1.
        -11    1    1    2    0    0 -0.45353778229E+02  0.26199759001E+02 -0.12145177838E+03  0.13226460994E+03  0.00000000000E+00 0. -1.
         11    1    1    2    0    0 -0.61093057000E+02  0.30817743817E+02 -0.10353290950E+02  0.69204664446E+02  0.00000000000E+00 0.  1.
</event>
<event>
 7    1  0.2384639E-009  0.1141997E+03  0.7561462E-02  0.1252984E+00
          1   -1    0    0  501    0  0.00000000000E+00  0.00000000000E+00  0.17876712191E+03  0.17876712191E+03  0.00000000000E+00 0. -1.
         -1   -1    0    0    0  501 -0.00000000000E+00 -0.00000000000E+00 -0.14520302048E+03  0.14520302048E+03  0.00000000000E+00 0.  1.
         25    2    1    2    0    0 -0.29832561243E+02  0.39093761492E+02  0.12365045348E+03  0.18262658196E+03  0.12507889468E+03 0.  0.
          5    1    3    3  502    0  0.37331236367E+02 -0.17947285408E+02  0.63221104074E+02  0.75697468006E+02  0.41800000000E+01 0. -1.
         -5    1    3    3    0  502 -0.67163797609E+02  0.57041046901E+02  0.60429349406E+02  0.10692911395E+03  0.41800000000E+01 0. -1.
        -11    1    1    2    0    0 -0.10421461706E+02 -0.54471987059E+02 -0.79564384556E+02  0.96986058421E+02  0.00000000000E+00 0.  1.
         11    1    1    2    0    0  0.40254022948E+02  0.15378225567E+02 -0.10521967490E+02  0.44357502015E+02  0.00000000000E+00 0. -1.
</event>
<event>
 7    1  0.2384639E-009  0.1573024E+03  0.7561462E-02  0.1191776E+00
          1   -1    0    0  501    0  0.00000000000E+00  0.00000000000E+00  0.52468663918E+03  0.52468663918E+03  0.00000000000E+00 0.  1.
         -1   -1    0    0    0  501 -0.00000000000E+00 -0.00000000000E+00 -0.88883578915E+02  0.88883578915E+02  0.00000000000E+00 0. -1.
         25    2    1    2    0    0 -0.13368125360E+03 -0.61808542669E+02  0.38905914801E+03  0.43440383100E+03  0.12509474099E+03 0.  0.
          5    1    3    3  502    0 -0.59776748801E+02 -0.37683710807E+02  0.32774990356E+03  0.33530701371E+03  0.41800000000E+01 0. -1.
         -5    1    3    3    0  502 -0.73904504802E+02 -0.24124831862E+02  0.61309244451E+02  0.99096817293E+02  0.41800000000E+01 0. -1.
        -11    1    1    2    0    0  0.57410848283E+02 -0.13286564531E+02  0.41363621660E+02  0.71996440846E+02  0.00000000000E+00 0.  1.
         11    1    1    2    0    0  0.76270405320E+02  0.75095107200E+02  0.53802905978E+01  0.10716994625E+03  0.00000000000E+00 0. -1.
</event>
<event>
 7    1  0.2705829E-009  0.1536043E+03  0.7561462E-02  0.1196113E+00
          2   -1    0    0  501    0  0.00000000000E+00  0.00000000000E+00  0.19217531422E+04  0.19217531422E+04  0.00000000000E+00 0. -1.
         -2   -1    0    0    0  501 -0.00000000000E+00 -0.00000000000E+00 -0.15520219124E+02  0.15520219124E+02  0.00000000000E+00 0.  1.
         25    2    1    2    0    0  0.11649865886E+03  0.36394146601E+02  0.13113302647E+04  0.13229252359E+04  0.12509054918E+03 0.  0.
          5    1    3    3  502    0  0.78201218877E+01  0.60981321113E+02  0.38357673398E+03  0.38849512105E+03  0.41800000000E+01 0.  1.
         -5    1    3    3    0  502  0.10867853697E+03 -0.24587174512E+02  0.92775353067E+03  0.93443011490E+03  0.41800000000E+01 0.  1.
        -11    1    1    2    0    0 -0.21723585927E+02 -0.32671286371E+02  0.64223113454E+02  0.75259121974E+02  0.00000000000E+00 0.  1.
         11    1    1    2    0    0 -0.94775072932E+02 -0.37228602299E+01  0.53067954496E+03  0.53908900339E+03  0.00000000000E+00 0. -1.
</event>
<event>
 7    1  0.2384639E-009  0.8959363E+02  0.7561462E-02  0.1303839E+00
         -3   -1    0    0    0  501 -0.00000000000E+00  0.00000000000E+00  0.77327347677E+02  0.77327347677E+02  0.00000000000E+00 0.  1.
          3   -1    0    0  501    0  0.00000000000E+00 -0.00000000000E+00 -0.20104532725E+03  0.20104532725E+03  0.00000000000E+00 0. -1.
         25    2    1    2    0    0 -0.24491583466E+02 -0.23361914910E+02 -0.12973238100E+03  0.18336842787E+03  0.12509145826E+03 0.  0.
          5    1    3    3  502    0 -0.73843294977E+02 -0.27547591641E+01 -0.59330887813E+02  0.94858038983E+02  0.41800000000E+01 0.  1.
         -5    1    3    3    0  502  0.49351711511E+02 -0.20607155746E+02 -0.70401493189E+02  0.88510388883E+02  0.41800000000E+01 0.  1.
        -11    1    1    2    0    0 -0.22879631558E+00 -0.10002778991E+02 -0.35142433513E+02  0.36539000650E+02  0.00000000000E+00 0. -1.
         11    1    1    2    0    0  0.24720379782E+02  0.33364693900E+02  0.41156834941E+02  0.58465246412E+02  0.00000000000E+00 0.  1.
</event>
<event>
 7    1  0.2384639E-009  0.1164161E+03  0.7561462E-02  0.1249129E+00
          1   -1    0    0  501    0  0.00000000000E+00  0.00000000000E+00  0.85613578300E+02  0.85613578300E+02  0.00000000000E+00 0. -1.
         -1   -1    0    0    0  501 -0.00000000000E+00 -0.00000000000E+00 -0.36933710994E+03  0.36933710994E+03  0.00000000000E+00 0.  1.
         25    2    1    2    0    0 -0.53528005200E+02  0.98258501162E+02 -0.28897204669E+03  0.33417691657E+03  0.12509751160E+03 0.  0.
          5    1    3    3  502    0 -0.42029227302E+02  0.47556832586E+02 -0.27198531164E+03  0.27932345125E+03  0.41800000000E+01 0.  1.
         -5    1    3    3    0  502 -0.11498777898E+02  0.50701668575E+02 -0.16986735053E+02  0.54853465317E+02  0.41800000000E+01 0.  1.
        -11    1    1    2    0    0  0.48467388701E+02 -0.54150547240E+02 -0.10991356429E+02  0.73499520066E+02  0.00000000000E+00 0.  1.
         11    1    1    2    0    0  0.50606164995E+01 -0.44107953922E+02  0.16239871485E+02  0.47274251600E+02  0.00000000000E+00 0. -1.
</event>
<event>
 7    1  0.2384639E-009  0.1340108E+03  0.7561462E-02  0.1221623E+00
         -2   -1    0    0    0  501 -0.00000000000E+00  0.00000000000E+00  0.24267722889E+02  0.24267722889E+02  0.00000000000E+00 0.  1.
          2   -1    0    0  501    0  0.00000000000E+00 -0.00000000000E+00 -0.78730867690E+03  0.78730867690E+03  0.00000000000E+00 0. -1.
         25    2    1    2    0    0  0.66375545759E+02  0.53073171874E+02 -0.38814167172E+03  0.41656237560E+03  0.12509108998E+03 0.  0.
          5    1    3    3  502    0  0.16587817500E+02 -0.37848950358E+02 -0.64656579812E+02  0.76848190906E+02  0.41800000000E+01 0.  1.
         -5    1    3    3    0  502  0.49787728259E+02  0.90922122232E+02 -0.32348509190E+03  0.33971418469E+03  0.41800000000E+01 0.  1.
        -11    1    1    2    0    0 -0.63327794276E+02 -0.76389765406E+02 -0.27407765465E+03  0.29148647750E+03  0.00000000000E+00 0. -1.
         11    1    1    2    0    0 -0.30477514826E+01  0.23316593532E+02 -0.10082162764E+03  0.10352754669E+03  0.00000000000E+00 0.  1.
</event>
<event>
 7    1  0.2384639E-009  0.1515983E+03  0.7561462E-02  0.1198523E+00
          1   -1    0    0  501    0  0.00000000000E+00  0.00000000000E+00  0.11980112600E+04  0.11980112600E+04  0.00000000000E+00 0. -1.
         -1   -1    0    0    0  501 -0.00000000000E+00 -0.00000000000E+00 -0.19736037517E+02  0.19736037517E+02  0.00000000000E+00 0.  1.
         25    2    1    2    0    0 -0.42041679668E+02  0.98588732449E+02  0.56353893859E+03  0.58712080249E+03  0.12508980939E+03 0.  0.
          5    1    3    3  502    0  0.40328586218E+02  0.83449187319E+01  0.17355289930E+03  0.17842116968E+03  0.41800000000E+01 0.  1.
         -5    1    3    3    0  502 -0.82370265886E+02  0.90243813717E+02  0.38998603930E+03  0.40869963281E+03  0.41800000000E+01 0.  1.
        -11    1    1    2    0    0  0.69655112849E+02 -0.59027916263E+02  0.43860649274E+03  0.44800868866E+03  0.00000000000E+00 0.  1.
         11    1    1    2    0    0 -0.27613433181E+02 -0.39560816186E+02  0.17612979114E+03  0.18261780635E+03  0.00000000000E+00 0. -1.
</event>
<event>
 7    1  0.2384639E-009  0.1164810E+03  0.7561462E-02  0.1249018E+00
         -2   -1    0    0    0  501 -0.00000000000E+00  0.00000000000E+00  0.28369207055E+03  0.28369207055E+03  0.00000000000E+00 0.  1.
          2   -1    0    0  501    0  0.00000000000E+00 -0.00000000000E+00 -0.62616834489E+02  0.62616834489E+02  0.00000000000E+00 0. -1.
         25    2    1    2    0    0 -0.74956725192E+02 -0.52053540916E+01  0.14220219693E+03  0.20375371529E+03  0.12509398595E+03 0.  0.
          5    1    3    3  502    0  0.30350974411E+02 -0.60308502634E+01  0.68097250598E+02  0.74915023471E+02  0.41800000000E+01 0. -1.
         -5    1    3    3    0  502 -0.10530769960E+03  0.82549617177E+00  0.74104946329E+02  0.12883869182E+03  0.41800000000E+01 0. -1.
        -11    1    1    2    0    0 -0.68047930314E+01  0.12525060653E+02  0.55359880925E+02  0.57165538295E+02  0.00000000000E+00 0.  1.
         11    1    1    2    0    0  0.81761518223E+02 -0.73197065615E+01  0.23513158211E+02  0.85389651454E+02  0.00000000000E+00 0. -1.
</event>
<event>
 7    1  0.2384639E-009  0.1550816E+03  0.7561462E-02  0.1194364E+00
          1   -1    0    0  501    0  0.00000000000E+00  0.00000000000E+00  0.81948600078E+03  0.81948600078E+03  0.00000000000E+00 0. -1.
         -1   -1    0    0    0  501 -0.00000000000E+00 -0.00000000000E+00 -0.35143292745E+02  0.35143292745E+02  0.00000000000E+00 0.  1.
         25    2    1    2    0    0  0.17036133932E+02  0.12746666871E+03  0.46159460571E+03  0.49523094340E+03  0.12508447462E+03 0.  0.
          5    1    3    3  502    0 -0.52974804697E+02  0.74147790649E+02  0.22768815561E+03  0.24528268059E+03  0.41800000000E+01 0. -1.
         -5    1    3    3    0  502  0.70010938629E+02  0.53318878059E+02  0.23390645009E+03  0.24994826281E+03  0.41800000000E+01 0. -1.
        -11    1    1    2    0    0 -0.42138162351E+01 -0.10409522573E+03  0.31478478217E+03  0.33157658445E+03  0.00000000000E+00 0. -1.
         11    1    1    2    0    0 -0.12822317697E+02 -0.23371442973E+02  0.79633201632E+01  0.27821765684E+02  0.00000000000E+00 0.  1.
</event>
<event>
 7    1  0.2384639E-009  0.1083151E+03  0.7561462E-02  0.1263722E+00
          2   -1    0    0  501    0  0.00000000000E+00  0.00000000000E+00  0.17671188595E+04  0.17671188595E+04  0.00000000000E+00 0. -1.
         -2   -1    0    0    0  501 -0.00000000000E+00 -0.00000000000E+00 -0.87542435469E+01  0.87542435469E+01  0.00000000000E+00 0.  1.
         25    2    1    2    0    0  0.28352087390E+02  0.41268989482E+02  0.12098129805E+04  0.12172929797E+04  0.12509108793E+03 0.  0.
          5    1    3    3  502    0  0.15681958947E+02  0.74514247954E+02  0.10781502939E+04  0.10808440340E+04  0.41800000000E+01 0.  1.
         -5    1    3    3    0  502  0.12670128443E+02 -0.33245258472E+02  0.13166268660E+03  0.13644894579E+03  0.41800000000E+01 0.  1.
        -11    1    1    2    0    0  0.33684434912E+02 -0.10394649265E+02  0.15337339165E+03  0.15737244725E+03  0.00000000000E+00 0.  1.
         11    1    1    2    0    0 -0.62036522302E+02 -0.30874340217E+02  0.39517824380E+03  0.40120767610E+03  0.00000000000E+00 0. -1.
</event>
<event>
 7    1  0.2384639E-009  0.9969114E+02  0.7561462E-02  0.1280947E+00
         -3   -1    0    0    0  501 -0.00000000000E+00  0.00000000000E+00  0.21588330439E+02  0.21588330439E+02  0.00000000000E+00 0.  1.
          3   -1    0    0  501    0  0.00000000000E+00 -0.00000000000E+00 -0.55713890699E+03  0.55713890699E+03  0.00000000000E+00 0. -1.
         25    2    1    2    0    0 -0.19141341067E+02 -0.58488267578E+00 -0.29997819470E+03  0.32557972742E+03  0.12509399899E+03 0.  0.
          5    1    3    3  502    0 -0.36736691436E+02 -0.51377079331E+02 -0.22148999207E+03  0.23035728286E+03  0.41800000000E+01 0. -1.
         -5    1    3    3    0  502  0.17595350369E+02  0.50792196655E+02 -0.78488202629E+02  0.95222444558E+02  0.41800000000E+01 0. -1.
        -11    1    1    2    0    0  0.38262152355E+02  0.28936133653E+02 -0.19120411051E+03  0.19713017021E+03  0.00000000000E+00 0. -1.
         11    1    1    2    0    0 -0.19120811288E+02 -0.28351250977E+02 -0.44368271346E+02  0.56017339802E+02  0.00000000000E+00 0.  1.
</event>
<event>
 7    1  0.2384639E-009  0.9715395E+02  0.7561462E-02  0.1286397E+00
          1   -1    0    0  501    0  0.00000000000E+00  0.00000000000E+00  0.17438462512E+04  0.17438462512E+04  0.00000000000E+00 0. -1.
         -1   -1    0    0    0  501 -0.00000000000E+00 -0.00000000000E+00 -0.18778193488E+02  0.18778193488E+02  0.00000000000E+00 0.  1.
         25    2    1    2    0    0  0.59108966123E+02 -0.26026005016E+02  0.15420545517E+04  0.15484673538E+04  0.12509069720E+03 0.  0.
          5    1    3    3  502    0 -0.14705713821E+02 -0.20305256120E+02  0.68752658850E+02  0.73300490749E+02  0.41800000000E+01 0.  1.
         -5    1    3    3    0  502  0.73814679944E+02 -0.57207488958E+01  0.14733018928E+04  0.14751668630E+04  0.41800000000E+01 0.  1.
        -11    1    1    2    0    0 -0.40030356539E+02 -0.20120042158E+02  0.31877435231E+02  0.54985601915E+02  0.00000000000E+00 0.  1.
         11    1    1    2    0    0 -0.19078609583E+02  0.46146047173E+02  0.15113607080E+03  0.15917148900E+03  0.00000000000E+00 0. -1.
</event>
<event>
 7    1  0.2384639E-009  0.1137035E+03  0.7561462E-02  0.1253861E+00
         -2   -1    0    0    0  501 -0.00000000000E+00  0.00000000000E+00  0.10025271283E+03  0.10025271283E+03  0.00000000000E+00 0.  1.
          2   -1    0    0  501    0  0.00000000000E+00 -0.00000000000E+00 -0.17260513064E+03  0.17260513064E+03  0.00000000000E+00 0. -1.
         25    2    1    2    0    0 -0.71405261019E+02  0.16296941663E+02 -0.46203548942E+02  0.15214011733E+03  0.12509015052E+03 0.  0.
          5    1    3    3  502    0 -0.43147769593E+02  0.51608164574E+02  0.21383857379E+02  0.70709790185E+02  0.41800000000E+01 0. -1.
         -5    1    3    3    0  502 -0.28257491426E+02 -0.35311222911E+02 -0.67587406321E+02  0.81430327141E+02  0.41800000000E+01 0. -1.
        -11    1    1    2    0    0  0.89255925728E+02  0.16578224647E+01 -0.81274178421E+01  0.89640524171E+02  0.00000000000E+00 0.  1.
         11    1    1    2    0    0 -0.17850664709E+02 -0.17954764128E+02 -0.18021451021E+02  0.31077201971E+02  0.00000000000E+00 0. -1.
</event>
<event>
 7    1  0.2384639E-009  0.1635679E+03  0.7561462E-02  0.1184726E+00
          1   -1    0    0  501    0  0.00000000000E+00  0.00000000000E+00  0.39256073435E+03  0.39256073435E+03  0.00000000000E+00 0. -1.
         -1   -1    0    0    0  501 -0.00000000000E+00 -0.00000000000E+00 -0.83325812560E+02  0.83325812560E+02  0.00000000000E+00 0.  1.
         25    2    1    2    0    0 -0.13372142110E+03 -0.54103803838E+02  0.15546577237E+03  0.24622179153E+03  0.12508766604E+03 0.  0.
          5    1    3    3  502    0 -0.11302572426E+03 -0.74065531462E+02  0.62729581391E+02  0.14904022973E+03  0.41800000000E+01 0. -1.
         -5    1    3    3    0  502 -0.20695696836E+02  0.19961727624E+02  0.92736190979E+02  0.97181561803E+02  0.41800000000E+01 0. -1.
        -11    1    1    2    0    0  0.21341381003E+02  0.45401491991E+02  0.81714980802E+02  0.95885807634E+02  0.00000000000E+00 0. -1.
         11    1    1    2    0    0  0.11238004010E+03  0.87023118466E+01  0.72054168620E+02  0.13377894774E+03  0.00000000000E+00 0.  1.
</event>
<event>
 7    1  0.2384639E-009  0.1311993E+03  0.7561462E-02  0.1225687E+00
         -1   -1    0    0    0  501 -0.00000000000E+00  0.00000000000E+00  0.28825532843E+03  0.28825532843E+03  0.00000000000E+00 0.  1.
          1   -1    0    0  501    0  0.00000000000E+00 -0.00000000000E+00 -0.66886471568E+02  0.66886471568E+02  0.00000000000E+00 0. -1.
         25    2    1    2    0    0  0.81884057059E+02 -0.47705817692E+02  0.12459277609E+03  0.20037891180E+03  0.12508998600E+03 0.  0.
          5    1    3    3  502    0  0.53466467762E+02  0.29276936137E+02  0.95184868226E+02  0.11310806206E+03  0.41800000000E+01 0.  1.
         -5    1    3    3    0  502  0.28417589297E+02 -0.76982753829E+02  0.29407907866E+02  0.87270849736E+02  0.41800000000E+01 0.  1.
        -11    1    1    2    0    0 -0.74907512560E+02  0.41522564232E+01  0.72894728226E+02  0.10460410161E+03  0.00000000000E+00 0. -1.
         11    1    1    2    0    0 -0.69765444992E+01  0.43553561269E+02  0.23881352544E+02  0.50158786585E+02  0.00000000000E+00 0.  1.
</event>
<event>
 7    1  0.2384639E-009  0.8905485E+02  0.7561462E-02  0.1305157E+00
          1   -1    0    0  501    0  0.00000000000E+00  0.00000000000E+00  0.19601337074E+02  0.19601337074E+02  0.00000000000E+00 0. -1.
         -1   -1    0    0    0  501 -0.00000000000E+00 -0.00000000000E+00 -0.68859830728E+03  0.68859830728E+03  0.00000000000E+00 0.  1.
         25    2    1    2    0    0  0.13322746749E+02 -0.34693018721E+02 -0.47165663117E+03  0.48937544140E+03  0.12508894349E+03 0.  0.
          5    1    3    3  502    0 -0.24726594809E+02  0.22662710569E+02 -0.33104352498E+03  0.33276461767E+03  0.41800000000E+01 0. -1.
         -5    1    3    3    0  502  0.38049341558E+02 -0.57355729290E+02 -0.14061310619E+03  0.15661082373E+03  0.41800000000E+01 0. -1.
        -11    1    1    2    0    0 -0.32111258530E+02 -0.39809003952E+01 -0.24147978737E+02  0.40374563396E+02  0.00000000000E+00 0. -1.
         11    1    1    2    0    0  0.18788511781E+02  0.38673919116E+02 -0.17319236029E+03  0.17844963956E+03  0.00000000000E+00 0.  1.
</event>
<event>
 7    1  0.2384639E-009  0.3606799E+03  0.7561462E-02  0.1058315E+00
          2   -1    0    0  501    0  0.00000000000E+00  0.00000000000E+00  0.20375192313E+04  0.20375192313E+04  0.00000000000E+00 0. -1.
         -2   -1    0    0    0  501 -0.00000000000E+00 -0.00000000000E+00 -0.67249642932E+02  0.67249642932E+02  0.00000000000E+00 0.  1.
         25    2    1    2    0    0 -0.33200016639E+03  0.12007350651E+03  0.10681878486E+04  0.11319514642E+04  0.12508828814E+03 0.  0.
          5    1    3    3  502    0 -0.36347518059E+01 -0.89387075880E+01  0.11637103453E+03  0.11684520526E+03  0.41800000000E+01 0. -1.
         -5    1    3    3    0  502 -0.32836541458E+03  0.12901221410E+03  0.95181681409E+03  0.10151062589E+04  0.41800000000E+01 0. -1.
        -11    1    1    2    0    0  0.58702375086E+02  0.19106847640E+01  0.91289699275E+02  0.10855150276E+03  0.00000000000E+00 0.  1.
         11    1    1    2    0    0  0.27329779130E+03 -0.12198419128E+03  0.81079204046E+03  0.86426590731E+03  0.00000000000E+00 0. -1.
</event>
<event>
 7    1  0.2384639E-009  0.1751302E+03  0.7561462E-02  0.1172601E+00
          1   -1    0    0  501    0  0.00000000000E+00  0.00000000000E+00  0.25558466634E+03  0.25558466634E+03  0.00000000000E+00 0. -1.
         -1   -1    0    0    0  501 -0.00000000000E+00 -0.00000000000E+00 -0.15226318867E+03  0.15226318867E+03  0.00000000000E+00 0.  1.
         25    2    1    2    0    0  0.13294045746E+03  0.33916628574E+02  0.14724101498E+03  0.23696046795E+03  0.12508734530E+03 0.  0.
          5    1    3    3  502    0  0.15373497567E+03  0.11447033405E+02  0.11559227552E+03  0.19272914642E+03  0.41800000000E+01 0. -1.
         -5    1    3    3    0  502 -0.20794518217E+02  0.22469595169E+02  0.31648739458E+02  0.44231321529E+02  0.41800000000E+01 0. -1.
        -11    1    1    2    0    0 -0.61666445366E+02 -0.63006364436E+02 -0.22911934266E+02  0.91090664589E+02  0.00000000000E+00 0.  1.
         11    1    1    2    0    0 -0.71274012091E+02  0.29089735862E+02 -0.21007603038E+02  0.79796722474E+02  0.00000000000E+00 0. -1.
</event>
<event>
 7    1  0.2384639E-009  0.1159147E+03  0.7561462E-02  0.1249993E+00
         -2   -1    0    0    0  501 -0.00000000000E+00  0.00000000000E+00  0.66071773158E+02  0.66071773158E+02  0.00000000000E+00 0.  1.
          2   -1    0    0  501    0  0.00000000000E+00 -0.00000000000E+00 -0.30861845546E+03  0.30861845546E+03  0.00000000000E+00 0. -1.
         25    2    1    2    0    0 -0.36859771965E+02  0.65859982365E+02 -0.62887009625E+02  0.15905509190E+03  0.12509023229E+03 0.  0.
          5    1    3    3  502    0 -0.59050975277E+02  0.71101792662E+02 -0.86001998782E+02  0.12631824411E+03  0.41800000000E+01 0. -1.
         -5    1    3    3    0  502  0.22191203312E+02 -0.52418102966E+01  0.23114989157E+02  0.32736847792E+02  0.41800000000E+01 0. -1.
        -11    1    1    2    0    0  0.56026117798E+02 -0.97936276987E+01 -0.63575016183E+02  0.85303128323E+02  0.00000000000E+00 0.  1.
         11    1    1    2    0    0 -0.19166345833E+02 -0.56066354666E+02 -0.11608465650E+03  0.13033200839E+03  0.00000000000E+00 0. -1.
</event>
<event>
 7    1  0.2384639E-009  0.1022115E+03  0.7561462E-02  0.1275713E+00
         -1   -1    0    0    0  501 -0.00000000000E+00  0.00000000000E+00  0.36130344494E+02  0.36130344494E+02  0.00000000000E+00 0.  1.
          1   -1    0    0  501    0  0.00000000000E+00 -0.00000000000E+00 -0.46608863776E+03  0.46608863776E+03  0.00000000000E+00 0. -1.
         25    2    1    2    0    0  0.19236309623E+02 -0.55586919640E+02 -0.31469577544E+03  0.34371531884E+03  0.12508736179E+03 0.  0.
          5    1    3    3  502    0 -0.30221636506E+02 -0.37086953736E+02 -0.35969867397E+02  0.60000776753E+02  0.41800000000E+01 0.  1.
         -5    1    3    3    0  502  0.49457946129E+02 -0.18499965904E+02 -0.27872590805E+03  0.28371454208E+03  0.41800000000E+01 0.  1.
        -11    1    1    2    0    0  0.31573528012E-01 -0.22754008026E+02 -0.76444004527E+01  0.24003806707E+02  0.00000000000E+00 0.  1.
         11    1    1    2    0    0 -0.19267883151E+02  0.78340927666E+02 -0.10761811737E+03  0.13449985671E+03  0.00000000000E+00 0. -1.
</event>
<event>
 7    1  0.2384639E-009  0.1399989E+03  0.7561462E-02  0.1213331E+00
          2   -1    0    0  501    0  0.00000000000E+00  0.00000000000E+00  0.11882704335E+03  0.11882704335E+03  0.00000000000E+00 0. -1.
         -2   -1    0    0    0  501 -0.00000000000E+00 -0.00000000000E+00 -0.19279081313E+03  0.19279081313E+03  0.00000000000E+00 0.  1.
         25    2    1    2    0    0  0.89349856170E+02  0.10441605430E+02  0.16387490812E+02  0.15494643759E+03  0.12508966682E+03 0.  0.
          5    1    3    3  502    0  0.58115561023E+02  0.67312205794E+02  0.78990124973E+01  0.89376833018E+02  0.41800000000E+01 0. -1.
         -5    1    3    3    0  502  0.31234295147E+02 -0.56870600364E+02  0.84884783148E+01  0.65569604568E+02  0.41800000000E+01 0. -1.
        -11    1    1    2    0    0 -0.68674549646E+02  0.34227059993E+02 -0.41120080858E+02  0.87054847393E+02  0.00000000000E+00 0.  1.
         11    1    1    2    0    0 -0.20675306524E+02 -0.44668665423E+02 -0.49231179732E+02  0.69616571507E+02  0.00000000000E+00 0. -1.
</event>
<event>
 7    1  0.2384639E-009  0.1981472E+03  0.7561462E-02  0.1151312E+00
         -1   -1    0    0    0  501 -0.00000000000E+00  0.00000000000E+00  0.47980142265E+03  0.47980142265E+03  0.00000000000E+00 0. -1.
          1   -1    0    0  501    0  0.00000000000E+00 -0.00000000000E+00 -0.11182535467E+03  0.11182535467E+03  0.00000000000E+00 0.  1.
         25    2    1    2    0    0 -0.18079442880E+03 -0.43846749826E+02  0.83491599124E+02  0.23922136551E+03  0.12508737601E+03 0.  0.
          5    1    3    3  502    0 -0.16172392233E+02  0.18941946401E+02  0.55230134492E+02  0.60730418737E+02  0.41800000000E+01 0.  1.
         -5    1    3    3    0  502 -0.16462203656E+03 -0.62788696227E+02  0.28261464633E+02  0.17849094677E+03  0.41800000000E+01 0.  1.
        -11    1    1    2    0    0  0.74482611530E+02 -0.10806759810E+02  0.53556526952E+02  0.92372869702E+02  0.00000000000E+00 0.  1.
         11    1    1    2    0    0  0.10631181727E+03  0.54653509636E+02  0.23092794190E+03  0.26003254211E+03  0.00000000000E+00 0. -1.
</event>
<event>
 7    1  0.2384639E-009  0.1324635E+03  0.7561462E-02  0.1223845E+00
          1   -1    0    0  501    0  0.00000000000E+00  0.00000000000E+00  0.24565326514E+03  0.24565326514E+03  0.00000000000E+00 0. -1.
         -1   -1    0    0    0  501 -0.00000000000E+00 -0.00000000000E+00 -0.90038648257E+02  0.90038648257E+02  0.00000000000E+00 0.  1.
         25    2    1    2    0    0  0.36352566095E+02  0.94204882763E+02  0.94015995852E+02  0.18622853152E+03  0.12508392973E+03 0.  0.
          5    1    3    3  502    0 -0.62964657708E+01 -0.19588076911E+02  0.54451561822E+02  0.58359088608E+02  0.41800000000E+01 0.  1.
         -5    1    3    3    0  502  0.42649031866E+02  0.11379295967E+03  0.39564434029E+02  0.12786944291E+03  0.41800000000E+01 0.  1.
        -11    1    1    2    0    0 -0.52872873903E+02 -0.91384193482E+02  0.73730131191E+02  0.12877400304E+03  0.00000000000E+00 0. -1.
         11    1    1    2    0    0  0.16520307808E+02 -0.28206892806E+01 -0.12131510158E+02  0.20689378841E+02  0.00000000000E+00 0.  1.
</event>
<event>
 7    1  0.2384639E-009  0.1230130E+03  0.7561462E-02  0.1238208E+00
          2   -1    0    0  501    0  0.00000000000E+00  0.00000000000E+00  0.88725438377E+02  0.88725438377E+02  0.00000000000E+00 0. -1.
         -2   -1    0    0    0  501 -0.00000000000E+00 -0.00000000000E+00 -0.21497220858E+03  0.21497220858E+03  0.00000000000E+00 0.  1.
         25    2    1    2    0    0 -0.73238482431E+02 -0.31749121897E+01 -0.12316307960E+03  0.19024105917E+03  0.12509420865E+03 0.  0.
          5    1    3    3  502    0 -0.99977565312E+02 -0.26750326308E+02 -0.11222593201E+03  0.15271943471E+03  0.41800000000E+01 0.  1.
         -5    1    3    3    0  502  0.26739082882E+02  0.23575414118E+02 -0.10937147594E+02  0.37521624454E+02  0.41800000000E+01 0.  1.
        -11    1    1    2    0    0  0.17260413998E+02  0.37226683204E+02 -0.20200357473E+02  0.45736224984E+02  0.00000000000E+00 0.  1.
         11    1    1    2    0    0  0.55978068433E+02 -0.34051771014E+02  0.17116666869E+02  0.67720362812E+02  0.00000000000E+00 0. -1.
</event>
<event>
 7    1  0.2384639E-009  0.1184985E+03  0.7561462E-02  0.1245595E+00
         -2   -1    0    0    0  501 -0.00000000000E+00  0.00000000000E+00  0.91793912184E+02  0.91793912184E+02  0.00000000000E+00 0.  1.
          2   -1    0    0  501    0  0.00000000000E+00 -0.00000000000E+00 -0.34021217837E+03  0.34021217837E+03  0.00000000000E+00 0. -1.
         25    2    1    2    0    0  0.32081140581E+02 -0.77664635960E+02 -0.26661524330E+03  0.30625551367E+03  0.12509099262E+03 0.  0.
          5    1    3    3  502    0 -0.30759880483E+02 -0.67676765356E+01 -0.11009037191E+02  0.33625035210E+02  0.41800000000E+01 0.  1.
         -5    1    3    3    0  502  0.62841021063E+02 -0.70896959424E+02 -0.25560620611E+03  0.27263047846E+03  0.41800000000E+01 0.  1.
        -11    1    1    2    0    0 -0.14828534122E+02  0.88689328300E+02 -0.10464564341E+02  0.90527285861E+02  0.00000000000E+00 0. -1.
         11    1    1    2    0    0 -0.17252606459E+02 -0.11024692340E+02  0.28661541464E+02  0.35223291015E+02  0.00000000000E+00 0.  1.
</event>
<event>
 7    1  0.2384639E-009  0.1718417E+03  0.7561462E-02  0.1175941E+00
          3   -1    0    0  501    0  0.00000000000E+00  0.00000000000E+00  0.65004712510E+03  0.65004712510E+03  0.00000000000E+00 0. -1.
         -3   -1    0    0    0  501 -0.00000000000E+00 -0.00000000000E+00 -0.52866868339E+02  0.52866868339E+02  0.00000000000E+00 0.  1.
         25    2    1    2    0    0  0.14604006016E+03 -0.19503607206E+02  0.36983560019E+03  0.41729260627E+03  0.12508660284E+03 0.  0.
          5    1    3    3  502    0  0.35962346051E+02 -0.46525955847E+02  0.47895251276E+02  0.75956450653E+02  0.41800000000E+01 0.  1.
         -5    1    3    3    0  502  0.11007771411E+03  0.27022348642E+02  0.32194034892E+03  0.34133615561E+03  0.41800000000E+01 0.  1.
        -11    1    1    2    0    0 -0.10572785794E+03  0.53573802284E+02  0.13862109545E+03  0.18238514287E+03  0.00000000000E+00 0.  1.
         11    1    1    2    0    0 -0.40312202216E+02 -0.34070195079E+02  0.88723561120E+02  0.10323624430E+03  0.00000000000E+00 0. -1.
</event>
<event>
 7    1  0.2384639E-009  0.1661797E+03  0.7561462E-02  0.1181891E+00
         -4   -1    0    0    0  501 -0.00000000000E+00  0.00000000000E+00  0.90267811530E+03  0.90267811530E+03  0.00000000000E+00 0.  1.
          4   -1    0    0  501    0  0.00000000000E+00 -0.00000000000E+00 -0.42606025731E+02  0.42606025731E+02  0.00000000000E+00 0. -1.
         25    2    1    2    0    0  0.11051073539E+03  0.10549151780E+03  0.58568631469E+03  0.61807570020E+03  0.12509208208E+03 0.  0.
          5    1    3    3  502    0  0.10957356907E+03  0.80128679887E+02  0.27885988129E+03  0.31017298104E+03  0.41800000000E+01 0. -1.
         -5    1    3    3    0  502  0.93716631931E+00  0.25362837911E+02  0.30682643341E+03  0.30790271916E+03  0.41800000000E+01 0. -1.
        -11    1    1    2    0    0  0.96161358170E+01 -0.23485180833E+02  0.83201887921E+02  0.86986079004E+02  0.00000000000E+00 0.  1.
         11    1    1    2    0    0 -0.12012687121E+03 -0.82006336965E+02  0.19118388695E+03  0.24022236182E+03  0.00000000000E+00 0. -1.
</event>
<event>
 7    1  0.2384639E-009  0.2374040E+03  0.7561462E-02  0.1121534E+00
          2   -1    0    0  501    0  0.00000000000E+00  0.00000000000E+00  0.37595739817E+03  0.37595739817E+03  0.00000000000E+00 0. -1.
         -2   -1    0    0    0  501 -0.00000000000E+00 -0.00000000000E+00 -0.19801505212E+03  0.19801505212E+03  0.00000000000E+00 0.  1.
         25    2    1    2    0    0 -0.78312836414E+02  0.21634007806E+03  0.19981053623E+03  0.32940364387E+03  0.12508629216E+03 0.  0.
          5    1    3    3  502    0 -0.67598774696E+02  0.15523752217E+03  0.20626808567E+03  0.26689375826E+03  0.41800000000E+01 0.  1.
         -5    1    3    3    0  502 -0.10714061718E+02  0.61102555891E+02 -0.64575494438E+01  0.62509885616E+02  0.41800000000E+01 0.  1.
        -11    1    1    2    0    0  0.89512724297E+02 -0.14043462131E+03 -0.20833232337E+02  0.16783454425E+03  0.00000000000E+00 0. -1.
         11    1    1    2    0    0 -0.11199887883E+02 -0.75905456750E+02 -0.10349578346E+01  0.76734262170E+02  0.00000000000E+00 0.  1.
</event>
<event>
 7    1  0.2384639E-009  0.1398781E+03  0.7561462E-02  0.1213493E+00
         -2   -1    0    0    0  501 -0.00000000000E+00  0.00000000000E+00  0.58983698525E+02  0.58983698525E+02  0.00000000000E+00 0.  1.
          2   -1    0    0  501    0  0.00000000000E+00 -0.00000000000E+00 -0.86447830559E+03  0.86447830559E+03  0.00000000000E+00 0. -1.
         25    2    1    2    0    0  0.11883699168E+03 -0.39486373994E+02 -0.72976739560E+03  0.75092557102E+03  0.12508939688E+03 0.  0.
          5    1    3    3  502    0  0.63776070870E+02 -0.31229448016E+02 -0.12689512714E+03  0.14547340421E+03  0.41800000000E+01 0. -1.
         -5    1    3    3    0  502  0.55060920808E+02 -0.82569259772E+01 -0.60287226845E+03  0.60545216681E+03  0.41800000000E+01 0. -1.
        -11    1    1    2    0    0 -0.11659240636E+03  0.34100164115E+01 -0.69730851702E+02  0.13589631751E+03  0.00000000000E+00 0. -1.
         11    1    1    2    0    0 -0.22445853136E+01  0.36076357582E+02 -0.59963597661E+01  0.36640115585E+02  0.00000000000E+00 0.  1.
</event>
<event>
 7    1  0.2384639E-009  0.1120416E+03  0.7561462E-02  0.1256835E+00
         -3   -1    0    0    0  501 -0.00000000000E+00  0.00000000000E+00  0.30822545827E+02  0.30822545827E+02  0.00000000000E+00 0.  1.
          3   -1    0    0  501    0  0.00000000000E+00 -0.00000000000E+00 -0.59353003696E+03  0.59353003696E+03  0.00000000000E+00 0. -1.
         25    2    1    2    0    0  0.59321197560E+02 -0.35723585650E+02 -0.41119571092E+03  0.43534334735E+03  0.12508692321E+03 0.  0.
          5    1    3    3  502    0 -0.29426936552E+01 -0.64037840800E+02 -0.28060601139E+03  0.28786578562E+03  0.41800000000E+01 0.  1.
         -5    1    3    3    0  502  0.62263891215E+02  0.28314255150E+02 -0.13058969952E+03  0.14747756174E+03  0.41800000000E+01 0.  1.
        -11    1    1    2    0    0 -0.39951543982E+02 -0.10405059056E+02 -0.15517627617E+02  0.44104284229E+02  0.00000000000E+00 0.  1.
         11    1    1    2    0    0 -0.19369653578E+02  0.46128644706E+02 -0.13599415260E+03  0.14490495121E+03  0.00000000000E+00 0. -1.
</event>
<event>
 7    1  0.2384639E-009  0.3920121E+02  0.7561462E-02  0.1514173E+00
         -1   -1    0    0    0  501 -0.00000000000E+00  0.00000000000E+00  0.53699761844E+03  0.53699761844E+03  0.00000000000E+00 0.  1.
          1   -1    0    0  501    0  0.00000000000E+00 -0.00000000000E+00 -0.35305633357E+02  0.35305633357E+02  0.00000000000E+00 0. -1.
         25    2    1    2    0    0 -0.20755675845E+02 -0.67525784011E+01  0.43806199508E+03  0.45609582311E+03  0.12509473582E+03 0.  0.
          5    1    3    3  502    0 -0.27671399563E+02  0.13369815038E+01  0.44282415611E+03  0.44370958915E+03  0.41800000000E+01 0.  1.
         -5    1    3    3    0  502  0.69157237181E+01 -0.80895599049E+01 -0.47621610273E+01  0.12386233957E+02  0.41800000000E+01 0.  1.
        -11    1    1    2    0    0  0.23110741456E+02 -0.76601177638E+01 -0.19878572215E+02  0.31431535248E+02  0.00000000000E+00 0. -1.
         11    1    1    2    0    0 -0.23550656108E+01  0.14412696165E+02  0.83508562220E+02  0.84775893441E+02  0.00000000000E+00 0.  1.
</event>
<event>
 7    1  0.2384639E-009  0.1468502E+03  0.7561462E-02  0.1204398E+00
          2   -1    0    0  501    0  0.00000000000E+00  0.00000000000E+00  0.10059490338E+03  0.10059490338E+03  0.00000000000E+00 0. -1.
         -2   -1    0    0    0  501 -0.00000000000E+00 -0.00000000000E+00 -0.31782945937E+03  0.31782945937E+03  0.00000000000E+00 0.  1.
         25    2    1    2    0    0 -0.56593756115E+01 -0.10343352763E+03 -0.22820342618E+03  0.28009713426E+03  0.12508827974E+03 0.  0.
          5    1    3    3  502    0  0.15773329998E+01  0.28117776324E+02 -0.25027669200E+02  0.37907175447E+02  0.41800000000E+01 0. -1.
         -5    1    3    3    0  502 -0.72367086113E+01 -0.13155130395E+03 -0.20317575698E+03  0.24218995881E+03  0.41800000000E+01 0. -1.
        -11    1    1    2    0    0  0.21138353054E+02 -0.67175690456E+01  0.15405718932E+02  0.27005404636E+02  0.00000000000E+00 0. -1.
         11    1    1    2    0    0 -0.15478977443E+02  0.11015109667E+03 -0.44368487384E+01  0.11132182386E+03  0.00000000000E+00 0.  1.
</event>
<event>
 7    1  0.2384639E-009  0.7188773E+02  0.7561462E-02  0.1353789E+00
         -2   -1    0    0    0  501 -0.00000000000E+00  0.00000000000E+00  0.36403442411E+02  0.36403442411E+02  0.00000000000E+00 0.  1.
          2   -1    0    0  501    0  0.00000000000E+00 -0.00000000000E+00 -0.31637772275E+03  0.31637772275E+03  0.00000000000E+00 0. -1.
         25    2    1    2    0    0  0.31517590611E+01 -0.14880407766E+01 -0.17742147440E+03  0.21711250892E+03  0.12508922457E+03 0.  0.
          5    1    3    3  502    0 -0.21928627205E+02 -0.43983890367E+02 -0.15517091961E+03  0.16282178600E+03  0.41800000000E+01 0. -1.
         -5    1    3    3    0  502  0.25080386267E+02  0.42495849590E+02 -0.22250554785E+02  0.54290722927E+02  0.41800000000E+01 0. -1.
        -11    1    1    2    0    0 -0.23357063368E+02 -0.46431328668E+01 -0.11055301907E+03  0.11308881960E+03  0.00000000000E+00 0. -1.
         11    1    1    2    0    0  0.20205304307E+02  0.61311736435E+01  0.80002131298E+01  0.22579836636E+02  0.00000000000E+00 0.  1.
</event>
<event>
 7    1  0.2384639E-009  0.8768429E+02  0.7561462E-02  0.1308558E+00
         -2   -1    0    0    0  501 -0.00000000000E+00  0.00000000000E+00  0.20107428881E+03  0.20107428881E+03  0.00000000000E+00 0.  1.
          2   -1    0    0  501    0  0.00000000000E+00 -0.00000000000E+00 -0.18314249614E+03  0.18314249614E+03  0.00000000000E+00 0. -1.
         25    2    1    2    0    0  0.11966793600E+02 -0.56823322282E+02  0.15665164761E+03  0.20870586177E+03  0.12508518671E+03 0.  0.
          5    1    3    3  502    0 -0.10457692573E+01  0.13355073285E+02 -0.16329832075E+02  0.21531080590E+02  0.41800000000E+01 0. -1.
         -5    1    3    3    0  502  0.13012562857E+02 -0.70178395567E+02  0.17298147969E+03  0.18717478118E+03  0.41800000000E+01 0. -1.
        -11    1    1    2    0    0 -0.29486503748E+02 -0.91519115849E+00 -0.65491692651E+01  0.30218919507E+02  0.00000000000E+00 0.  1.
         11    1    1    2    0    0  0.17519710148E+02  0.57738513440E+02 -0.13217068568E+03  0.14529200367E+03  0.00000000000E+00 0. -1.
</event>
<event>
 7    1  0.2384639E-009  0.8241495E+02  0.7561462E-02  0.1322335E+00
          1   -1    0    0  501    0  0.00000000000E+00  0.00000000000E+00  0.31170568346E+03  0.31170568346E+03  0.00000000000E+00 0. -1.
         -1   -1    0    0    0  501 -0.00000000000E+00 -0.00000000000E+00 -0.41356709862E+02  0.41356709862E+02  0.00000000000E+00 0.  1.
         25    2    1    2    0    0  0.11012333265E+02  0.14921115052E+02  0.11153439081E+03  0.16861709619E+03  0.12509154102E+03 0.  0.
          5    1    3    3  502    0 -0.21578130742E+02  0.32583851794E+02 -0.10767880671E+02  0.40752211942E+02  0.41800000000E+01 0.  1.
         -5    1    3    3    0  502  0.32590464007E+02 -0.17662736742E+02  0.12230227149E+03  0.12786488425E+03  0.41800000000E+01 0.  1.
        -11    1    1    2    0    0  0.31505927297E+02  0.16299428218E+02  0.96436167382E+02  0.10275324420E+03  0.00000000000E+00 0. -1.
         11    1    1    2    0    0 -0.42518260562E+02 -0.31220543270E+02  0.62378415397E+02  0.81692052923E+02  0.00000000000E+00 0.  1.
</event>
<event>
 7    1  0.2384639E-009  0.1058548E+03  0.7561462E-02  0.1268444E+00
          1   -1    0    0  501    0  0.00000000000E+00  0.00000000000E+00  0.65186258019E+02  0.65186258019E+02  0.00000000000E+00 0. -1.
         -1   -1    0    0    0  501 -0.00000000000E+00 -0.00000000000E+00 -0.47301155582E+03  0.47301155582E+03  0.00000000000E+00 0.  1.
         25    2    1    2    0    0 -0.39731835685E+02  0.27676607802E+01 -0.14128320052E+02  0.13204462350E+03  0.12509953818E+03 0.  0.
          5    1    3    3  502    0 -0.51962575467E+02 -0.44306348746E+02  0.21382431263E+02  0.71678745490E+02  0.41800000000E+01 0. -1.
         -5    1    3    3    0  502  0.12230739782E+02  0.47074009527E+02 -0.35510751315E+02  0.60365878006E+02  0.41800000000E+01 0. -1.
        -11    1    1    2    0    0 -0.26891981378E+02  0.51661015803E+01 -0.62613677586E+02  0.68339885051E+02  0.00000000000E+00 0. -1.
         11    1    1    2    0    0  0.66623817063E+02 -0.79337623605E+01 -0.33108330017E+03  0.33781330530E+03  0.00000000000E+00 0.  1.
</event>
<event>
 7    1  0.2384639E-009  0.1085449E+03  0.7561462E-02  0.1263288E+00
         -1   -1    0    0    0  501 -0.00000000000E+00  0.00000000000E+00  0.38610762209E+02  0.38610762209E+02  0.00000000000E+00 0.  1.
          1   -1    0    0  501    0  0.00000000000E+00 -0.00000000000E+00 -0.39228540474E+03  0.39228540474E+03  0.00000000000E+00 0. -1.
         25    2    1    2    0    0  0.33347977348E+01 -0.40760906079E+02 -0.26205453660E+03  0.29324453180E+03  0.12508878023E+03 0.  0.
          5    1    3    3  502    0 -0.77219442060E+01  0.38704213719E+02 -0.36921485862E+02  0.54206209056E+02  0.41800000000E+01 0. -1.
         -5    1    3    3    0  502  0.11056741941E+02 -0.79465119798E+02 -0.22513305074E+03  0.23903832274E+03  0.41800000000E+01 0. -1.
        -11    1    1    2    0    0  0.35329206730E+02 -0.65825964690E+01 -0.13339409187E+02  0.38333057039E+02  0.00000000000E+00 0. -1.
         11    1    1    2    0    0 -0.38664004465E+02  0.47343502548E+02 -0.78280696747E+02  0.99318578111E+02  0.00000000000E+00 0.  1.
</event>
<event>
 7    1  0.2384639E-009  0.1224190E+03  0.7561462E-02  0.1239159E+00
          2   -1    0    0  501    0  0.00000000000E+00  0.00000000000E+00  0.20492527347E+03  0.20492527347E+03  0.00000000000E+00 0. -1.
         -2   -1    0    0    0  501 -0.00000000000E+00 -0.00000000000E+00 -0.10902166158E+03  0.10902166158E+03  0.00000000000E+00 0.  1.
         25    2    1    2    0    0 -0.10084104890E+03  0.22451870939E+02  0.57143683879E+02  0.17200938131E+03  0.12509525570E+03 0.  0.
          5    1    3    3  502    0 -0.55983128940E+02 -0.52901342962E+01 -0.34561007280E+02  0.66136464004E+02  0.41800000000E+01 0. -1.
         -5    1    3    3    0  502 -0.44857919960E+02  0.27742005235E+02  0.91704691158E+02  0.10587291730E+03  0.41800000000E+01 0. -1.
        -11    1    1    2    0    0  0.41906786454E+02  0.33975720481E+02  0.23885632846E+02  0.59000438893E+02  0.00000000000E+00 0. -1.
         11    1    1    2    0    0  0.58934262446E+02 -0.56427591420E+02  0.14874295156E+02  0.82937114852E+02  0.00000000000E+00 0.  1.
</event>
<event>
 7    1  0.2384639E-009  0.9155107E+02  0.7561462E-02  0.1299138E+00
          2   -1    0    0  501    0  0.00000000000E+00  0.00000000000E+00  0.20330619993E+03  0.20330619993E+03  0.00000000000E+00 0. -1.
         -2   -1    0    0    0  501 -0.00000000000E+00 -0.00000000000E+00 -0.95548900147E+02  0.95548900147E+02  0.00000000000E+00 0.  1.
         25    2    1    2    0    0  0.38737692330E+02  0.79782589514E+01 -0.23949349364E+02  0.13336289789E+03  0.12509128577E+03 0.  0.
          5    1    3    3  502    0  0.82785469075E+02  0.88640907549E+01 -0.30208134724E+02  0.88667975044E+02  0.41800000000E+01 0.  1.
         -5    1    3    3    0  502 -0.44047776745E+02 -0.88583180347E+00  0.62587853604E+01  0.44694922848E+02  0.41800000000E+01 0.  1.
        -11    1    1    2    0    0 -0.98469968288E+01 -0.21453435490E+02 -0.58256792689E+01  0.24313613055E+02  0.00000000000E+00 0.  1.
         11    1    1    2    0    0 -0.28890695501E+02  0.13475176538E+02  0.13753232842E+03  0.14117858913E+03  0.00000000000E+00 0. -1.
</event>
<event>
 7    1  0.2384639E-009  0.7769506E+02  0.7561462E-02  0.1335723E+00
         -2   -1    0    0    0  501 -0.00000000000E+00  0.00000000000E+00  0.33386562122E+02  0.33386562122E+02  0.00000000000E+00 0.  1.
          2   -1    0    0  501    0  0.00000000000E+00 -0.00000000000E+00 -0.43657163716E+03  0.43657163716E+03  0.00000000000E+00 0. -1.
         25    2    1    2    0    0 -0.49823408516E+01 -0.37311439659E+02 -0.30824004795E+03  0.33477916574E+03  0.12509274720E+03 0.  0.
          5    1    3    3  502    0 -0.53368326138E+01 -0.48189552559E+02 -0.31887416869E+02  0.58180705674E+02  0.41800000000E+01 0.  1.
         -5    1    3    3    0  502  0.35449176218E+00  0.10878112900E+02 -0.27635263108E+03  0.27659846007E+03  0.41800000000E+01 0.  1.
        -11    1    1    2    0    0 -0.18019751850E+02  0.60066656829E+02 -0.52358627378E+02  0.81695413459E+02  0.00000000000E+00 0.  1.
         11    1    1    2    0    0  0.23002092702E+02 -0.22755217170E+02 -0.42586399709E+02  0.53483620084E+02  0.00000000000E+00 0. -1.
</event>
<event>
 7    1  0.2384639E-009  0.8532968E+02  0.7561462E-02  0.1314573E+00
         -2   -1    0    0    0  501 -0.00000000000E+00  0.00000000000E+00  0.13958887092E+03  0.13958887092E+03  0.00000000000E+00 0.  1.
          2   -1    0    0  501    0  0.00000000000E+00 -0.00000000000E+00 -0.13124601770E+03  0.13124601770E+03  0.00000000000E+00 0. -1.
         25    2    1    2    0    0 -0.22579750617E+02 -0.34497826823E+01  0.81425173678E+02  0.15099409789E+03  0.12508961807E+03 0.  0.
          5    1    3    3  502    0 -0.41392056787E+02 -0.34013459217E+02 -0.82005025151E+01  0.54359345236E+02  0.41800000000E+01 0.  1.
         -5    1    3    3    0  502  0.18812306170E+02  0.30563676535E+02  0.89625676193E+02  0.96634752650E+02  0.41800000000E+01 0.  1.
        -11    1    1    2    0    0 -0.81086954532E+01  0.35501508523E+02 -0.65330575760E+02  0.74794332529E+02  0.00000000000E+00 0. -1.
         11    1    1    2    0    0  0.30688446070E+02 -0.32051725840E+02 -0.77517446962E+01  0.45046458211E+02  0.00000000000E+00 0.  1.
</event>
<event>
 7    1  0.2384639E-009  0.1330897E+03  0.7561462E-02  0.1222942E+00
         -1   -1    0    0    0  501 -0.00000000000E+00  0.00000000000E+00  0.36080374640E+02  0.36080374640E+02  0.00000000000E+00 0.  1.
          1   -1    0    0  501    0  0.00000000000E+00 -0.00000000000E+00 -0.60640353088E+03  0.60640353088E+03  0.00000000000E+00 0. -1.
         25    2    1    2    0    0 -0.82822224571E+02 -0.51491019070E+02 -0.25983385468E+03  0.30442103333E+03  0.12509071736E+03 0.  0.
          5    1    3    3  502    0 -0.97094909501E+01  0.30459069198E+02 -0.14021642179E+02  0.35158327041E+02  0.41800000000E+01 0.  1.
         -5    1    3    3    0  502 -0.73112733621E+02 -0.81950088268E+02 -0.24581221250E+03  0.26926270629E+03  0.41800000000E+01 0.  1.
        -11    1    1    2    0    0  0.56904401305E+02  0.71436473873E+02 -0.27515544662E+03  0.28991688549E+03  0.00000000000E+00 0. -1.
         11    1    1    2    0    0  0.25917823266E+02 -0.19945454802E+02 -0.35333854935E+02  0.48145986694E+02  0.00000000000E+00 0.  1.
</event>
<event>
 7    1  0.2384639E-009  0.1009407E+03  0.7561462E-02  0.1278330E+00
         -1   -1    0    0    0  501 -0.00000000000E+00  0.00000000000E+00  0.11684205731E+02  0.11684205731E+02  0.00000000000E+00 0.  1.
          1   -1    0    0  501    0  0.00000000000E+00 -0.00000000000E+00 -0.10752718997E+04  0.10752718997E+04  0.00000000000E+00 0. -1.
         25    2    1    2    0    0  0.78286046737E+01  0.19782092981E+02 -0.71597445902E+03  0.72713135631E+03  0.12509182672E+03 0.  0.
          5    1    3    3  502    0  0.12466317429E+02  0.67193507346E+02 -0.26784418986E+03  0.27645679399E+03  0.41800000000E+01 0.  1.
         -5    1    3    3    0  502 -0.46377127550E+01 -0.47411414365E+02 -0.44813026916E+03  0.45067456233E+03  0.41800000000E+01 0.  1.
        -11    1    1    2    0    0  0.37005838002E+02 -0.16853458969E+02 -0.96399390390E+02  0.10462463187E+03  0.00000000000E+00 0.  1.
         11    1    1    2    0    0 -0.44834442675E+02 -0.29286340124E+01 -0.25121384452E+03  0.25520011721E+03  0.00000000000E+00 0. -1.
</event>
<event>
 7    1  0.2384639E-009  0.1349356E+03  0.7561462E-02  0.1220311E+00
         -1   -1    0    0    0  501 -0.00000000000E+00  0.00000000000E+00  0.86479720536E+02  0.86479720536E+02  0.00000000000E+00 0.  1.
          1   -1    0    0  501    0  0.00000000000E+00 -0.00000000000E+00 -0.30451628255E+03  0.30451628255E+03  0.00000000000E+00 0. -1.
         25    2    1    2    0    0 -0.52870732083E+02 -0.10394746009E+03 -0.15372133392E+03  0.22995171493E+03  0.12508858431E+03 0.  0.
          5    1    3    3  502    0 -0.54969287169E+02 -0.11475718256E+03 -0.16841465858E+03  0.21112035218E+03  0.41800000000E+01 0. -1.
         -5    1    3    3    0  502  0.20985550870E+01  0.10809722463E+02  0.14693324663E+02  0.18831362745E+02  0.41800000000E+01 0. -1.
        -11    1    1    2    0    0  0.23941663481E+02  0.11266076708E+01  0.14758042705E+02  0.28147332371E+02  0.00000000000E+00 0.  1.
         11    1    1    2    0    0  0.28929068601E+02  0.10282085242E+03 -0.79073270803E+02  0.13289695579E+03  0.00000000000E+00 0. -1.
</event>
<event>
 7    1  0.2384639E-009  0.9145475E+02  0.7561462E-02  0.1299367E+00
          2   -1    0    0  501    0  0.00000000000E+00  0.00000000000E+00  0.24486434543E+03  0.24486434543E+03  0.00000000000E+00 0. -1.
         -2   -1    0    0    0  501 -0.00000000000E+00 -0.00000000000E+00 -0.53838606542E+02  0.53838606542E+02  0.00000000000E+00 0.  1.
         25    2    1    2    0    0 -0.25298864720E+02  0.24285053375E+02  0.12233229202E+03  0.17844739472E+03  0.12509391128E+03 0.  0.
          5    1    3    3  502    0 -0.76094756796E+01 -0.49028031133E+02  0.72523191025E+02  0.87970094881E+02  0.41800000000E+01 0.  1.
         -5    1    3    3    0  502 -0.17689389040E+02  0.73313084508E+02  0.49809100996E+02  0.90477299842E+02  0.41800000000E+01 0.  1.
        -11    1    1    2    0    0  0.58939941235E+01 -0.34949970353E+02  0.85435747179E+02  0.92495980943E+02  0.00000000000E+00 0. -1.
         11    1    1    2    0    0  0.19404870596E+02  0.10664916978E+02 -0.16742300312E+02  0.27759576307E+02  0.00000000000E+00 0.  1.
</event>
<event>
 7    1  0.2384639E-009  0.1151799E+03  0.7561462E-02  0.1251267E+00
          1   -1    0    0  501    0  0.00000000000E+00  0.00000000000E+00  0.56697078349E+03  0.56697078349E+03  0.00000000000E+00 0. -1.
         -1   -1    0    0    0  501 -0.00000000000E+00 -0.00000000000E+00 -0.30984849331E+02  0.30984849331E+02  0.00000000000E+00 0.  1.
         25    2    1    2    0    0 -0.43679773730E+02  0.60661659335E+02  0.31802421408E+03  0.34982221026E+03  0.12509363895E+03 0.  0.
          5    1    3    3  502    0 -0.98722252890E+01  0.78516954751E+02  0.95957685183E+02  0.12444967963E+03  0.41800000000E+01 0. -1.
         -5    1    3    3    0  502 -0.33807548441E+02 -0.17855295415E+02  0.22206652889E+03  0.22537253063E+03  0.41800000000E+01 0. -1.
        -11    1    1    2    0    0  0.11082746981E+02 -0.75875656890E+02  0.18091800014E+03  0.19649749455E+03  0.00000000000E+00 0.  1.
         11    1    1    2    0    0  0.32597026749E+02  0.15213997554E+02  0.37043719941E+02  0.51635928011E+02  0.00000000000E+00 0. -1.
</event>
<event>
 7    1  0.2384639E-009  0.2333880E+03  0.7561462E-02  0.1124278E+00
          1   -1    0    0  501    0  0.00000000000E+00  0.00000000000E+00  0.29433585898E+03  0.29433585898E+03  0.00000000000E+00 0. -1.
         -1   -1    0    0    0  501 -0.00000000000E+00 -0.00000000000E+00 -0.20609171267E+03  0.20609171267E+03  0.00000000000E+00 0.  1.
         25    2    1    2    0    0 -0.63989935432E+01  0.21386948317E+03  0.10006315086E+03  0.26728530241E+03  0.12509075016E+03 0.  0.
          5    1    3    3  502    0 -0.63876863720E+02  0.89161868098E+02  0.54498723545E+02  0.12254662668E+03  0.41800000000E+01 0.  1.
         -5    1    3    3    0  502  0.57477870177E+02  0.12470761508E+03  0.45564427317E+02  0.14473867574E+03  0.41800000000E+01 0.  1.
        -11    1    1    2    0    0 -0.19526476476E+02 -0.13985028318E+03 -0.44681518980E+02  0.14810747155E+03  0.00000000000E+00 0.  1.
         11    1    1    2    0    0  0.25925470019E+02 -0.74019199994E+02  0.32862514434E+02  0.85034797691E+02  0.00000000000E+00 0. -1.
</event>
<event>
 7    1  0.2384639E-009  0.2630784E+03  0.7561462E-02  0.1105308E+00
          2   -1    0    0  501    0  0.00000000000E+00  0.00000000000E+00  0.49557514374E+03  0.49557514374E+03  0.00000000000E+00 0. -1.
         -2   -1    0    0    0  501 -0.00000000000E+00 -0.00000000000E+00 -0.14613565940E+03  0.14613565940E+03  0.00000000000E+00 0.  1.
         25    2    1    2    0    0 -0.74877431361E+02 -0.23161516671E+03  0.14065947705E+03  0.30770800055E+03  0.12508760907E+03 0.  0.
          5    1    3    3  502    0 -0.10431685829E+03 -0.17107681628E+03  0.76203595785E+02  0.21441488848E+03  0.41800000000E+01 0. -1.
         -5    1    3    3    0  502  0.29439426927E+02 -0.60538350435E+02  0.64455881261E+02  0.93293112073E+02  0.41800000000E+01 0. -1.
        -11    1    1    2    0    0 -0.15298241281E+02  0.83480757922E+02  0.47933470664E+02  0.97471486802E+02  0.00000000000E+00 0.  1.
         11    1    1    2    0    0  0.90175672642E+02  0.14813440879E+03  0.16084653663E+03  0.23653131579E+03  0.00000000000E+00 0. -1.
</event>
<event>
 7    1  0.2384639E-009  0.1034459E+03  0.7561462E-02  0.1273212E+00
         -4   -1    0    0    0  501 -0.00000000000E+00  0.00000000000E+00  0.79125436060E+02  0.79125436060E+02  0.00000000000E+00 0.  1.
          4   -1    0    0  501    0  0.00000000000E+00 -0.00000000000E+00 -0.17341355938E+03  0.17341355938E+03  0.00000000000E+00 0. -1.
         25    2    1    2    0    0 -0.21190517118E+02 -0.39579842715E+02 -0.65673443912E+02  0.14824546441E+03  0.12509242390E+03 0.  0.
          5    1    3    3  502    0 -0.13678736439E+02 -0.76560413471E+02 -0.76081350106E+02  0.10887813819E+03  0.41800000000E+01 0. -1.
         -5    1    3    3    0  502 -0.75117806793E+01  0.36980570757E+02  0.10407906194E+02  0.39367326221E+02  0.41800000000E+01 0. -1.
        -11    1    1    2    0    0 -0.25020315267E+02  0.37118522702E+02 -0.35984299963E+02  0.57434055642E+02  0.00000000000E+00 0.  1.
         11    1    1    2    0    0  0.46210832386E+02  0.24613200120E+01  0.73696205607E+01  0.46859475383E+02  0.00000000000E+00 0. -1.
</event>
<event>
 7    1  0.2384639E-009  0.7694005E+02  0.7561462E-02  0.1337966E+00
          1   -1    0    0  501    0  0.00000000000E+00  0.00000000000E+00  0.10545861173E+03  0.10545861173E+03  0.00000000000E+00 0. -1.
         -1   -1    0    0    0  501 -0.00000000000E+00 -0.00000000000E+00 -0.15323722924E+03  0.15323722924E+03  0.00000000000E+00 0.  1.
         25    2    1    2    0    0 -0.15417398457E+01 -0.63205137534E+02 -0.10632939410E+02  0.14056256993E+03  0.12509000876E+03 0.  0.
          5    1    3    3  502    0  0.16983098933E+02 -0.12674050435E+02  0.52931669603E+02  0.57168971049E+02  0.41800000000E+01 0. -1.
         -5    1    3    3    0  502 -0.18524838779E+02 -0.50531087099E+02 -0.63564609013E+02  0.83393598880E+02  0.41800000000E+01 0. -1.
        -11    1    1    2    0    0  0.10233478624E+02 -0.36622994069E+01  0.24480282237E+02  0.26784710939E+02  0.00000000000E+00 0. -1.
         11    1    1    2    0    0 -0.86917387783E+01  0.66867436941E+02 -0.61625960331E+02  0.91348560102E+02  0.00000000000E+00 0.  1.
</event>
<event>
 7    1  0.2384639E-009  0.6724099E+02  0.7561462E-02  0.1369735E+00
          2   -1    0    0  501    0  0.00000000000E+00  0.00000000000E+00  0.81442399111E+02  0.81442399111E+02  0.00000000000E+00 0. -1.
         -2   -1    0    0    0  501 -0.00000000000E+00 -0.00000000000E+00 -0.25653136155E+03  0.25653136155E+03  0.00000000000E+00 0.  1.
         25    2    1    2    0    0  0.44665715773E+02 -0.80607339155E+00  0.26401641629E+01  0.13286962499E+03  0.12510671788E+03 0.  0.
          5    1    3    3  502    0  0.30408803330E+02  0.11144228144E+02  0.62244246963E+02  0.70290168736E+02  0.41800000000E+01 0.  1.
         -5    1    3    3    0  502  0.14256912443E+02 -0.11950301536E+02 -0.59604082800E+02  0.62579456259E+02  0.41800000000E+01 0.  1.
        -11    1    1    2    0    0 -0.63682582837E+02  0.19091303369E+01 -0.65891712536E+02  0.91656063173E+02  0.00000000000E+00 0. -1.
         11    1    1    2    0    0  0.19016867064E+02 -0.11030569454E+01 -0.11183741407E+03  0.11344807249E+03  0.00000000000E+00 0.  1.
</event>
<event>
 7    1  0.2384639E-009  0.1858522E+03  0.7561462E-02  0.1162256E+00
         -2   -1    0    0    0  501 -0.00000000000E+00  0.00000000000E+00  0.26542132556E+03  0.26542132556E+03  0.00000000000E+00 0.  1.
          2   -1    0    0  501    0  0.00000000000E+00 -0.00000000000E+00 -0.13459497354E+03  0.13459497354E+03  0.00000000000E+00 0. -1.
         25    2    1    2    0    0  0.12767086420E+03 -0.83852629801E+02  0.99935493904E+02  0.22128173142E+03  0.12508952245E+03 0.  0.
          5    1    3    3  502    0 -0.68223115240E+01 -0.59232934563E+02  0.40096845878E+02  0.71974397676E+02  0.41800000000E+01 0.  1.
         -5    1    3    3    0  502  0.13449317573E+03 -0.24619695238E+02  0.59838648026E+02  0.14930733374E+03  0.41800000000E+01 0.  1.
        -11    1    1    2    0    0 -0.13618958687E+03  0.58186779524E+02  0.32576342932E+02  0.15163945068E+03  0.00000000000E+00 0.  1.
         11    1    1    2    0    0  0.85187226674E+01  0.25665850277E+02 -0.16854848124E+01  0.27095117003E+02  0.00000000000E+00 0. -1.
</event>
<event>
 7    1  0.2384639E-009  0.3350422E+03  0.7561462E-02  0.1068927E+00
          4   -1    0    0  501    0  0.00000000000E+00  0.00000000000E+00  0.22129196867E+04  0.22129196867E+04  0.00000000000E+00 0. -1.
         -4   -1    0    0    0  501 -0.00000000000E+00 -0.00000000000E+00 -0.61501849592E+02  0.61501849592E+02  0.00000000000E+00 0.  1.
         25    2    1    2    0    0 -0.21761016625E+03  0.23528088179E+03  0.15547522808E+04  0.15923608734E+04  0.12508884382E+03 0.  0.
          5    1    3    3  502    0 -0.22502359758E+03  0.18478717579E+03  0.13724679265E+04  0.14030208842E+04  0.41800000000E+01 0.  1.
         -5    1    3    3    0  502  0.74134313263E+01  0.50493706001E+02  0.18228435425E+03  0.18933998921E+03  0.41800000000E+01 0.  1.
        -11    1    1    2    0    0  0.14177125144E+03 -0.19703453520E+03  0.40085371319E+03  0.46862073703E+03  0.00000000000E+00 0.  1.
         11    1    1    2    0    0  0.75838914815E+02 -0.38246346584E+02  0.19581184317E+03  0.21343992586E+03  0.00000000000E+00 0. -1.
</event>
<event>
 7    1  0.2384639E-009  0.1079367E+03  0.7561462E-02  0.1264439E+00
          2   -1    0    0  501    0  0.00000000000E+00  0.00000000000E+00  0.15574454902E+03  0.15574454902E+03  0.00000000000E+00 0.  1.
         -2   -1    0    0    0  501 -0.00000000000E+00 -0.00000000000E+00 -0.11187854771E+03  0.11187854771E+03  0.00000000000E+00 0. -1.
         25    2    1    2    0    0 -0.33425566287E+02  0.10883813934E+02 -0.43181341966E+02  0.13693078096E+03  0.12509869941E+03 0.  0.
          5    1    3    3  502    0  0.22596123532E+02  0.47391611302E+02 -0.45921169583E+02  0.69876861953E+02  0.41800000000E+01 0. -1.
         -5    1    3    3    0  502 -0.56021689819E+02 -0.36507797368E+02  0.27398276172E+01  0.67053919007E+02  0.41800000000E+01 0. -1.
        -11    1    1    2    0    0  0.94606142409E+01 -0.49697740393E+02  0.56248533771E+02  0.75652271436E+02  0.00000000000E+00 0. -1.
         11    1    1    2    0    0  0.23964952046E+02  0.38813926459E+02  0.30798809504E+02  0.55040044337E+02  0.00000000000E+00 0.  1.
</event>
<event>
 7    1  0.2384639E-009  0.1841178E+03  0.7561462E-02  0.1163876E+00
         -1   -1    0    0    0  501 -0.00000000000E+00  0.00000000000E+00  0.59045129701E+03  0.59045129701E+03  0.00000000000E+00 0.  1.
          1   -1    0    0  501    0  0.00000000000E+00 -0.00000000000E+00 -0.62787863972E+02  0.62787863972E+02  0.00000000000E+00 0. -1.
         25    2    1    2    0    0  0.11525337235E+03 -0.94862805525E+02  0.36831160795E+03  0.41663302352E+03  0.12508934416E+03 0.  0.
          5    1    3    3  502    0  0.19273707273E+02 -0.96257512069E+02  0.19984071722E+03  0.22268984953E+03  0.41800000000E+01 0. -1.
         -5    1    3    3    0  502  0.95979665076E+02  0.13947065435E+01  0.16847089073E+03  0.19394317399E+03  0.41800000000E+01 0. -1.
        -11    1    1    2    0    0 -0.53686792631E+02 -0.77390509769E+01  0.61765858590E+02  0.82202103990E+02  0.00000000000E+00 0.  1.
         11    1    1    2    0    0 -0.61566579719E+02  0.10260185650E+03  0.97585966493E+02  0.15440403347E+03  0.00000000000E+00 0. -1.
</event>
<event>
 7    1  0.2384639E-009  0.1150630E+03  0.7561462E-02  0.1251471E+00
         -1   -1    0    0    0  501 -0.00000000000E+00  0.00000000000E+00  0.21798383858E+02  0.21798383858E+02  0.00000000000E+00 0.  1.
          1   -1    0    0  501    0  0.00000000000E+00 -0.00000000000E+00 -0.64308362317E+03  0.64308362317E+03  0.00000000000E+00 0. -1.
         25    2    1    2    0    0  0.41587094695E+02 -0.25982121785E+02 -0.36898966451E+03  0.39268930069E+03  0.12508779823E+03 0.  0.
          5    1    3    3  502    0  0.55656688194E+01  0.46472144426E+02 -0.19764115198E+03  0.20315052112E+03  0.41800000000E+01 0.  1.
         -5    1    3    3    0  502  0.36021425875E+02 -0.72454266211E+02 -0.17134851253E+03  0.18953877957E+03  0.41800000000E+01 0.  1.
        -11    1    1    2    0    0 -0.46956194902E+02  0.55163252728E+02 -0.18251484447E+03  0.19636582479E+03  0.00000000000E+00 0. -1.
         11    1    1    2    0    0  0.53691002074E+01 -0.29181130943E+02 -0.69780730333E+02  0.75826881553E+02  0.00000000000E+00 0.  1.
</event>
<event>
 7    1  0.2384639E-009  0.8151268E+02  0.7561462E-02  0.1324813E+00
         -2   -1    0    0    0  501 -0.00000000000E+00  0.00000000000E+00  0.39684717977E+02  0.39684717977E+02  0.00000000000E+00 0.  1.
          2   -1    0    0  501    0  0.00000000000E+00 -0.00000000000E+00 -0.39816153421E+03  0.39816153421E+03  0.00000000000E+00 0. -1.
         25    2    1    2    0    0 -0.50390090383E+02 -0.32972644086E+02 -0.17096358794E+03  0.22023731214E+03  0.12509823656E+03 0.  0.
          5    1    3    3  502    0 -0.38469832416E+02 -0.98916788419E+01  0.68188228975E+01  0.40518416333E+02  0.41800000000E+01 0.  1.
         -5    1    3    3    0  502 -0.11920257968E+02 -0.23080965244E+02 -0.17778241084E+03  0.17971889581E+03  0.41800000000E+01 0.  1.
        -11    1    1    2    0    0 -0.74611272976E+01  0.37979885116E+02 -0.27764879455E+02  0.47634321924E+02  0.00000000000E+00 0.  1.
         11    1    1    2    0    0  0.57851217681E+02 -0.50072410296E+01 -0.15974834884E+03  0.16997461813E+03  0.00000000000E+00 0. -1.
</event>
<event>
 7    1  0.2384639E-009  0.8072280E+02  0.7561462E-02  0.1327013E+00
          2   -1    0    0  501    0  0.00000000000E+00  0.00000000000E+00  0.41379317611E+03  0.41379317611E+03  0.00000000000E+00 0. -1.
         -2   -1    0    0    0  501 -0.00000000000E+00 -0.00000000000E+00 -0.37835231447E+02  0.37835231447E+02  0.00000000000E+00 0.  1.
         25    2    1    2    0    0 -0.56695578237E+02  0.76271079848E+01  0.19507178348E+03  0.23868642021E+03  0.12508255320E+03 0.  0.
          5    1    3    3  502    0 -0.46015852098E+02  0.29946965206E+02  0.15266607176E+02  0.57138612724E+02  0.41800000000E+01 0. -1.
         -5    1    3    3    0  502 -0.10679726138E+02 -0.22319857221E+02  0.17980517631E+03  0.18154780749E+03  0.41800000000E+01 0. -1.
        -11    1    1    2    0    0  0.49364852362E+02  0.19585059482E+02  0.17662844828E+03  0.18443988708E+03  0.00000000000E+00 0. -1.
         11    1    1    2    0    0  0.73307258748E+01 -0.27212167467E+02  0.42577128927E+01  0.28502100259E+02  0.00000000000E+00 0.  1.
</event>
<event>
 7    1  0.2384639E-009  0.7314816E+02  0.7561462E-02  0.1349703E+00
          2   -1    0    0  501    0  0.00000000000E+00  0.00000000000E+00  0.42864871324E+02  0.42864871324E+02  0.00000000000E+00 0. -1.
         -2   -1    0    0    0  501 -0.00000000000E+00 -0.00000000000E+00 -0.30316815048E+03  0.30316815048E+03  0.00000000000E+00 0.  1.
         25    2    1    2    0    0 -0.12339821609E+02  0.17409373447E+02 -0.10478004319E+03  0.16456487261E+03  0.12508949742E+03 0.  0.
          5    1    3    3  502    0  0.21136260070E+02 -0.42122841869E+01 -0.11978296595E+03  0.12177814319E+03  0.41800000000E+01 0.  1.
         -5    1    3    3    0  502 -0.33476081679E+02  0.21621657634E+02  0.15002922754E+02  0.42786729422E+02  0.41800000000E+01 0.  1.
        -11    1    1    2    0    0 -0.31656634996E+02 -0.24078867094E+02 -0.11348223835E+03  0.12025037547E+03  0.00000000000E+00 0.  1.
         11    1    1    2    0    0  0.43996456606E+02  0.66694936470E+01 -0.42040997621E+02  0.61217773729E+02  0.00000000000E+00 0. -1.
</event>
<event>
 7    1  0.2384639E-009  0.1403092E+03  0.7561462E-02  0.1212913E+00
         -2   -1    0    0    0  501 -0.00000000000E+00  0.00000000000E+00  0.45565695559E+02  0.45565695559E+02  0.00000000000E+00 0.  1.
          2   -1    0    0  501    0  0.00000000000E+00 -0.00000000000E+00 -0.54023764429E+03  0.54023764429E+03  0.00000000000E+00 0. -1.
         25    2    1    2    0    0 -0.11200792013E+03 -0.93314693814E+01 -0.23753857867E+03  0.29104103016E+03  0.12508978529E+03 0.  0.
          5    1    3    3  502    0 -0.28271028892E+02 -0.51931576353E+02 -0.37887383083E+02  0.70349597682E+02  0.41800000000E+01 0.  1.
         -5    1    3    3    0  502 -0.83736891238E+02  0.42600106972E+02 -0.19965119559E+03  0.22069143248E+03  0.41800000000E+01 0.  1.
        -11    1    1    2    0    0  0.91927818787E+02 -0.17709759782E+02 -0.11298343617E+03  0.14672973900E+03  0.00000000000E+00 0.  1.
         11    1    1    2    0    0  0.20080101342E+02  0.27041229163E+02 -0.14414993389E+03  0.14803257069E+03  0.00000000000E+00 0. -1.
</event>
<event>
 7    1  0.2384639E-009  0.7250338E+02  0.7561462E-02  0.1351781E+00
         -1   -1    0    0    0  501 -0.00000000000E+00  0.00000000000E+00  0.23606838884E+03  0.23606838884E+03  0.00000000000E+00 0.  1.
          1   -1    0    0  501    0  0.00000000000E+00 -0.00000000000E+00 -0.60115882990E+02  0.60115882990E+02  0.00000000000E+00 0. -1.
         25    2    1    2    0    0 -0.35385695754E+02 -0.22154013310E+02  0.66301425627E+02  0.14760645786E+03  0.12509532202E+03 0.  0.
          5    1    3    3  502    0 -0.24716651404E+02  0.31407022592E+01 -0.34663158560E+02  0.42892701345E+02  0.41800000000E+01 0. -1.
         -5    1    3    3    0  502 -0.10669044350E+02 -0.25294715569E+02  0.10096458419E+03  0.10471375651E+03  0.41800000000E+01 0. -1.
        -11    1    1    2    0    0  0.46848269761E+01  0.50183972671E+02  0.29798470592E+02  0.58551921971E+02  0.00000000000E+00 0. -1.
         11    1    1    2    0    0  0.30700868778E+02 -0.28029959361E+02  0.79852609630E+02  0.90025891999E+02  0.00000000000E+00 0.  1.
</event>
<event>
 7    1  0.2384639E-009  0.1136226E+03  0.7561462E-02  0.1254005E+00
          1   -1    0    0  501    0  0.00000000000E+00  0.00000000000E+00  0.36221514695E+03  0.36221514695E+03  0.00000000000E+00 0. -1.
         -1   -1    0    0    0  501 -0.00000000000E+00 -0.00000000000E+00 -0.67354493038E+02  0.67354493038E+02  0.00000000000E+00 0.  1.
         25    2    1    2    0    0 -0.32888516621E+02  0.51302360792E+02  0.28880580696E+03  0.32057931961E+03  0.12509484113E+03 0.  0.
          5    1    3    3  502    0 -0.76604564919E+02  0.40343098171E+02  0.23376674014E+03  0.24931944596E+03  0.41800000000E+01 0. -1.
         -5    1    3    3    0  502  0.43716048298E+02  0.10959262621E+02  0.55039066820E+02  0.71259873648E+02  0.41800000000E+01 0. -1.
        -11    1    1    2    0    0  0.68944630191E+01 -0.65379887392E+02  0.28718234381E+02  0.71741203514E+02  0.00000000000E+00 0. -1.
         11    1    1    2    0    0  0.25994053602E+02  0.14077526600E+02 -0.22663387428E+02  0.37249116870E+02  0.00000000000E+00 0.  1.
</event>
<event>
 7    1  0.2384639E-009  0.1052189E+03  0.7561462E-02  0.1269689E+00
         -2   -1    0    0    0  501 -0.00000000000E+00  0.00000000000E+00  0.20832201128E+02  0.20832201128E+02  0.00000000000E+00 0.  1.
          2   -1    0    0  501    0  0.00000000000E+00 -0.00000000000E+00 -0.75472382881E+03  0.75472382881E+03  0.00000000000E+00 0. -1.
         25    2    1    2    0    0  0.33958334741E+02 -0.33244508699E+02 -0.55531705254E+03  0.57120815801E+03  0.12507343873E+03 0.  0.
          5    1    3    3  502    0 -0.44348740163E+02 -0.32669655862E+02 -0.24226038523E+03  0.24847873917E+03  0.41800000000E+01 0. -1.
         -5    1    3    3    0  502  0.78307074903E+02 -0.57485283689E+00 -0.31305666731E+03  0.32272941884E+03  0.41800000000E+01 0. -1.
        -11    1    1    2    0    0 -0.22820086046E+02  0.50967826712E+02 -0.17424138851E+03  0.18297141077E+03  0.00000000000E+00 0. -1.
         11    1    1    2    0    0 -0.11138248694E+02 -0.17723318013E+02 -0.43331866246E+01  0.21376461159E+02  0.00000000000E+00 0.  1.
</event>
<event>
 7    1  0.2384639E-009  0.9620970E+02  0.7561462E-02  0.1288475E+00
         -2   -1    0    0    0  501 -0.00000000000E+00  0.00000000000E+00  0.47547289510E+02  0.47547289510E+02  0.00000000000E+00 0.  1.
          2   -1    0    0  501    0  0.00000000000E+00 -0.00000000000E+00 -0.27359383090E+03  0.27359383090E+03  0.00000000000E+00 0. -1.
         25    2    1    2    0    0  0.32097957081E+02  0.17938607421E+02 -0.12604294532E+03  0.18134534830E+03  0.12508892356E+03 0.  0.
          5    1    3    3  502    0 -0.17187493494E+02  0.46418553864E+02 -0.11206773337E+03  0.12258360958E+03  0.41800000000E+01 0.  1.
         -5    1    3    3    0  502  0.49285450575E+02 -0.28479946443E+02 -0.13975211956E+02  0.58761738716E+02  0.41800000000E+01 0.  1.
        -11    1    1    2    0    0 -0.56274374689E+02 -0.23296801864E+02 -0.35025573436E+02  0.70259070718E+02  0.00000000000E+00 0.  1.
         11    1    1    2    0    0  0.24176417608E+02  0.53581944426E+01 -0.64978022634E+02  0.69536701399E+02  0.00000000000E+00 0. -1.
</event>
<event>
 7    1  0.2384639E-009  0.8625762E+02  0.7561462E-02  0.1312176E+00
          2   -1    0    0  501    0  0.00000000000E+00  0.00000000000E+00  0.12188685334E+04  0.12188685334E+04  0.00000000000E+00 0. -1.
         -2   -1    0    0    0  501 -0.00000000000E+00 -0.00000000000E+00 -0.12475057992E+02  0.12475057992E+02  0.00000000000E+00 0.  1.
         25    2    1    2    0    0 -0.29718310961E+02  0.46917260328E+01  0.94802281038E+03  0.95671293032E+03  0.12508873549E+03 0.  0.
          5    1    3    3  502    0 -0.15862209640E+02  0.41365544773E+02  0.12392081171E+03  0.13166836357E+03  0.41800000000E+01 0.  1.
         -5    1    3    3    0  502 -0.13856101321E+02 -0.36673818740E+02  0.82410199867E+03  0.82504456676E+03  0.41800000000E+01 0.  1.
        -11    1    1    2    0    0 -0.19484682885E+02  0.24558180217E+02  0.13552844370E+03  0.13910685150E+03  0.00000000000E+00 0. -1.
         11    1    1    2    0    0  0.49202993846E+02 -0.29249906250E+02  0.12284222133E+03  0.13552380957E+03  0.00000000000E+00 0.  1.
</event>
<event>
 7    1  0.2384639E-009  0.1396827E+03  0.7561462E-02  0.1213757E+00
         -4   -1    0    0    0  501 -0.00000000000E+00  0.00000000000E+00  0.56986391484E+03  0.56986391484E+03  0.00000000000E+00 0. -1.
          4   -1    0    0  501    0  0.00000000000E+00 -0.00000000000E+00 -0.43648478314E+02  0.43648478314E+02  0.00000000000E+00 0.  1.
         25    2    1    2    0    0 -0.78692517087E+02  0.82088557221E+02  0.32861091877E+03  0.36954592276E+03  0.12509200465E+03 0.  0.
          5    1    3    3  502    0 -0.72767097136E+01  0.75633597527E+02  0.25735119225E+03  0.26836635432E+03  0.41800000000E+01 0. -1.
         -5    1    3    3    0  502 -0.71415807374E+02  0.64549596945E+01  0.71259726520E+02  0.10117956845E+03  0.41800000000E+01 0. -1.
        -11    1    1    2    0    0  0.71486391314E+02 -0.27843458069E+02  0.65131947715E+02  0.10063663803E+03  0.00000000000E+00 0.  1.
         11    1    1    2    0    0  0.72061257730E+01 -0.54245099153E+02  0.13247257005E+03  0.14332983237E+03  0.00000000000E+00 0. -1.
</event>
<event>
 7    1  0.2384639E-009  0.1298728E+03  0.7561462E-02  0.1227645E+00
         -2   -1    0    0    0  501 -0.00000000000E+00  0.00000000000E+00  0.34976539537E+02  0.34976539537E+02  0.00000000000E+00 0.  1.
          2   -1    0    0  501    0  0.00000000000E+00 -0.00000000000E+00 -0.77056895208E+03  0.77056895208E+03  0.00000000000E+00 0. -1.
         25    2    1    2    0    0  0.78363601471E+02 -0.67846715219E+02 -0.55650607706E+03  0.57973280247E+03  0.12508827942E+03 0.  0.
          5    1    3    3  502    0  0.64373651159E+02 -0.10040791727E+03 -0.34074520005E+03  0.36104082951E+03  0.41800000000E+01 0. -1.
         -5    1    3    3    0  502  0.13989950313E+02  0.32561202052E+02 -0.21576087701E+03  0.21869197296E+03  0.41800000000E+01 0. -1.
        -11    1    1    2    0    0 -0.31046764362E+02  0.36685779574E+02 -0.15834789829E+03  0.16548052723E+03  0.00000000000E+00 0. -1.
         11    1    1    2    0    0 -0.47316837109E+02  0.31160935645E+02 -0.20738437191E+02  0.60332161915E+02  0.00000000000E+00 0.  1.
</event>
<event>
 7    1  0.2384639E-009  0.1065716E+03  0.7561462E-02  0.1267054E+00
          2   -1    0    0  501    0  0.00000000000E+00  0.00000000000E+00  0.64762021434E+03  0.64762021434E+03  0.00000000000E+00 0.  1.
         -2   -1    0    0    0  501 -0.00000000000E+00 -0.00000000000E+00 -0.28989912301E+02  0.28989912301E+02  0.00000000000E+00 0. -1.
         25    2    1    2    0    0 -0.37473874528E+01  0.82712565152E+01  0.54251295950E+03  0.55682286615E+03  0.12509570912E+03 0.  0.
          5    1    3    3  502    0 -0.62233761128E+02  0.85475941015E+01  0.21206482340E+03  0.22121271236E+03  0.41800000000E+01 0.  1.
         -5    1    3    3    0  502  0.58486373675E+02 -0.27633758627E+00  0.33044813610E+03  0.33561015378E+03  0.41800000000E+01 0.  1.
        -11    1    1    2    0    0  0.30366323256E+02 -0.39944633447E+02  0.50139814536E+02  0.70934394556E+02  0.00000000000E+00 0. -1.
         11    1    1    2    0    0 -0.26618935803E+02  0.31673376932E+02  0.25977528008E+02  0.48852865944E+02  0.00000000000E+00 0.  1.
</event>
<event>
 7    1  0.2384639E-009  0.8562389E+02  0.7561462E-02  0.1313809E+00
          1   -1    0    0  501    0  0.00000000000E+00  0.00000000000E+00  0.51456423523E+03  0.51456423523E+03  0.00000000000E+00 0. -1.
         -1   -1    0    0    0  501 -0.00000000000E+00 -0.00000000000E+00 -0.48585716704E+02  0.48585716704E+02  0.00000000000E+00 0.  1.
         25    2    1    2    0    0  0.15912721609E+02 -0.41849935785E+02  0.44023695626E+03  0.45984836699E+03  0.12508921269E+03 0.  0.
          5    1    3    3  502    0 -0.50238065840E+02 -0.27192945560E+02  0.12668212185E+03  0.13902932044E+03  0.41800000000E+01 0.  1.
         -5    1    3    3    0  502  0.66150787450E+02 -0.14656990225E+02  0.31355483442E+03  0.32081904655E+03  0.41800000000E+01 0.  1.
        -11    1    1    2    0    0 -0.76136466825E+01  0.33342602139E+02 -0.30495634181E+02  0.45822270102E+02  0.00000000000E+00 0.  1.
         11    1    1    2    0    0 -0.82990749270E+01  0.85073336456E+01  0.56237196443E+02  0.57479314837E+02  0.00000000000E+00 0. -1.
</event>
<event>
 7    1  0.2384639E-009  0.1066148E+03  0.7561462E-02  0.1266970E+00
          2   -1    0    0  501    0  0.00000000000E+00  0.00000000000E+00  0.13436831681E+04  0.13436831681E+04  0.00000000000E+00 0. -1.
         -2   -1    0    0    0  501 -0.00000000000E+00 -0.00000000000E+00 -0.20587404330E+02  0.20587404330E+02  0.00000000000E+00 0.  1.
         25    2    1    2    0    0 -0.65060377806E+02 -0.81606430398E+02  0.99544927745E+03  0.10086917516E+04  0.12508926189E+03 0.  0.
          5    1    3    3  502    0 -0.52947398718E+02 -0.58718260049E+02  0.23870844817E+03  0.25149643481E+03  0.41800000000E+01 0.  1.
         -5    1    3    3    0  502 -0.12112979089E+02 -0.22888170349E+02  0.75674082928E+03  0.75719531675E+03  0.41800000000E+01 0.  1.
        -11    1    1    2    0    0  0.14463914784E+01  0.17328775385E+02  0.18771610700E+01  0.17490061130E+02  0.00000000000E+00 0.  1.
         11    1    1    2    0    0  0.63613986328E+02  0.64277655013E+02  0.32576932524E+03  0.33808875973E+03  0.00000000000E+00 0. -1.
</event>
<event>
 7    1  0.2384639E-009  0.1071811E+03  0.7561462E-02  0.1265881E+00
          2   -1    0    0  501    0  0.00000000000E+00  0.00000000000E+00  0.37026950039E+03  0.37026950039E+03  0.00000000000E+00 0. -1.
         -2   -1    0    0    0  501 -0.00000000000E+00 -0.00000000000E+00 -0.32817448205E+02  0.32817448205E+02  0.00000000000E+00 0.  1.
         25    2    1    2    0    0  0.17356743393E+02 -0.11989744350E+02  0.20660727473E+03  0.24244206291E+03  0.12508627977E+03 0.  0.
          5    1    3    3  502    0  0.24556035747E+02 -0.65877002792E+02  0.95339090418E+02  0.11853182252E+03  0.41800000000E+01 0.  1.
         -5    1    3    3    0  502 -0.71992923542E+01  0.53887258442E+02  0.11126818431E+03  0.12391024039E+03  0.41800000000E+01 0.  1.
        -11    1    1    2    0    0 -0.28654065773E+02 -0.32602912668E+02  0.40997475195E+02  0.59705932470E+02  0.00000000000E+00 0.  1.
         11    1    1    2    0    0  0.11297322380E+02  0.44592657018E+02  0.89847302258E+02  0.10093895321E+03  0.00000000000E+00 0. -1.
</event>
<event>
 7    1  0.2384639E-009  0.1692458E+03  0.7561462E-02  0.1178637E+00
         -1   -1    0    0    0  501 -0.00000000000E+00  0.00000000000E+00  0.57209037790E+02  0.57209037790E+02  0.00000000000E+00 0.  1.
          1   -1    0    0  501    0  0.00000000000E+00 -0.00000000000E+00 -0.59893919407E+03  0.59893919407E+03  0.00000000000E+00 0. -1.
         25    2    1    2    0    0 -0.11134202498E+03 -0.78389413211E+02 -0.17450582145E+03  0.25424843105E+03  0.12509211142E+03 0.  0.
          5    1    3    3  502    0 -0.80966202130E+02 -0.11199111096E+03 -0.14304921720E+03  0.19894241821E+03  0.41800000000E+01 0. -1.
         -5    1    3    3    0  502 -0.30375822846E+02  0.33601697747E+02 -0.31456604250E+02  0.55306012838E+02  0.41800000000E+01 0. -1.
        -11    1    1    2    0    0  0.74418887698E+02  0.89300290976E+02 -0.20996431107E+03  0.23999525983E+03  0.00000000000E+00 0.  1.
         11    1    1    2    0    0  0.36923137279E+02 -0.10910877765E+02 -0.15726002376E+03  0.16190454099E+03  0.00000000000E+00 0. -1.
</event>
<event>
 7    1  0.2384639E-009  0.1246569E+03  0.7561462E-02  0.1235606E+00
         -2   -1    0    0    0  501 -0.00000000000E+00  0.00000000000E+00  0.56820247811E+02  0.56820247811E+02  0.00000000000E+00 0.  1.
          2   -1    0    0  501    0  0.00000000000E+00 -0.00000000000E+00 -0.32884085216E+03  0.32884085216E+03  0.00000000000E+00 0. -1.
         25    2    1    2    0    0  0.49948750063E+02  0.68454620802E+02 -0.14563669427E+03  0.20985256630E+03  0.12508852914E+03 0.  0.
          5    1    3    3  502    0  0.81366792012E+02  0.67999066896E+01 -0.79873608991E+02  0.11429811629E+03  0.41800000000E+01 0.  1.
         -5    1    3    3    0  502 -0.31418041950E+02  0.61654714112E+02 -0.65763085279E+02  0.95554450015E+02  0.41800000000E+01 0.  1.
        -11    1    1    2    0    0 -0.24333258357E+02 -0.68418275946E+02 -0.34452323740E+02  0.80374937368E+02  0.00000000000E+00 0.  1.
         11    1    1    2    0    0 -0.25615491705E+02 -0.36344855500E-01 -0.91931586341E+02  0.95433596303E+02  0.00000000000E+00 0. -1.
</event>
<event>
 7    1  0.2965462E-009  0.1343171E+03  0.7561462E-02  0.1221187E+00
          2   -1    0    0  501    0  0.00000000000E+00  0.00000000000E+00  0.12209710362E+04  0.12209710362E+04  0.00000000000E+00 0. -1.
         -2   -1    0    0    0  501 -0.00000000000E+00 -0.00000000000E+00 -0.18969962699E+02  0.18969962699E+02  0.00000000000E+00 0.  1.
         25    2    1    2    0    0  0.73787941739E+01 -0.10473160793E+03  0.72076296828E+03  0.73903329516E+03  0.12509116120E+03 0.  0.
          5    1    3    3  502    0 -0.45049771222E+02 -0.87924185522E+02  0.56921994365E+03  0.57774471953E+03  0.41800000000E+01 0.  1.
         -5    1    3    3    0  502  0.52428565396E+02 -0.16807422404E+02  0.15154302462E+03  0.16128857563E+03  0.41800000000E+01 0.  1.
        -11    1    1    2    0    0  0.89188310829E+01  0.95281347086E+02  0.46848133340E+03  0.47815566544E+03  0.00000000000E+00 0. -1.
         11    1    1    2    0    0 -0.16297625257E+02  0.94502608407E+01  0.12756771805E+02  0.22752038279E+02  0.00000000000E+00 0.  1.
</event>
<event>
 7    1  0.2384639E-009  0.6329651E+02  0.7561462E-02  0.1384496E+00
          2   -1    0    0  501    0  0.00000000000E+00  0.00000000000E+00  0.64179835718E+03  0.64179835718E+03  0.00000000000E+00 0. -1.
         -2   -1    0    0    0  501 -0.00000000000E+00 -0.00000000000E+00 -0.18190621095E+02  0.18190621095E+02  0.00000000000E+00 0.  1.
         25    2    1    2    0    0 -0.26254553341E+02  0.26622365652E+01  0.39355533629E+03  0.41379744693E+03  0.12508451260E+03 0.  0.
          5    1    3    3  502    0  0.13592009011E+01  0.92940962364E+01 -0.68567361323E+01  0.12357786304E+02  0.41800000000E+01 0.  1.
         -5    1    3    3    0  502 -0.27613754242E+02 -0.66318596712E+01  0.40041207242E+03  0.40143966063E+03  0.41800000000E+01 0.  1.
        -11    1    1    2    0    0  0.56336785249E+02 -0.84680874196E+01  0.14507338462E+03  0.15585836135E+03  0.00000000000E+00 0.  1.
         11    1    1    2    0    0 -0.30082231908E+02  0.58058508545E+01  0.84979015175E+02  0.90333169992E+02  0.00000000000E+00 0. -1.
</event>
<event>
 7    1  0.2384639E-009  0.1257910E+03  0.7561462E-02  0.1233838E+00
          2   -1    0    0  501    0  0.00000000000E+00  0.00000000000E+00  0.98694496325E+02  0.98694496325E+02  0.00000000000E+00 0. -1.
         -2   -1    0    0    0  501 -0.00000000000E+00 -0.00000000000E+00 -0.19588305374E+03  0.19588305374E+03  0.00000000000E+00 0.  1.
         25    2    1    2    0    0 -0.57002720272E+01 -0.80085409338E+02 -0.61760626413E+02  0.16096677849E+03  0.12509901244E+03 0.  0.
          5    1    3    3  502    0  0.23836646963E+02 -0.10606232946E+03 -0.49774537896E+02  0.11963436167E+03  0.41800000000E+01 0.  1.
         -5    1    3    3    0  502 -0.29536918990E+02  0.25976920121E+02 -0.11986088517E+02  0.41332416822E+02  0.41800000000E+01 0.  1.
        -11    1    1    2    0    0 -0.26240935312E+02  0.60048862336E+02 -0.59798692146E+02  0.88714914959E+02  0.00000000000E+00 0.  1.
         11    1    1    2    0    0  0.31941207339E+02  0.20036547002E+02  0.24370761148E+02  0.44895856613E+02  0.00000000000E+00 0. -1.
</event>
<event>
 7    1  0.2384639E-009  0.1091941E+03  0.7561462E-02  0.1262070E+00
         -2   -1    0    0    0  501 -0.00000000000E+00  0.00000000000E+00  0.42252912330E+02  0.42252912330E+02  0.00000000000E+00 0.  1.
          2   -1    0    0  501    0  0.00000000000E+00 -0.00000000000E+00 -0.53211213725E+03  0.53211213725E+03  0.00000000000E+00 0. -1.
         25    2    1    2    0    0  0.41930644610E+02 -0.62012417208E+02 -0.13110422560E+03  0.19606156463E+03  0.12509236711E+03 0.  0.
          5    1    3    3  502    0 -0.20608264953E+02 -0.20082795035E+02  0.14196305203E+02  0.32357792295E+02  0.41800000000E+01 0.  1.
         -5    1    3    3    0  502  0.62538909563E+02 -0.41929622173E+02 -0.14530053081E+03  0.16370377234E+03  0.41800000000E+01 0.  1.
        -11    1    1    2    0    0  0.23966396168E+02  0.35582234951E+02 -0.81497498183E+02  0.92099542884E+02  0.00000000000E+00 0.  1.
         11    1    1    2    0    0 -0.65897040778E+02  0.26430182257E+02 -0.27725750113E+03  0.28620394206E+03  0.00000000000E+00 0. -1.
</event>
<event>
 7    1  0.2384639E-009  0.2392279E+03  0.7561462E-02  0.1120308E+00
         -2   -1    0    0    0  501 -0.00000000000E+00  0.00000000000E+00  0.31091509929E+02  0.31091509929E+02  0.00000000000E+00 0.  1.
          2   -1    0    0  501    0  0.00000000000E+00 -0.00000000000E+00 -0.18805620322E+04  0.18805620322E+04  0.00000000000E+00 0. -1.
         25    2    1    2    0    0  0.82026543479E+02 -0.19994908446E+03 -0.94250758096E+03  0.97502624681E+03  0.12509057356E+03 0.  0.
          5    1    3    3  502    0  0.20089618866E+02 -0.18463270909E+03 -0.70296869890E+03  0.72710060796E+03  0.41800000000E+01 0.  1.
         -5    1    3    3    0  502  0.61936924613E+02 -0.15316375367E+02 -0.23953888206E+03  0.24792563886E+03  0.41800000000E+01 0.  1.
        -11    1    1    2    0    0 -0.64182664462E+01  0.11437938641E+03 -0.35682405709E+03  0.37476291959E+03  0.00000000000E+00 0.  1.
         11    1    1    2    0    0 -0.75608277032E+02  0.85569698048E+02 -0.55013888424E+03  0.56186437574E+03  0.00000000000E+00 0. -1.
</event>
<event>
 7    1  0.2384639E-009  0.9880510E+02  0.7561462E-02  0.1282829E+00
          1   -1    0    0  501    0  0.00000000000E+00  0.00000000000E+00  0.16493430893E+03  0.16493430893E+03  0.00000000000E+00 0. -1.
         -1   -1    0    0    0  501 -0.00000000000E+00 -0.00000000000E+00 -0.77819268008E+02  0.77819268008E+02  0.00000000000E+00 0.  1.
         25    2    1    2    0    0 -0.33465910120E+02 -0.28376415431E+02  0.31506748273E+02  0.13623703359E+03  0.12507064421E+03 0.  0.
          5    1    3    3  502    0 -0.54127906876E+02  0.22396380254E+02  0.51128193852E+02  0.77865221748E+02  0.41800000000E+01 0. -1.
         -5    1    3    3    0  502  0.20661996756E+02 -0.50772795686E+02 -0.19621445578E+02  0.58371811847E+02  0.41800000000E+01 0. -1.
        -11    1    1    2    0    0 -0.90040481763E+01  0.39084806620E+02  0.47161294676E+02  0.61910279498E+02  0.00000000000E+00 0. -1.
         11    1    1    2    0    0  0.42469958297E+02 -0.10708391189E+02  0.84469979748E+01  0.44606263847E+02  0.00000000000E+00 0.  1.
</event>
<event>
 7    1  0.2384639E-009  0.1760405E+03  0.7561462E-02  0.1171691E+00
         -2   -1    0    0    0  501 -0.00000000000E+00  0.00000000000E+00  0.48334029215E+02  0.48334029215E+02  0.00000000000E+00 0.  1.
          2   -1    0    0  501    0  0.00000000000E+00 -0.00000000000E+00 -0.21073898869E+04  0.21073898869E+04  0.00000000000E+00 0. -1.
         25    2    1    2    0    0  0.14745910876E+03 -0.22846278145E+02 -0.19294388072E+04  0.19392400933E+04  0.12510750519E+03 0.  0.
          5    1    3    3  502    0  0.29315550883E-01 -0.40238457599E+02 -0.63995015676E+03  0.64122758040E+03  0.41800000000E+01 0. -1.
         -5    1    3    3    0  502  0.14742979321E+03  0.17392179454E+02 -0.12894886504E+04  0.12980125129E+04  0.41800000000E+01 0. -1.
        -11    1    1    2    0    0 -0.70605529731E+02 -0.22224233431E+02 -0.22937037669E+02  0.77493000182E+02  0.00000000000E+00 0.  1.
         11    1    1    2    0    0 -0.76853579033E+02  0.45070511576E+02 -0.10668001288E+03  0.13899082262E+03  0.00000000000E+00 0. -1.
</event>
<event>
 7    1  0.2384639E-009  0.7632884E+02  0.7561462E-02  0.1339805E+00
          1   -1    0    0  501    0  0.00000000000E+00  0.00000000000E+00  0.34666837130E+03  0.34666837130E+03  0.00000000000E+00 0. -1.
         -1   -1    0    0    0  501 -0.00000000000E+00 -0.00000000000E+00 -0.34233460654E+02  0.34233460654E+02  0.00000000000E+00 0.  1.
         25    2    1    2    0    0 -0.15442043088E+02 -0.98522521553E+01  0.17050832175E+03  0.21226471630E+03  0.12509076079E+03 0.  0.
          5    1    3    3  502    0  0.35784256466E+02 -0.14180862263E+02  0.51622616184E+01  0.39060609447E+02  0.41800000000E+01 0. -1.
         -5    1    3    3    0  502 -0.51226299554E+02  0.43286101080E+01  0.16534606013E+03  0.17320410686E+03  0.41800000000E+01 0. -1.
        -11    1    1    2    0    0 -0.19814687390E+02  0.17325638713E+02  0.46755310111E+01  0.26733128949E+02  0.00000000000E+00 0.  1.
         11    1    1    2    0    0  0.35256730478E+02 -0.74733865578E+01  0.13725105788E+03  0.14190398670E+03  0.00000000000E+00 0. -1.
</event>
<event>
 7    1  0.2384639E-009  0.8051717E+02  0.7561462E-02  0.1327590E+00
          1   -1    0    0  501    0  0.00000000000E+00  0.00000000000E+00  0.38273650915E+03  0.38273650915E+03  0.00000000000E+00 0. -1.
         -1   -1    0    0    0  501 -0.00000000000E+00 -0.00000000000E+00 -0.48326653974E+02  0.48326653974E+02  0.00000000000E+00 0.  1.
         25    2    1    2    0    0 -0.69240293031E+02 -0.32973925902E+02  0.13201224397E+03  0.19737618542E+03  0.12509447648E+03 0.  0.
          5    1    3    3  502    0 -0.14868671537E+02 -0.24701325949E+02  0.13878161725E+03  0.14180635594E+03  0.41800000000E+01 0. -1.
         -5    1    3    3    0  502 -0.54371621494E+02 -0.82725999534E+01 -0.67693732848E+01  0.55569829481E+02  0.41800000000E+01 0. -1.
        -11    1    1    2    0    0  0.22954857422E+02  0.12454606661E+02  0.11207615892E+01  0.26139984944E+02  0.00000000000E+00 0.  1.
         11    1    1    2    0    0  0.46285435609E+02  0.20519319242E+02  0.20127684962E+03  0.20754699276E+03  0.00000000000E+00 0. -1.
</event>
<event>
 7    1  0.2384639E-009  0.6954932E+02  0.7561462E-02  0.1361632E+00
         -1   -1    0    0    0  501 -0.00000000000E+00  0.00000000000E+00  0.32268041102E+02  0.32268041102E+02  0.00000000000E+00 0.  1.
          1   -1    0    0  501    0  0.00000000000E+00 -0.00000000000E+00 -0.37591356115E+03  0.37591356115E+03  0.00000000000E+00 0. -1.
         25    2    1    2    0    0  0.64520513939E+01  0.18276377483E+02 -0.18366680760E+03  0.22306218182E+03  0.12509031059E+03 0.  0.
          5    1    3    3  502    0  0.27258713693E+02 -0.11027544165E+02  0.57233544861E+01  0.30246874038E+02  0.41800000000E+01 0.  1.
         -5    1    3    3    0  502 -0.20806662299E+02  0.29303921648E+02 -0.18939016208E+03  0.19281530778E+03  0.41800000000E+01 0.  1.
        -11    1    1    2    0    0 -0.10949420056E+02 -0.44899982861E+02 -0.36973540901E+02  0.59185648491E+02  0.00000000000E+00 0. -1.
         11    1    1    2    0    0  0.44973686626E+01  0.26623605378E+02 -0.12300517155E+03  0.12593377194E+03  0.00000000000E+00 0.  1.
</event>
<event>
 7    1  0.2384639E-009  0.8164868E+02  0.7561462E-02  0.1324437E+00
          1   -1    0    0  501    0  0.00000000000E+00  0.00000000000E+00  0.11110361292E+03  0.11110361292E+03  0.00000000000E+00 0. -1.
         -1   -1    0    0    0  501 -0.00000000000E+00 -0.00000000000E+00 -0.15607629920E+03  0.15607629920E+03  0.00000000000E+00 0.  1.
         25    2    1    2    0    0 -0.71235493631E+00  0.53735230217E+02  0.26558148822E+02  0.13871068648E+03  0.12508931552E+03 0.  0.
          5    1    3    3  502    0 -0.11066993009E+02  0.18851979090E+02 -0.49510738714E+02  0.54283156668E+02  0.41800000000E+01 0.  1.
         -5    1    3    3    0  502  0.10354638072E+02  0.34883251127E+02  0.76068887536E+02  0.84427529810E+02  0.41800000000E+01 0.  1.
        -11    1    1    2    0    0  0.87933621411E+01 -0.78177528152E+02 -0.41606398167E+02  0.88995176802E+02  0.00000000000E+00 0.  1.
         11    1    1    2    0    0 -0.80810072048E+01  0.24442297934E+02 -0.29924436939E+02  0.39474048841E+02  0.00000000000E+00 0. -1.
</event>
<event>
 7    1  0.2384639E-009  0.9153375E+02  0.7561462E-02  0.1299179E+00
          4   -1    0    0  501    0  0.00000000000E+00  0.00000000000E+00  0.17807757751E+03  0.17807757751E+03  0.00000000000E+00 0. -1.
         -4   -1    0    0    0  501 -0.00000000000E+00 -0.00000000000E+00 -0.15832346655E+03  0.15832346655E+03  0.00000000000E+00 0.  1.
         25    2    1    2    0    0  0.40132809762E+02 -0.25721791386E+02 -0.10509873694E+03  0.17019143365E+03  0.12508847513E+03 0.  0.
          5    1    3    3  502    0  0.74524901756E+02  0.10031265035E+02 -0.91644434923E+02  0.11862024326E+03  0.41800000000E+01 0.  1.
         -5    1    3    3    0  502 -0.34392091994E+02 -0.35753056421E+02 -0.13454302016E+02  0.51571190387E+02  0.41800000000E+01 0.  1.
        -11    1    1    2    0    0 -0.23906834436E+02 -0.38726234967E+01 -0.10730078345E+02  0.26489026535E+02  0.00000000000E+00 0.  1.
         11    1    1    2    0    0 -0.16225975326E+02  0.29594414883E+02  0.13558292625E+03  0.13972058387E+03  0.00000000000E+00 0. -1.
</event>
<event>
 7    1  0.2384639E-009  0.1506283E+03  0.7561462E-02  0.1199703E+00
          2   -1    0    0  501    0  0.00000000000E+00  0.00000000000E+00  0.95326858896E+02  0.95326858896E+02  0.00000000000E+00 0.  1.
         -2   -1    0    0    0  501 -0.00000000000E+00 -0.00000000000E+00 -0.35733368052E+03  0.35733368052E+03  0.00000000000E+00 0. -1.
         25    2    1    2    0    0  0.59850721410E+02 -0.13661808992E+03 -0.13461345759E+03  0.23666937826E+03  0.12507997560E+03 0.  0.
          5    1    3    3  502    0  0.28299244319E+01 -0.21894834706E+02 -0.10194427932E+03  0.10439109515E+03  0.41800000000E+01 0. -1.
         -5    1    3    3    0  502  0.57020796978E+02 -0.11472325521E+03 -0.32669178268E+02  0.13227828311E+03  0.41800000000E+01 0. -1.
        -11    1    1    2    0    0 -0.73154475920E+01  0.39676360840E+02  0.82563516764E+01  0.41181266688E+02  0.00000000000E+00 0.  1.
         11    1    1    2    0    0 -0.52535273818E+02  0.96941729079E+02 -0.13564971571E+03  0.17480989447E+03  0.00000000000E+00 0. -1.
</event>
<event>
 7    1  0.2384639E-009  0.1130385E+03  0.7561462E-02  0.1255044E+00
          1   -1    0    0  501    0  0.00000000000E+00  0.00000000000E+00  0.59201328859E+03  0.59201328859E+03  0.00000000000E+00 0. -1.
         -1   -1    0    0    0  501 -0.00000000000E+00 -0.00000000000E+00 -0.25059248700E+02  0.25059248700E+02  0.00000000000E+00 0.  1.
         25    2    1    2    0    0 -0.44381393714E+02  0.18795752535E+02  0.25172815811E+03  0.28519922782E+03  0.12509414673E+03 0.  0.
          5    1    3    3  502    0 -0.84184042679E+02 -0.74087644845E+01  0.13880215987E+03  0.16255877343E+03  0.41800000000E+01 0. -1.
         -5    1    3    3    0  502  0.39802648966E+02  0.26204517019E+02  0.11292599823E+03  0.12264045439E+03  0.41800000000E+01 0. -1.
        -11    1    1    2    0    0  0.38334060105E+02 -0.49344733480E+02  0.13227730159E+03  0.14629315569E+03  0.00000000000E+00 0.  1.
         11    1    1    2    0    0  0.60473336091E+01  0.30548980946E+02  0.18294858019E+03  0.18558015377E+03  0.00000000000E+00 0. -1.
</event>
<event>
 7    1  0.2384639E-009  0.7577346E+02  0.7561462E-02  0.1341492E+00
          1   -1    0    0  501    0  0.00000000000E+00  0.00000000000E+00  0.66399665187E+02  0.66399665187E+02  0.00000000000E+00 0. -1.
         -1   -1    0    0    0  501 -0.00000000000E+00 -0.00000000000E+00 -0.22412758451E+03  0.22412758451E+03  0.00000000000E+00 0.  1.
         25    2    1    2    0    0  0.18939879623E+02  0.26950768641E+02 -0.14352689590E+03  0.19320447631E+03  0.12507172682E+03 0.  0.
          5    1    3    3  502    0 -0.17694489149E+02  0.19970592270E+02  0.14589357045E+02  0.30695948281E+02  0.41800000000E+01 0.  1.
         -5    1    3    3    0  502  0.36634368772E+02  0.69801763710E+01 -0.15811625294E+03  0.16250852803E+03  0.41800000000E+01 0.  1.
        -11    1    1    2    0    0  0.26127209381E+02  0.10753277853E+02 -0.24825570248E+02  0.37610809520E+02  0.00000000000E+00 0.  1.
         11    1    1    2    0    0 -0.45067089003E+02 -0.37704046494E+02  0.10624546827E+02  0.59711963865E+02  0.00000000000E+00 0. -1.
</event>
<event>
 7    1  0.2384639E-009  0.1020101E+03  0.7561462E-02  0.1276125E+00
         -3   -1    0    0    0  501 -0.00000000000E+00  0.00000000000E+00  0.16198695854E+03  0.16198695854E+03  0.00000000000E+00 0.  1.
          3   -1    0    0  501    0  0.00000000000E+00 -0.00000000000E+00 -0.93687281853E+02  0.93687281853E+02  0.00000000000E+00 0. -1.
         25    2    1    2    0    0  0.40568450894E+02 -0.42440806731E+02  0.54737147321E+02  0.14863127559E+03  0.12509228394E+03 0.  0.
          5    1    3    3  502    0  0.34783305901E+02  0.34739807923E+02  0.51107406930E+02  0.71036413670E+02  0.41800000000E+01 0. -1.
         -5    1    3    3    0  502  0.57851449930E+01 -0.77180614654E+02  0.36297403915E+01  0.77594861919E+02  0.41800000000E+01 0. -1.
        -11    1    1    2    0    0 -0.18087207210E+02 -0.96046913894E+01  0.39656901266E+02  0.44632577557E+02  0.00000000000E+00 0.  1.
         11    1    1    2    0    0 -0.22481243684E+02  0.52045498120E+02 -0.26094371896E+02  0.62410387251E+02  0.00000000000E+00 0. -1.
</event>
<event>
 7    1  0.2384639E-009  0.9953325E+02  0.7561462E-02  0.1281281E+00
         -2   -1    0    0    0  501 -0.00000000000E+00  0.00000000000E+00  0.19816510679E+02  0.19816510679E+02  0.00000000000E+00 0.  1.
          2   -1    0    0  501    0  0.00000000000E+00 -0.00000000000E+00 -0.81538882554E+03  0.81538882554E+03  0.00000000000E+00 0. -1.
         25    2    1    2    0    0  0.22881208499E+02  0.37138735761E+02 -0.62196178975E+03  0.63591106146E+03  0.12507427704E+03 0.  0.
          5    1    3    3  502    0 -0.51569300336E+02  0.17854198197E+02 -0.22654108307E+03  0.23305900508E+03  0.41800000000E+01 0.  1.
         -5    1    3    3    0  502  0.74450508836E+02  0.19284537564E+02 -0.39542070668E+03  0.40285205638E+03  0.41800000000E+01 0.  1.
        -11    1    1    2    0    0 -0.32811383523E+02 -0.44044393701E+01 -0.13805162769E+02  0.35868767667E+02  0.00000000000E+00 0.  1.
         11    1    1    2    0    0  0.99301750240E+01 -0.32734296391E+02 -0.15980536234E+03  0.16342550709E+03  0.00000000000E+00 0. -1.
</event>
<event>
 7    1  0.2384639E-009  0.1603886E+03  0.7561462E-02  0.1188259E+00
          2   -1    0    0  501    0  0.00000000000E+00  0.00000000000E+00  0.42558325816E+03  0.42558325816E+03  0.00000000000E+00 0. -1.
         -2   -1    0    0    0  501 -0.00000000000E+00 -0.00000000000E+00 -0.67732651665E+02  0.67732651665E+02  0.00000000000E+00 0.  1.
         25    2    1    2    0    0 -0.12381945614E+03 -0.33884441288E+02  0.23401572278E+03  0.29477197790E+03  0.12509095636E+03 0.  0.
          5    1    3    3  502    0  0.89310984538E+01 -0.32031827339E+02  0.10253749604E+03  0.10787591471E+03  0.41800000000E+01 0.  1.
         -5    1    3    3    0  502 -0.13275055460E+03 -0.18526139487E+01  0.13147822675E+03  0.18689606318E+03  0.41800000000E+01 0.  1.
        -11    1    1    2    0    0  0.82953680115E+02 -0.21413576156E+02  0.58880611400E+02  0.10395566693E+03  0.00000000000E+00 0. -1.
         11    1    1    2    0    0  0.40865776028E+02  0.55298017444E+02  0.64954272314E+02  0.94588264998E+02  0.00000000000E+00 0.  1.
</event>
<event>
 7    1  0.2384639E-009  0.1146214E+03  0.7561462E-02  0.1252243E+00
         -3   -1    0    0    0  501 -0.00000000000E+00  0.00000000000E+00  0.60995011724E+02  0.60995011724E+02  0.00000000000E+00 0.  1.
          3   -1    0    0  501    0  0.00000000000E+00 -0.00000000000E+00 -0.27458073511E+03  0.27458073511E+03  0.00000000000E+00 0. -1.
         25    2    1    2    0    0  0.19323589747E+02 -0.63668771946E+02 -0.91701449838E+02  0.16877105729E+03  0.12508956885E+03 0.  0.
          5    1    3    3  502    0  0.64179354821E+01 -0.97208777671E+02 -0.39386143130E+02  0.10516404815E+03  0.41800000000E+01 0. -1.
         -5    1    3    3    0  502  0.12905654265E+02  0.33540005725E+02 -0.52315306708E+02  0.63607009142E+02  0.41800000000E+01 0. -1.
        -11    1    1    2    0    0  0.87664290777E+01  0.66724179006E+02 -0.35853211689E+02  0.76252338530E+02  0.00000000000E+00 0.  1.
         11    1    1    2    0    0 -0.28090018824E+02 -0.30554070597E+01 -0.86031061855E+02  0.90552351012E+02  0.00000000000E+00 0. -1.
</event>
<event>
 7    1  0.2384639E-009  0.2101184E+03  0.7561462E-02  0.1141472E+00
          2   -1    0    0  501    0  0.00000000000E+00  0.00000000000E+00  0.63863607714E+03  0.63863607714E+03  0.00000000000E+00 0. -1.
         -2   -1    0    0    0  501 -0.00000000000E+00 -0.00000000000E+00 -0.73339610087E+02  0.73339610087E+02  0.00000000000E+00 0.  1.
         25    2    1    2    0    0 -0.56595513326E+02 -0.17389335686E+03  0.35521310791E+03  0.41864728529E+03  0.12508895141E+03 0.  0.
          5    1    3    3  502    0  0.51646707572E+01 -0.15428516463E+03  0.22171848382E+03  0.27019834255E+03  0.41800000000E+01 0.  1.
         -5    1    3    3    0  502 -0.61760184083E+02 -0.19608192228E+02  0.13349462409E+03  0.14844894274E+03  0.41800000000E+01 0.  1.
        -11    1    1    2    0    0 -0.22012063300E+01  0.12326670302E+03  0.10050729487E+03  0.15906364042E+03  0.00000000000E+00 0.  1.
         11    1    1    2    0    0  0.58796719656E+02  0.50626653842E+02  0.10957606428E+03  0.13426476151E+03  0.00000000000E+00 0. -1.
</event>
<event>
 7    1  0.2384639E-009  0.7421005E+02  0.7561462E-02  0.1346335E+00
          2   -1    0    0  501    0  0.00000000000E+00  0.00000000000E+00  0.16820563452E+03  0.16820563452E+03  0.00000000000E+00 0. -1.
         -2   -1    0    0    0  501 -0.00000000000E+00 -0.00000000000E+00 -0.76142896252E+02  0.76142896252E+02  0.00000000000E+00 0.  1.
         25    2    1    2    0    0 -0.13494124306E+01  0.30711477414E+02  0.37788562486E+02  0.13424051076E+03  0.12509006161E+03 0.  0.
          5    1    3    3  502    0  0.20640861578E+02  0.14523976832E+02 -0.42348567434E+02  0.49475899521E+02  0.41800000000E+01 0.  1.
         -5    1    3    3    0  502 -0.21990274009E+02  0.16187500582E+02  0.80137129920E+02  0.84764611236E+02  0.41800000000E+01 0.  1.
        -11    1    1    2    0    0  0.20557945619E+01 -0.62941945362E+02  0.30018887612E+02  0.69764234323E+02  0.00000000000E+00 0.  1.
         11    1    1    2    0    0 -0.70638213132E+00  0.32230467949E+02  0.24255288172E+02  0.40343785695E+02  0.00000000000E+00 0. -1.
</event>
<event>
 7    1  0.2384639E-009  0.1249467E+03  0.7561462E-02  0.1235153E+00
          1   -1    0    0  501    0  0.00000000000E+00  0.00000000000E+00  0.67601705912E+02  0.67601705912E+02  0.00000000000E+00 0. -1.
         -1   -1    0    0    0  501 -0.00000000000E+00 -0.00000000000E+00 -0.38199865822E+03  0.38199865822E+03  0.00000000000E+00 0.  1.
         25    2    1    2    0    0 -0.29249485441E+02 -0.97370419765E+02 -0.25363004092E+03  0.30051560753E+03  0.12507958135E+03 0.  0.
          5    1    3    3  502    0 -0.40678437004E+02  0.15597784471E+01 -0.18069160359E+02  0.44734048576E+02  0.41800000000E+01 0. -1.
         -5    1    3    3    0  502  0.11428951564E+02 -0.98930198212E+02 -0.23556088056E+03  0.25578155896E+03  0.41800000000E+01 0. -1.
        -11    1    1    2    0    0  0.36213148233E+02  0.51843503647E+02  0.10625827034E+02  0.64125261602E+02  0.00000000000E+00 0. -1.
         11    1    1    2    0    0 -0.69636627925E+01  0.45526916118E+02 -0.71392738418E+02  0.84959494994E+02  0.00000000000E+00 0.  1.
</event>
<event>
 7    1  0.2384639E-009  0.5237820E+02  0.7561462E-02  0.1432921E+00
          1   -1    0    0  501    0  0.00000000000E+00  0.00000000000E+00  0.11889182093E+03  0.11889182093E+03  0.00000000000E+00 0. -1.
         -1   -1    0    0    0  501 -0.00000000000E+00 -0.00000000000E+00 -0.10008581840E+03  0.10008581840E+03  0.00000000000E+00 0.  1.
         25    2    1    2    0    0 -0.10572973698E+01 -0.17597629084E+01  0.12768273669E+02  0.12575961090E+03  0.12509291059E+03 0.  0.
          5    1    3    3  502    0  0.15618955997E+02  0.60814449073E+01  0.66549756510E+02  0.68755205259E+02  0.41800000000E+01 0.  1.
         -5    1    3    3    0  502 -0.16676253367E+02 -0.78412078157E+01 -0.53781482841E+02  0.57004405645E+02  0.41800000000E+01 0.  1.
        -11    1    1    2    0    0  0.33024124826E+02 -0.10031124504E+02 -0.28457266037E+02  0.44732899187E+02  0.00000000000E+00 0.  1.
         11    1    1    2    0    0 -0.31966827456E+02  0.11790887412E+02  0.34494994898E+02  0.48485129232E+02  0.00000000000E+00 0. -1.
</event>
<event>
 7    1  0.2384639E-009  0.1204805E+03  0.7561462E-02  0.1242306E+00
          2   -1    0    0  501    0  0.00000000000E+00  0.00000000000E+00  0.83794905974E+02  0.83794905974E+02  0.00000000000E+00 0. -1.
         -2   -1    0    0    0  501 -0.00000000000E+00 -0.00000000000E+00 -0.20815472884E+03  0.20815472884E+03  0.00000000000E+00 0.  1.
         25    2    1    2    0    0  0.71825057652E+02 -0.22990805681E+02 -0.84738997323E+02  0.16886421110E+03  0.12508800130E+03 0.  0.
          5    1    3    3  502    0  0.52368367147E+02 -0.63041925867E+02 -0.92301917738E+02  0.12350646426E+03  0.41800000000E+01 0. -1.
         -5    1    3    3    0  502  0.19456690505E+02  0.40051120186E+02  0.75629204151E+01  0.45357746844E+02  0.41800000000E+01 0. -1.
        -11    1    1    2    0    0 -0.30638930636E+01 -0.28254164830E+02  0.46309241492E+00  0.28423576931E+02  0.00000000000E+00 0. -1.
         11    1    1    2    0    0 -0.68761164589E+02  0.51244970511E+02 -0.40083917962E+02  0.94661846789E+02  0.00000000000E+00 0.  1.
</event>
<event>
 7    1  0.2384639E-009  0.1879366E+03  0.7561462E-02  0.1160336E+00
         -2   -1    0    0    0  501 -0.00000000000E+00  0.00000000000E+00  0.72971376178E+02  0.72971376178E+02  0.00000000000E+00 0.  1.
          2   -1    0    0  501    0  0.00000000000E+00 -0.00000000000E+00 -0.57896318923E+03  0.57896318923E+03  0.00000000000E+00 0. -1.
         25    2    1    2    0    0  0.10803944534E+03  0.13738768677E+03 -0.24593172785E+03  0.32661478333E+03  0.12508758413E+03 0.  0.
          5    1    3    3  502    0  0.13209718768E+02 -0.10804532806E+01  0.12333867203E+02  0.18581192895E+02  0.41800000000E+01 0. -1.
         -5    1    3    3    0  502  0.94829726568E+02  0.13846814005E+03 -0.25826559505E+03  0.30803359043E+03  0.41800000000E+01 0. -1.
        -11    1    1    2    0    0 -0.52832188003E+02 -0.80152631149E+01 -0.89525364740E+02  0.10426061319E+03  0.00000000000E+00 0. -1.
         11    1    1    2    0    0 -0.55207257333E+02 -0.12937242365E+03 -0.17053472047E+03  0.22105916889E+03  0.00000000000E+00 0.  1.
</event>
<event>
 7    1  0.2384639E-009  0.8550447E+02  0.7561462E-02  0.1314119E+00
         -1   -1    0    0    0  501 -0.00000000000E+00  0.00000000000E+00  0.52234705230E+02  0.52234705230E+02  0.00000000000E+00 0.  1.
          1   -1    0    0  501    0  0.00000000000E+00 -0.00000000000E+00 -0.23797379586E+03  0.23797379586E+03  0.00000000000E+00 0. -1.
         25    2    1    2    0    0 -0.12183680836E+02 -0.15600054427E+02 -0.13412042418E+03  0.18446494409E+03  0.12508886296E+03 0.  0.
          5    1    3    3  502    0  0.42936048557E+01  0.40565132391E+02 -0.33622793192E+01  0.41142949953E+02  0.41800000000E+01 0. -1.
         -5    1    3    3    0  502 -0.16477285692E+02 -0.56165186818E+02 -0.13075814486E+03  0.14332199413E+03  0.41800000000E+01 0. -1.
        -11    1    1    2    0    0  0.22791579336E+02 -0.22347634824E+02  0.92513877798E+01  0.33233432665E+02  0.00000000000E+00 0.  1.
         11    1    1    2    0    0 -0.10607898500E+02  0.37947689251E+02 -0.60870054230E+02  0.72510124342E+02  0.00000000000E+00 0. -1.
</event>
<event>
 7    1  0.2384639E-009  0.1621230E+03  0.7561462E-02  0.1186321E+00
          2   -1    0    0  501    0  0.00000000000E+00  0.00000000000E+00  0.26608944755E+03  0.26608944755E+03  0.00000000000E+00 0. -1.
         -2   -1    0    0    0  501 -0.00000000000E+00 -0.00000000000E+00 -0.10995418793E+03  0.10995418793E+03  0.00000000000E+00 0.  1.
         25    2    1    2    0    0  0.39810014476E+02  0.12256489873E+03  0.11096441287E+03  0.21111064174E+03  0.12509040922E+03 0.  0.
          5    1    3    3  502    0  0.26254184061E+02  0.14101719362E+03  0.60878031012E+02  0.15588052521E+03  0.41800000000E+01 0. -1.
         -5    1    3    3    0  502  0.13555830415E+02 -0.18452294893E+02  0.50086381857E+02  0.55230116536E+02  0.41800000000E+01 0. -1.
        -11    1    1    2    0    0 -0.26506222906E+02 -0.13600200403E+03  0.46024792267E+02  0.14600481655E+03  0.00000000000E+00 0. -1.
         11    1    1    2    0    0 -0.13303791570E+02  0.13437105296E+02 -0.85394551266E+00  0.18928177192E+02  0.00000000000E+00 0.  1.
</event>
<event>
 7    1  0.2384639E-009  0.1163865E+03  0.7561462E-02  0.1249180E+00
          1   -1    0    0  501    0  0.00000000000E+00  0.00000000000E+00  0.27577203697E+03  0.27577203697E+03  0.00000000000E+00 0. -1.
         -1   -1    0    0    0  501 -0.00000000000E+00 -0.00000000000E+00 -0.88811252821E+02  0.88811252821E+02  0.00000000000E+00 0.  1.
         25    2    1    2    0    0 -0.11297719927E+03  0.15529066039E+02  0.10922343947E+03  0.20145040676E+03  0.12508999643E+03 0.  0.
          5    1    3    3  502    0 -0.48271056435E+02  0.22586599798E+02  0.12359622896E+03  0.13466161143E+03  0.41800000000E+01 0. -1.
         -5    1    3    3    0  502 -0.64706142838E+02 -0.70575337587E+01 -0.14372789494E+02  0.66788795330E+02  0.41800000000E+01 0. -1.
        -11    1    1    2    0    0  0.52953941493E+02 -0.90117919299E+01  0.86804161024E+02  0.10207984465E+03  0.00000000000E+00 0. -1.
         11    1    1    2    0    0  0.60023257780E+02 -0.65172741091E+01 -0.90668163418E+01  0.61053038376E+02  0.00000000000E+00 0.  1.
</event>
<event>
 7    1  0.2384639E-009  0.1229282E+03  0.7561462E-02  0.1238343E+00
          2   -1    0    0  501    0  0.00000000000E+00  0.00000000000E+00  0.13839980411E+04  0.13839980411E+04  0.00000000000E+00 0. -1.
         -2   -1    0    0    0  501 -0.00000000000E+00 -0.00000000000E+00 -0.13709252309E+02  0.13709252309E+02  0.00000000000E+00 0.  1.
         25    2    1    2    0    0 -0.75388480733E+02  0.36946440619E+02  0.73768183709E+03  0.75290810788E+03  0.12509062169E+03 0.  0.
          5    1    3    3  502    0 -0.25100010645E+02  0.60679090152E+02  0.61053305290E+03  0.61406843560E+03  0.41800000000E+01 0. -1.
         -5    1    3    3    0  502 -0.50288470088E+02 -0.23732649533E+02  0.12714878419E+03  0.13883967228E+03  0.41800000000E+01 0. -1.
        -11    1    1    2    0    0  0.80573672980E+02  0.62233395211E+01  0.43816066519E+03  0.44555091208E+03  0.00000000000E+00 0.  1.
         11    1    1    2    0    0 -0.51851922476E+01 -0.43169780140E+02  0.19444628649E+03  0.19924827344E+03  0.00000000000E+00 0. -1.
</event>
<event>
 7    1  0.2384639E-009  0.9728495E+02  0.7561462E-02  0.1286111E+00
         -1   -1    0    0    0  501 -0.00000000000E+00  0.00000000000E+00  0.15489204766E+02  0.15489204766E+02  0.00000000000E+00 0.  1.
          1   -1    0    0  501    0  0.00000000000E+00 -0.00000000000E+00 -0.99433392375E+03  0.99433392375E+03  0.00000000000E+00 0. -1.
         25    2    1    2    0    0 -0.47925918807E+02  0.82261640590E+00 -0.64321968015E+03  0.65702102922E+03  0.12508998965E+03 0.  0.
          5    1    3    3  502    0  0.68714616749E+01  0.35728084299E+02 -0.60827662931E+02  0.71001337811E+02  0.41800000000E+01 0. -1.
         -5    1    3    3    0  502 -0.54797380482E+02 -0.34905467893E+02 -0.58239201722E+03  0.58601969141E+03  0.41800000000E+01 0. -1.
        -11    1    1    2    0    0 -0.18227492414E+02  0.16362043352E+02 -0.25990769592E+02  0.35713835503E+02  0.00000000000E+00 0.  1.
         11    1    1    2    0    0  0.66153411221E+02 -0.17184659758E+02 -0.30963426924E+03  0.31708826379E+03  0.00000000000E+00 0. -1.
</event>
<event>
 7    1  0.2384639E-009  0.1115391E+03  0.7561462E-02  0.1257746E+00
         -1   -1    0    0    0  501 -0.00000000000E+00  0.00000000000E+00  0.57975001606E+02  0.57975001606E+02  0.00000000000E+00 0.  1.
          1   -1    0    0  501    0  0.00000000000E+00 -0.00000000000E+00 -0.33591404190E+03  0.33591404190E+03  0.00000000000E+00 0. -1.
         25    2    1    2    0    0 -0.73691274611E+00  0.86260523949E+02 -0.14590864071E+03  0.21065982690E+03  0.12508721039E+03 0.  0.
          5    1    3    3  502    0 -0.20281470193E+02  0.25301290641E+02 -0.14273238052E+03  0.14642915759E+03  0.41800000000E+01 0.  1.
         -5    1    3    3    0  502  0.19544557447E+02  0.60959233308E+02 -0.31762601839E+01  0.64230669310E+02  0.41800000000E+01 0.  1.
        -11    1    1    2    0    0 -0.45649080735E+02 -0.46065340741E+02 -0.57446402563E+02  0.86636847571E+02  0.00000000000E+00 0.  1.
         11    1    1    2    0    0  0.46385993481E+02 -0.40195183209E+02 -0.74583997021E+02  0.96592369036E+02  0.00000000000E+00 0. -1.
</event>
<event>
 7    1  0.2384639E-009  0.2607607E+03  0.7561462E-02  0.1106687E+00
          1   -1    0    0  501    0  0.00000000000E+00  0.00000000000E+00  0.67651089152E+03  0.67651089152E+03  0.00000000000E+00 0. -1.
         -1   -1    0    0    0  501 -0.00000000000E+00 -0.00000000000E+00 -0.18290317444E+03  0.18290317444E+03  0.00000000000E+00 0.  1.
         25    2    1    2    0    0 -0.17379577205E+03 -0.18223632101E+03 -0.18170336571E+02  0.28176656621E+03  0.12508872702E+03 0.  0.
          5    1    3    3  502    0 -0.55918626100E+02 -0.85037890104E+02  0.51101503394E+02  0.11396127214E+03  0.41800000000E+01 0. -1.
         -5    1    3    3    0  502 -0.11787714595E+03 -0.97198430910E+02 -0.69271839965E+02  0.16780529408E+03  0.41800000000E+01 0. -1.
        -11    1    1    2    0    0  0.14834213896E+03  0.95496903354E+02  0.31342537436E+03  0.35966722680E+03  0.00000000000E+00 0.  1.
         11    1    1    2    0    0  0.25453633088E+02  0.86739417660E+02  0.19835267929E+03  0.21798027294E+03  0.00000000000E+00 0. -1.
</event>
<event>
 7    1  0.2384639E-009  0.9961657E+02  0.7561462E-02  0.1281104E+00
         -2   -1    0    0    0  501 -0.00000000000E+00  0.00000000000E+00  0.42282554535E+02  0.42282554535E+02  0.00000000000E+00 0. -1.
          2   -1    0    0  501    0  0.00000000000E+00 -0.00000000000E+00 -0.33532146370E+03  0.33532146370E+03  0.00000000000E+00 0.  1.
         25    2    1    2    0    0  0.33391593017E+02 -0.47275412668E+02 -0.19064756625E+03  0.23525409707E+03  0.12509209626E+03 0.  0.
          5    1    3    3  502    0  0.50086644434E+01 -0.74024698195E+02 -0.50815410617E+02  0.90024557864E+02  0.41800000000E+01 0.  1.
         -5    1    3    3    0  502  0.28382928574E+02  0.26749285527E+02 -0.13983215563E+03  0.14522953921E+03  0.41800000000E+01 0.  1.
        -11    1    1    2    0    0 -0.55101679610E+01 -0.15800287783E+02 -0.57925995489E+02  0.60294543686E+02  0.00000000000E+00 0.  1.
         11    1    1    2    0    0 -0.27881425056E+02  0.63075700452E+02 -0.44465347427E+02  0.82055377474E+02  0.00000000000E+00 0. -1.
</event>
<event>
 7    1  0.2384639E-009  0.1028095E+03  0.7561462E-02  0.1274497E+00
          2   -1    0    0  501    0  0.00000000000E+00  0.00000000000E+00  0.71356747881E+02  0.71356747881E+02  0.00000000000E+00 0.  1.
         -2   -1    0    0    0  501 -0.00000000000E+00 -0.00000000000E+00 -0.23607613382E+03  0.23607613382E+03  0.00000000000E+00 0. -1.
         25    2    1    2    0    0  0.10008745327E+00  0.67901249105E+02 -0.59892146321E+02  0.15441592481E+03  0.12508644609E+03 0.  0.
          5    1    3    3  502    0 -0.14614105828E+02  0.76430628844E+02  0.13390513634E+02  0.79069535032E+02  0.41800000000E+01 0.  1.
         -5    1    3    3    0  502  0.14714193282E+02 -0.85293797396E+01 -0.73282659955E+02  0.75346389779E+02  0.41800000000E+01 0.  1.
        -11    1    1    2    0    0  0.38197311036E+02 -0.59917168296E+02 -0.56129805566E+02  0.90551955803E+02  0.00000000000E+00 0.  1.
         11    1    1    2    0    0 -0.38297398489E+02 -0.79840808092E+01 -0.48697434048E+02  0.62465001083E+02  0.00000000000E+00 0. -1.
</event>
<event>
 7    1  0.2384639E-009  0.1492742E+03  0.7561462E-02  0.1201368E+00
          2   -1    0    0  501    0  0.00000000000E+00  0.00000000000E+00  0.59247432226E+02  0.59247432226E+02  0.00000000000E+00 0.  1.
         -2   -1    0    0    0  501 -0.00000000000E+00 -0.00000000000E+00 -0.52646212394E+03  0.52646212394E+03  0.00000000000E+00 0. -1.
         25    2    1    2    0    0 -0.88383215319E+02 -0.68957950015E+02 -0.38351953059E+03  0.41868808546E+03  0.12508273638E+03 0.  0.
          5    1    3    3  502    0 -0.41825972607E+02  0.25497122894E+02 -0.20994343288E+03  0.21562289459E+03  0.41800000000E+01 0. -1.
         -5    1    3    3    0  502 -0.46557242713E+02 -0.94455072908E+02 -0.17357609771E+03  0.20306519087E+03  0.41800000000E+01 0. -1.
        -11    1    1    2    0    0  0.90899234479E+02  0.17612706504E+02 -0.60649178723E+02  0.11068514417E+03  0.00000000000E+00 0.  1.
         11    1    1    2    0    0 -0.25160191601E+01  0.51345243510E+02 -0.23045982400E+02  0.56336326542E+02  0.00000000000E+00 0. -1.
</event>
<event>
 7    1  0.2384639E-009  0.1270965E+03  0.7561462E-02  0.1231829E+00
          2   -1    0    0  501    0  0.00000000000E+00  0.00000000000E+00  0.17913788884E+03  0.17913788884E+03  0.00000000000E+00 0. -1.
         -2   -1    0    0    0  501 -0.00000000000E+00 -0.00000000000E+00 -0.10083497938E+03  0.10083497938E+03  0.00000000000E+00 0.  1.
         25    2    1    2    0    0  0.69020993118E+02  0.34716279143E+02  0.74638205506E+02  0.16488800495E+03  0.12509226565E+03 0.  0.
          5    1    3    3  502    0  0.41880633131E+02  0.77725546519E+02  0.71632544782E+02  0.11377144582E+03  0.41800000000E+01 0. -1.
         -5    1    3    3    0  502  0.27140359987E+02 -0.43009267376E+02  0.30056607247E+01  0.51116559125E+02  0.41800000000E+01 0. -1.
        -11    1    1    2    0    0 -0.93546054004E+00  0.24514083294E+02 -0.23313870474E+01  0.24642457908E+02  0.00000000000E+00 0. -1.
         11    1    1    2    0    0 -0.68085532578E+02 -0.59230362437E+02  0.59960910071E+01  0.90442405364E+02  0.00000000000E+00 0.  1.
</event>
<event>
 7    1  0.2384639E-009  0.1582127E+03  0.7561462E-02  0.1190729E+00
          2   -1    0    0  501    0  0.00000000000E+00  0.00000000000E+00  0.50706173118E+03  0.50706173118E+03  0.00000000000E+00 0. -1.
         -2   -1    0    0    0  501 -0.00000000000E+00 -0.00000000000E+00 -0.57370414962E+02  0.57370414962E+02  0.00000000000E+00 0.  1.
         25    2    1    2    0    0 -0.10532542243E+03 -0.36536718914E+02  0.32586445311E+03  0.36642341444E+03  0.12510036136E+03 0.  0.
          5    1    3    3  502    0 -0.20140993051E+02  0.43459651989E+02  0.67966905572E+02  0.83254871360E+02  0.41800000000E+01 0.  1.
         -5    1    3    3    0  502 -0.85184429374E+02 -0.79996370903E+02  0.25789754754E+03  0.28316854308E+03  0.41800000000E+01 0.  1.
        -11    1    1    2    0    0  0.31298692763E+01 -0.29545665371E+02  0.41654790444E+02  0.51165066118E+02  0.00000000000E+00 0.  1.
         11    1    1    2    0    0  0.10219555315E+03  0.66082384285E+02  0.82172072670E+02  0.14684366559E+03  0.00000000000E+00 0. -1.
</event>
<event>
 7    1  0.2384639E-009  0.1368141E+03  0.7561462E-02  0.1217681E+00
         -2   -1    0    0    0  501 -0.00000000000E+00  0.00000000000E+00  0.64811381133E+03  0.64811381133E+03  0.00000000000E+00 0.  1.
          2   -1    0    0  501    0  0.00000000000E+00 -0.00000000000E+00 -0.37838939449E+02  0.37838939449E+02  0.00000000000E+00 0. -1.
         25    2    1    2    0    0  0.10191299634E+03 -0.43838473979E+02  0.37552899330E+03  0.41106643975E+03  0.12508206289E+03 0.  0.
          5    1    3    3  502    0  0.12669787967E+02 -0.54631398378E+02  0.57011822893E+02  0.80080793986E+02  0.41800000000E+01 0. -1.
         -5    1    3    3    0  502  0.89243208378E+02  0.10792924399E+02  0.31851717040E+03  0.33098564576E+03  0.41800000000E+01 0. -1.
        -11    1    1    2    0    0 -0.45481890062E+02  0.53423127249E+02  0.18903207083E+03  0.20163272714E+03  0.00000000000E+00 0. -1.
         11    1    1    2    0    0 -0.56431106283E+02 -0.95846532704E+01  0.45713807758E+02  0.73253583901E+02  0.00000000000E+00 0.  1.
</event>
<event>
 7    1  0.2384639E-009  0.1342349E+03  0.7561462E-02  0.1221304E+00
         -2   -1    0    0    0  501 -0.00000000000E+00  0.00000000000E+00  0.33038536420E+02  0.33038536420E+02  0.00000000000E+00 0. -1.
          2   -1    0    0  501    0  0.00000000000E+00 -0.00000000000E+00 -0.67547169295E+03  0.67547169295E+03  0.00000000000E+00 0.  1.
         25    2    1    2    0    0 -0.36025922991E+02 -0.77428408255E+02 -0.20766791094E+03  0.25703436042E+03  0.12509066979E+03 0.  0.
          5    1    3    3  502    0 -0.53900212263E+02 -0.10421619640E+03 -0.14609931696E+03  0.18742660241E+03  0.41800000000E+01 0. -1.
         -5    1    3    3    0  502  0.17874289271E+02  0.26787788144E+02 -0.61568593982E+02  0.69607758013E+02  0.41800000000E+01 0. -1.
        -11    1    1    2    0    0  0.60492840715E+02  0.35762299266E+02 -0.20578021397E+03  0.21744843593E+03  0.00000000000E+00 0. -1.
         11    1    1    2    0    0 -0.24466917724E+02  0.41666108989E+02 -0.22898503162E+03  0.23402743302E+03  0.00000000000E+00 0.  1.
</event>
<event>
 7    1  0.2384639E-009  0.1047638E+03  0.7561462E-02  0.1270586E+00
          2   -1    0    0  501    0  0.00000000000E+00  0.00000000000E+00  0.32268610744E+03  0.32268610744E+03  0.00000000000E+00 0. -1.
         -2   -1    0    0    0  501 -0.00000000000E+00 -0.00000000000E+00 -0.52118968946E+02  0.52118968946E+02  0.00000000000E+00 0.  1.
         25    2    1    2    0    0 -0.18991722675E+02 -0.65928668661E+02  0.16419349532E+03  0.21751926028E+03  0.12509136583E+03 0.  0.
          5    1    3    3  502    0 -0.50546848783E+02 -0.19625967492E+02  0.15001638766E+03  0.15956989530E+03  0.41800000000E+01 0.  1.
         -5    1    3    3    0  502  0.31555126109E+02 -0.46302701170E+02  0.14177107667E+02  0.57949364976E+02  0.41800000000E+01 0.  1.
        -11    1    1    2    0    0  0.46198492841E+02  0.36505036635E+02  0.20199006342E+02  0.62248841738E+02  0.00000000000E+00 0.  1.
         11    1    1    2    0    0 -0.27206770166E+02  0.29423632026E+02  0.86174636831E+02  0.95036974370E+02  0.00000000000E+00 0. -1.
</event>
<event>
 7    1  0.2384639E-009  0.1736703E+03  0.7561462E-02  0.1174073E+00
         -1   -1    0    0    0  501 -0.00000000000E+00  0.00000000000E+00  0.35452327810E+02  0.35452327810E+02  0.00000000000E+00 0.  1.
          1   -1    0    0  501    0  0.00000000000E+00 -0.00000000000E+00 -0.13172131010E+04  0.13172131010E+04  0.00000000000E+00 0. -1.
         25    2    1    2    0    0 -0.12702865334E+03 -0.66733095116E+02 -0.10374737566E+04  0.10547937601E+04  0.12509394883E+03 0.  0.
          5    1    3    3  502    0 -0.29963025619E+02  0.29725450557E+02 -0.12250991492E+03  0.12964388520E+03  0.41800000000E+01 0. -1.
         -5    1    3    3    0  502 -0.97065627719E+02 -0.96458545673E+02 -0.91496384164E+03  0.92514987490E+03  0.41800000000E+01 0. -1.
        -11    1    1    2    0    0  0.83155182618E+02  0.86422648401E+02 -0.15019985324E+03  0.19220732157E+03  0.00000000000E+00 0.  1.
         11    1    1    2    0    0  0.43873470720E+02 -0.19689553286E+02 -0.94087163367E+02  0.10566434712E+03  0.00000000000E+00 0. -1.
</event>
<event>
 7    1  0.2384639E-009  0.1692307E+03  0.7561462E-02  0.1178652E+00
         -3   -1    0    0    0  501 -0.00000000000E+00  0.00000000000E+00  0.45966371916E+03  0.45966371916E+03  0.00000000000E+00 0.  1.
          3   -1    0    0  501    0  0.00000000000E+00 -0.00000000000E+00 -0.81170425209E+02  0.81170425209E+02  0.00000000000E+00 0. -1.
         25    2    1    2    0    0  0.89576708922E+02  0.11832494785E+03  0.11648201424E+03  0.22636294184E+03  0.12508933501E+03 0.  0.
          5    1    3    3  502    0 -0.43487097614E+01  0.74058376627E+02  0.57804940178E+01  0.74528121782E+02  0.41800000000E+01 0.  1.
         -5    1    3    3    0  502  0.93925418684E+02  0.44266571227E+02  0.11070152022E+03  0.15183482006E+03  0.41800000000E+01 0.  1.
        -11    1    1    2    0    0 -0.77167987254E+02 -0.52686555268E+02  0.20986737017E+03  0.22972828390E+03  0.00000000000E+00 0.  1.
         11    1    1    2    0    0 -0.12408721669E+02 -0.65638392586E+02  0.52143909536E+02  0.84742918621E+02  0.00000000000E+00 0. -1.
</event>
<event>
 7    1  0.2384639E-009  0.1109155E+03  0.7561462E-02  0.1258884E+00
         -2   -1    0    0    0  501 -0.00000000000E+00  0.00000000000E+00  0.38808362253E+02  0.38808362253E+02  0.00000000000E+00 0.  1.
          2   -1    0    0  501    0  0.00000000000E+00 -0.00000000000E+00 -0.48062111816E+03  0.48062111816E+03  0.00000000000E+00 0. -1.
         25    2    1    2    0    0  0.56703450914E+01  0.80737001009E+02 -0.25747775260E+03  0.29747827519E+03  0.12509162636E+03 0.  0.
          5    1    3    3  502    0  0.32416670609E+02  0.31062536797E+01 -0.18495784580E+03  0.18784931852E+03  0.41800000000E+01 0.  1.
         -5    1    3    3    0  502 -0.26746325518E+02  0.77630747329E+02 -0.72519906796E+02  0.10962895667E+03  0.41800000000E+01 0.  1.
        -11    1    1    2    0    0  0.30625719656E+02 -0.21895171396E+02 -0.12596359293E+03  0.13146923587E+03  0.00000000000E+00 0. -1.
         11    1    1    2    0    0 -0.36296064747E+02 -0.58841829614E+02 -0.58371410376E+02  0.90481969351E+02  0.00000000000E+00 0.  1.
</event>
<event>
 7    1  0.2384639E-009  0.1440668E+03  0.7561462E-02  0.1207959E+00
         -2   -1    0    0    0  501 -0.00000000000E+00  0.00000000000E+00  0.27817317905E+02  0.27817317905E+02  0.00000000000E+00 0.  1.
          2   -1    0    0  501    0  0.00000000000E+00 -0.00000000000E+00 -0.10695091031E+04  0.10695091031E+04  0.00000000000E+00 0. -1.
         25    2    1    2    0    0 -0.45076270093E+02  0.12359095660E+03 -0.62878936058E+03  0.65447114067E+03  0.12509923789E+03 0.  0.
          5    1    3    3  502    0  0.35667958737E+01 -0.11410893251E+02 -0.38243202414E+01  0.13229827773E+02  0.41800000000E+01 0. -1.
         -5    1    3    3    0  502 -0.48643065967E+02  0.13500184985E+03 -0.62496504034E+03  0.64124131290E+03  0.41800000000E+01 0. -1.
        -11    1    1    2    0    0  0.36350152285E+02 -0.86917721876E+02 -0.38390342207E+03  0.39529465140E+03  0.00000000000E+00 0. -1.
         11    1    1    2    0    0  0.87261178079E+01 -0.36673234720E+02 -0.28999002575E+02  0.47560628961E+02  0.00000000000E+00 0.  1.
</event>
<event>
 7    1  0.2384639E-009  0.8330200E+02  0.7561462E-02  0.1319934E+00
         -2   -1    0    0    0  501 -0.00000000000E+00  0.00000000000E+00  0.11016816488E+02  0.11016816488E+02  0.00000000000E+00 0. -1.
          2   -1    0    0  501    0  0.00000000000E+00 -0.00000000000E+00 -0.13068362534E+04  0.13068362534E+04  0.00000000000E+00 0.  1.
         25    2    1    2    0    0 -0.34166787717E+02  0.31527078545E+02 -0.85028549011E+03  0.86069303444E+03  0.12508300753E+03 0.  0.
          5    1    3    3  502    0  0.22237839080E+01  0.27798265576E+02 -0.78678598697E+03  0.78729114721E+03  0.41800000000E+01 0. -1.
         -5    1    3    3    0  502 -0.36390571625E+02  0.37288129697E+01 -0.63499503142E+02  0.73401887228E+02  0.41800000000E+01 0. -1.
        -11    1    1    2    0    0 -0.15769784960E+02 -0.46784513894E+02 -0.24614170824E+03  0.25104425385E+03  0.00000000000E+00 0. -1.
         11    1    1    2    0    0  0.49936572677E+02  0.15257435348E+02 -0.19939223857E+03  0.20611578160E+03  0.00000000000E+00 0.  1.
</event>
<event>
 7    1  0.2384639E-009  0.1122481E+03  0.7561462E-02  0.1256462E+00
         -2   -1    0    0    0  501 -0.00000000000E+00  0.00000000000E+00  0.56869736382E+02  0.56869736382E+02  0.00000000000E+00 0.  1.
          2   -1    0    0  501    0  0.00000000000E+00 -0.00000000000E+00 -0.31528713253E+03  0.31528713253E+03  0.00000000000E+00 0. -1.
         25    2    1    2    0    0  0.47044090481E+02 -0.62063704758E+02 -0.14396537167E+03  0.20600669804E+03  0.12509069310E+03 0.  0.
          5    1    3    3  502    0 -0.31085460361E+02 -0.26556289577E+02 -0.33700285737E+01  0.41235565408E+02  0.41800000000E+01 0.  1.
         -5    1    3    3    0  502  0.78129550842E+02 -0.35507415181E+02 -0.14059534310E+03  0.16477113263E+03  0.41800000000E+01 0.  1.
        -11    1    1    2    0    0 -0.11056794330E+02  0.60451071932E+02 -0.11470033293E+03  0.13012590508E+03  0.00000000000E+00 0. -1.
         11    1    1    2    0    0 -0.35987296151E+02  0.16126328255E+01  0.24830845276E+00  0.36024265794E+02  0.00000000000E+00 0.  1.
</event>
<event>
 7    1  0.3475053E-009  0.1561312E+03  0.7561462E-02  0.1193135E+00
         -2   -1    0    0    0  501 -0.00000000000E+00  0.00000000000E+00  0.21933635858E+02  0.21933635858E+02  0.00000000000E+00 0.  1.
          2   -1    0    0  501    0  0.00000000000E+00 -0.00000000000E+00 -0.16523322505E+04  0.16523322505E+04  0.00000000000E+00 0. -1.
         25    2    1    2    0    0 -0.13337834559E+03 -0.40114553968E+02 -0.11676022024E+04  0.11825145477E+04  0.12508713742E+03 0.  0.
          5    1    3    3  502    0 -0.46147975181E+02  0.19820257334E+02 -0.74992651673E+03  0.75161807529E+03  0.41800000000E+01 0.  1.
         -5    1    3    3    0  502 -0.87230370410E+02 -0.59934811302E+02 -0.41767568569E+03  0.43089647242E+03  0.41800000000E+01 0.  1.
        -11    1    1    2    0    0  0.58382986667E+02  0.54172128881E+02 -0.15056542167E+03  0.17033243637E+03  0.00000000000E+00 0.  1.
         11    1    1    2    0    0  0.74995358924E+02 -0.14057574913E+02 -0.31223099057E+03  0.32141890228E+03  0.00000000000E+00 0. -1.
</event>
<event>
 7    1  0.2384639E-009  0.1134975E+03  0.7561462E-02  0.1254227E+00
         -2   -1    0    0    0  501 -0.00000000000E+00  0.00000000000E+00  0.24942565153E+02  0.24942565153E+02  0.00000000000E+00 0.  1.
          2   -1    0    0  501    0  0.00000000000E+00 -0.00000000000E+00 -0.64490547913E+03  0.64490547913E+03  0.00000000000E+00 0. -1.
         25    2    1    2    0    0 -0.25929276246E+02  0.48367165629E+02 -0.24996027974E+03  0.28484909391E+03  0.12508858771E+03 0.  0.
          5    1    3    3  502    0  0.64421607280E+01 -0.35843378744E+02 -0.31049055766E+02  0.48039207931E+02  0.41800000000E+01 0. -1.
         -5    1    3    3    0  502 -0.32371436974E+02  0.84210544373E+02 -0.21891122397E+03  0.23680988598E+03  0.41800000000E+01 0. -1.
        -11    1    1    2    0    0  0.52078780199E+02 -0.52032761213E+02 -0.32101351545E+03  0.32934675448E+03  0.00000000000E+00 0. -1.
         11    1    1    2    0    0 -0.26149503953E+02  0.36655955834E+01 -0.48989118784E+02  0.55652195889E+02  0.00000000000E+00 0.  1.
</event>
<event>
 7    1  0.2384639E-009  0.1152566E+03  0.7561462E-02  0.1251134E+00
         -1   -1    0    0    0  501 -0.00000000000E+00  0.00000000000E+00  0.16782704122E+02  0.16782704122E+02  0.00000000000E+00 0.  1.
          1   -1    0    0  501    0  0.00000000000E+00 -0.00000000000E+00 -0.92164860161E+03  0.92164860161E+03  0.00000000000E+00 0. -1.
         25    2    1    2    0    0  0.49553897457E+02 -0.22660483017E+02 -0.63578700785E+03  0.65026329887E+03  0.12509257479E+03 0.  0.
          5    1    3    3  502    0  0.64028915556E+02 -0.64351604830E+02 -0.38424329135E+03  0.39484327323E+03  0.41800000000E+01 0.  1.
         -5    1    3    3    0  502 -0.14475018099E+02  0.41691121812E+02 -0.25154371650E+03  0.25542002564E+03  0.41800000000E+01 0.  1.
        -11    1    1    2    0    0  0.92549504013E+01  0.34154752226E+02 -0.15844929784E+03  0.16235264455E+03  0.00000000000E+00 0. -1.
         11    1    1    2    0    0 -0.58808847859E+02 -0.11494269208E+02 -0.11062959180E+03  0.12581536231E+03  0.00000000000E+00 0.  1.
</event>
<event>
 7    1  0.2384639E-009  0.1571886E+03  0.7561462E-02  0.1191908E+00
          2   -1    0    0  501    0  0.00000000000E+00  0.00000000000E+00  0.95934514729E+03  0.95934514729E+03  0.00000000000E+00 0.  1.
         -2   -1    0    0    0  501 -0.00000000000E+00 -0.00000000000E+00 -0.30764995429E+02  0.30764995429E+02  0.00000000000E+00 0. -1.
         25    2    1    2    0    0  0.12985514859E+03  0.16190449026E+02  0.50929151409E+03  0.54050785952E+03  0.12508560918E+03 0.  0.
          5    1    3    3  502    0  0.13577144836E+03  0.48655049850E+02  0.44945884819E+03  0.47205076917E+03  0.41800000000E+01 0. -1.
         -5    1    3    3    0  502 -0.59162997633E+01 -0.32464600825E+02  0.59832665902E+02  0.68457090345E+02  0.41800000000E+01 0. -1.
        -11    1    1    2    0    0 -0.96993492506E+02  0.59939378593E+01  0.38534093230E+03  0.39740571081E+03  0.00000000000E+00 0.  1.
         11    1    1    2    0    0 -0.32861656087E+02 -0.22184386885E+02  0.33947705473E+02  0.52196572389E+02  0.00000000000E+00 0. -1.
</event>
<event>
 7    1  0.2384639E-009  0.3200828E+03  0.7561462E-02  0.1075611E+00
          1   -1    0    0  501    0  0.00000000000E+00  0.00000000000E+00  0.53346101506E+03  0.53346101506E+03  0.00000000000E+00 0. -1.
         -1   -1    0    0    0  501 -0.00000000000E+00 -0.00000000000E+00 -0.20697377570E+03  0.20697377570E+03  0.00000000000E+00 0.  1.
         25    2    1    2    0    0 -0.36139577389E+02  0.30976662933E+03  0.12893147985E+03  0.35990630673E+03  0.12509112450E+03 0.  0.
          5    1    3    3  502    0 -0.71510785200E+00  0.28419183153E+03  0.13660848882E+03  0.31534879119E+03  0.41800000000E+01 0.  1.
         -5    1    3    3    0  502 -0.35424469537E+02  0.25574797799E+02 -0.76770089720E+01  0.44557515541E+02  0.41800000000E+01 0.  1.
        -11    1    1    2    0    0  0.11993940193E+02 -0.14890888339E+03  0.41345072049E+02  0.15500685513E+03  0.00000000000E+00 0.  1.
         11    1    1    2    0    0  0.24145637197E+02 -0.16085774594E+03  0.15621068747E+03  0.22552162890E+03  0.00000000000E+00 0. -1.
</event>
<event>
 7    1  0.2384639E-009  0.1040689E+03  0.7561462E-02  0.1271965E+00
          2   -1    0    0  501    0  0.00000000000E+00  0.00000000000E+00  0.26501379380E+03  0.26501379380E+03  0.00000000000E+00 0. -1.
         -2   -1    0    0    0  501 -0.00000000000E+00 -0.00000000000E+00 -0.53883802333E+02  0.53883802333E+02  0.00000000000E+00 0.  1.
         25    2    1    2    0    0 -0.83224727425E+01  0.40545596848E+02  0.15705987558E+03  0.20500992507E+03  0.12509218953E+03 0.  0.
          5    1    3    3  502    0  0.43077826361E+02  0.51749643473E+02  0.44852535797E+02  0.81012018189E+02  0.41800000000E+01 0. -1.
         -5    1    3    3    0  502 -0.51400299104E+02 -0.11204046626E+02  0.11220733978E+03  0.12399790688E+03  0.41800000000E+01 0. -1.
        -11    1    1    2    0    0 -0.10033342922E+00 -0.63474832191E+02  0.61473398488E+02  0.88363132075E+02  0.00000000000E+00 0. -1.
         11    1    1    2    0    0  0.84228061718E+01  0.22929235343E+02 -0.74032826043E+01  0.25524538988E+02  0.00000000000E+00 0.  1.
</event>
<event>
 7    1  0.2384639E-009  0.1103928E+03  0.7561462E-02  0.1259844E+00
          2   -1    0    0  501    0  0.00000000000E+00  0.00000000000E+00  0.81138504177E+02  0.81138504177E+02  0.00000000000E+00 0.  1.
         -2   -1    0    0    0  501 -0.00000000000E+00 -0.00000000000E+00 -0.17077221431E+03  0.17077221431E+03  0.00000000000E+00 0. -1.
         25    2    1    2    0    0 -0.79010065529E+01 -0.26294392182E+02 -0.89980892102E+02  0.15651790068E+03  0.12508985300E+03 0.  0.
          5    1    3    3  502    0  0.57197729366E+02 -0.11035092714E+02 -0.26169824035E+02  0.63997543748E+02  0.41800000000E+01 0.  1.
         -5    1    3    3    0  502 -0.65098735918E+02 -0.15259299468E+02 -0.63811068067E+02  0.92520356929E+02  0.41800000000E+01 0.  1.
        -11    1    1    2    0    0 -0.39708267363E+02 -0.24362458430E+01 -0.20682559464E+00  0.39783471035E+02  0.00000000000E+00 0.  1.
         11    1    1    2    0    0  0.47609273916E+02  0.28730638025E+02  0.55400756487E+00  0.55609346773E+02  0.00000000000E+00 0. -1.
</event>
<event>
 7    1  0.2384639E-009  0.9263752E+02  0.7561462E-02  0.1296587E+00
          2   -1    0    0  501    0  0.00000000000E+00  0.00000000000E+00  0.43601402935E+03  0.43601402935E+03  0.00000000000E+00 0.  1.
         -2   -1    0    0    0  501 -0.00000000000E+00 -0.00000000000E+00 -0.32538687694E+02  0.32538687694E+02  0.00000000000E+00 0. -1.
         25    2    1    2    0    0  0.14817003025E+02 -0.94694308949E+01  0.16195610176E+03  0.20539314789E+03  0.12508937846E+03 0.  0.
          5    1    3    3  502    0  0.22975566971E+02 -0.42929102796E+02  0.10461574282E+02  0.49977009524E+02  0.41800000000E+01 0.  1.
         -5    1    3    3    0  502 -0.81585639466E+01  0.33459671901E+02  0.15149452748E+03  0.15541613837E+03  0.41800000000E+01 0.  1.
        -11    1    1    2    0    0 -0.48186027088E+02 -0.24532824092E+02  0.97832378780E+02  0.11178070944E+03  0.00000000000E+00 0.  1.
         11    1    1    2    0    0  0.33369024064E+02  0.34002254987E+02  0.14368686111E+03  0.15137885971E+03  0.00000000000E+00 0. -1.
</event>
<event>
 7    1  0.2384639E-009  0.9929223E+02  0.7561462E-02  0.1281791E+00
          2   -1    0    0  501    0  0.00000000000E+00  0.00000000000E+00  0.88271658286E+03  0.88271658286E+03  0.00000000000E+00 0. -1.
         -2   -1    0    0    0  501 -0.00000000000E+00 -0.00000000000E+00 -0.22916384791E+02  0.22916384791E+02  0.00000000000E+00 0.  1.
         25    2    1    2    0    0  0.53188151571E+02 -0.21129243902E+02  0.45868401721E+03  0.47886793855E+03  0.12509216807E+03 0.  0.
          5    1    3    3  502    0  0.60316298684E+02 -0.19845801369E+01  0.45331823759E+03  0.45733673741E+03  0.41800000000E+01 0. -1.
         -5    1    3    3    0  502 -0.71281471124E+01 -0.19144663766E+02  0.53657796177E+01  0.21531201148E+02  0.41800000000E+01 0. -1.
        -11    1    1    2    0    0 -0.18255113364E+01  0.55440315539E+02  0.32018931525E+03  0.32495870304E+03  0.00000000000E+00 0. -1.
         11    1    1    2    0    0 -0.51362640235E+02 -0.34311071637E+02  0.80926865601E+02  0.10180632605E+03  0.00000000000E+00 0.  1.
</event>
<event>
 7    1  0.2384639E-009  0.1502859E+03  0.7561462E-02  0.1200122E+00
         -1   -1    0    0    0  501 -0.00000000000E+00  0.00000000000E+00  0.56270405870E+02  0.56270405870E+02  0.00000000000E+00 0.  1.
          1   -1    0    0  501    0  0.00000000000E+00 -0.00000000000E+00 -0.60437243283E+03  0.60437243283E+03  0.00000000000E+00 0. -1.
         25    2    1    2    0    0  0.24326536424E+02  0.13778970253E+03 -0.19622270776E+03  0.27152980033E+03  0.12508916390E+03 0.  0.
          5    1    3    3  502    0 -0.11461786726E+02  0.57532379815E+01 -0.10767982035E+03  0.10852137307E+03  0.41800000000E+01 0. -1.
         -5    1    3    3    0  502  0.35788323150E+02  0.13203646455E+03 -0.88542887408E+02  0.16300842725E+03  0.41800000000E+01 0. -1.
        -11    1    1    2    0    0 -0.22160164141E+02 -0.13580512940E+02 -0.14878185524E+03  0.15103490873E+03  0.00000000000E+00 0. -1.
         11    1    1    2    0    0 -0.21663722835E+01 -0.12420918959E+03 -0.20309746396E+03  0.23807812964E+03  0.00000000000E+00 0.  1.
</event>
<event>
 7    1  0.2384639E-009  0.7410815E+02  0.7561462E-02  0.1346655E+00
          2   -1    0    0  501    0  0.00000000000E+00  0.00000000000E+00  0.41323132309E+03  0.41323132309E+03  0.00000000000E+00 0. -1.
         -2   -1    0    0    0  501 -0.00000000000E+00 -0.00000000000E+00 -0.38081196081E+02  0.38081196081E+02  0.00000000000E+00 0.  1.
         25    2    1    2    0    0  0.59582538695E+02  0.16707926426E+02  0.18526802717E+03  0.23195195485E+03  0.12509290045E+03 0.  0.
          5    1    3    3  502    0  0.68806789829E+02  0.14061440807E+02  0.20105585084E+03  0.21300945049E+03  0.41800000000E+01 0.  1.
         -5    1    3    3    0  502 -0.92242511342E+01  0.26464856192E+01 -0.15787823664E+02  0.18942504353E+02  0.41800000000E+01 0.  1.
        -11    1    1    2    0    0 -0.79594513302E+01 -0.13501874314E+02 -0.59866515530E+01  0.16777767202E+02  0.00000000000E+00 0.  1.
         11    1    1    2    0    0 -0.51623087365E+02 -0.32060521125E+01  0.19586875138E+03  0.20258279712E+03  0.00000000000E+00 0. -1.
</event>
<event>
 7    1  0.2384639E-009  0.1035103E+03  0.7561462E-02  0.1273083E+00
          1   -1    0    0  501    0  0.00000000000E+00  0.00000000000E+00  0.44578553269E+03  0.44578553269E+03  0.00000000000E+00 0. -1.
         -1   -1    0    0    0  501 -0.00000000000E+00 -0.00000000000E+00 -0.61957009078E+02  0.61957009078E+02  0.00000000000E+00 0.  1.
         25    2    1    2    0    0 -0.27405308897E+02 -0.71336249833E+02  0.56718921311E+02  0.15717732910E+03  0.12509102786E+03 0.  0.
          5    1    3    3  502    0 -0.50503639246E+01  0.17275857164E+02 -0.27300212127E+02  0.32965670002E+02  0.41800000000E+01 0. -1.
         -5    1    3    3    0  502 -0.22354944973E+02 -0.88612106997E+02  0.84019133438E+02  0.12421165909E+03  0.41800000000E+01 0. -1.
        -11    1    1    2    0    0  0.17420848260E+02 -0.64931283951E+01  0.53070569987E+01  0.19334206072E+02  0.00000000000E+00 0.  1.
         11    1    1    2    0    0  0.99844606374E+01  0.77829378228E+02  0.32180254530E+03  0.33123100660E+03  0.00000000000E+00 0. -1.
</event>
<event>
 7    1  0.2384639E-009  0.1147300E+03  0.7561462E-02  0.1252053E+00
          1   -1    0    0  501    0  0.00000000000E+00  0.00000000000E+00  0.34071520647E+02  0.34071520647E+02  0.00000000000E+00 0. -1.
         -1   -1    0    0    0  501 -0.00000000000E+00 -0.00000000000E+00 -0.46586338046E+03  0.46586338046E+03  0.00000000000E+00 0.  1.
         25    2    1    2    0    0 -0.86530769291E+00  0.48698476369E+02 -0.19023970635E+03  0.23283011084E+03  0.12508566779E+03 0.  0.
          5    1    3    3  502    0 -0.36763443339E+02  0.69590567930E+02 -0.16791176380E+03  0.18548916608E+03  0.41800000000E+01 0. -1.
         -5    1    3    3    0  502  0.35898135646E+02 -0.20892091562E+02 -0.22327942543E+02  0.47340944761E+02  0.41800000000E+01 0. -1.
        -11    1    1    2    0    0  0.34905563629E+02  0.13958564020E+02 -0.48904079472E+02  0.61683457027E+02  0.00000000000E+00 0. -1.
         11    1    1    2    0    0 -0.34040255936E+02 -0.62657040388E+02 -0.19264807399E+03  0.20542133323E+03  0.00000000000E+00 0.  1.
</event>
<event>
 7    1  0.2384639E-009  0.1139707E+03  0.7561462E-02  0.1253389E+00
         -1   -1    0    0    0  501 -0.00000000000E+00  0.00000000000E+00  0.27217141995E+02  0.27217141995E+02  0.00000000000E+00 0.  1.
          1   -1    0    0  501    0  0.00000000000E+00 -0.00000000000E+00 -0.75193044921E+03  0.75193044921E+03  0.00000000000E+00 0. -1.
         25    2    1    2    0    0  0.23589109035E+02  0.69320198688E+02 -0.54292498878E+03  0.56194067302E+03  0.12509212818E+03 0.  0.
          5    1    3    3  502    0  0.12632501266E+02 -0.29928024558E+02 -0.25646838351E+03  0.25855129255E+03  0.41800000000E+01 0. -1.
         -5    1    3    3    0  502  0.10956607769E+02  0.99248223246E+02 -0.28645660527E+03  0.30338938046E+03  0.41800000000E+01 0. -1.
        -11    1    1    2    0    0 -0.28265362630E+02 -0.26204448452E+01 -0.58384404323E+01  0.28980766768E+02  0.00000000000E+00 0.  1.
         11    1    1    2    0    0  0.46762535948E+01 -0.66699753843E+02 -0.17594987800E+03  0.18822615142E+03  0.00000000000E+00 0. -1.
</event>
<event>
 7    1  0.2384639E-009  0.1131282E+03  0.7561462E-02  0.1254884E+00
         -2   -1    0    0    0  501 -0.00000000000E+00  0.00000000000E+00  0.17172554754E+03  0.17172554754E+03  0.00000000000E+00 0.  1.
          2   -1    0    0  501    0  0.00000000000E+00 -0.00000000000E+00 -0.77791763980E+02  0.77791763980E+02  0.00000000000E+00 0. -1.
         25    2    1    2    0    0  0.33077897083E+02  0.14511008538E+02  0.70844779463E+02  0.14823172088E+03  0.12509573795E+03 0.  0.
          5    1    3    3  502    0 -0.27725517058E+02 -0.39692644041E+02  0.24555018910E+02  0.54448431022E+02  0.41800000000E+01 0. -1.
         -5    1    3    3    0  502  0.60803414141E+02  0.54203652579E+02  0.46289760553E+02  0.93783289856E+02  0.41800000000E+01 0. -1.
        -11    1    1    2    0    0  0.30909214910E+02 -0.67742700426E+01 -0.29312105952E+01  0.31778330612E+02  0.00000000000E+00 0. -1.
         11    1    1    2    0    0 -0.63987111993E+02 -0.77367384955E+01  0.26020214687E+02  0.69507260025E+02  0.00000000000E+00 0.  1.
</event>
<event>
 7    1  0.2384639E-009  0.1161371E+03  0.7561462E-02  0.1249609E+00
          2   -1    0    0  501    0  0.00000000000E+00  0.00000000000E+00  0.16682651686E+04  0.16682651686E+04  0.00000000000E+00 0. -1.
         -2   -1    0    0    0  501 -0.00000000000E+00 -0.00000000000E+00 -0.10142279519E+02  0.10142279519E+02  0.00000000000E+00 0.  1.
         25    2    1    2    0    0 -0.41042856478E+02 -0.36092466242E+02  0.12202189693E+04  0.12278310249E+04  0.12509001019E+03 0.  0.
          5    1    3    3  502    0  0.32322572782E+02  0.22761757773E+02  0.26210463413E+03  0.26510216514E+03  0.41800000000E+01 0.  1.
         -5    1    3    3    0  502 -0.73365429259E+02 -0.58854224015E+02  0.95811433514E+03  0.96272885980E+03  0.41800000000E+01 0.  1.
        -11    1    1    2    0    0  0.62715699407E+02  0.42516051993E+02  0.39373720821E+03  0.40096117363E+03  0.00000000000E+00 0. -1.
         11    1    1    2    0    0 -0.21672842929E+02 -0.64235857511E+01  0.44166711625E+02  0.49615249574E+02  0.00000000000E+00 0.  1.
</event>
<event>
 7    1  0.2384639E-009  0.1072307E+03  0.7561462E-02  0.1265786E+00
         -2   -1    0    0    0  501 -0.00000000000E+00  0.00000000000E+00  0.58854308902E+02  0.58854308902E+02  0.00000000000E+00 0.  1.
          2   -1    0    0  501    0  0.00000000000E+00 -0.00000000000E+00 -0.23458099580E+03  0.23458099580E+03  0.00000000000E+00 0. -1.
         25    2    1    2    0    0  0.13245511137E+02 -0.61311877645E+02 -0.10743944725E+03  0.17641567066E+03  0.12507863175E+03 0.  0.
          5    1    3    3  502    0 -0.42144492353E+02  0.13604909573E+02 -0.20748165202E+02  0.49083709715E+02  0.41800000000E+01 0.  1.
         -5    1    3    3    0  502  0.55390003490E+02 -0.74916787218E+02 -0.86691282050E+02  0.12733196094E+03  0.41800000000E+01 0.  1.
        -11    1    1    2    0    0 -0.28075529145E+02  0.25393720207E+02  0.67567559769E+00  0.37862024513E+02  0.00000000000E+00 0.  1.
         11    1    1    2    0    0  0.14830018008E+02  0.35918157438E+02 -0.68962915241E+02  0.79157609529E+02  0.00000000000E+00 0. -1.
</event>
<event>
 7    1  0.2384639E-009  0.1190643E+03  0.7561462E-02  0.1244649E+00
          1   -1    0    0  501    0  0.00000000000E+00  0.00000000000E+00  0.75817864528E+02  0.75817864528E+02  0.00000000000E+00 0. -1.
         -1   -1    0    0    0  501 -0.00000000000E+00 -0.00000000000E+00 -0.23980786974E+03  0.23980786974E+03  0.00000000000E+00 0.  1.
         25    2    1    2    0    0  0.59875223250E+02 -0.37382753380E+02 -0.13396659539E+03  0.19640997567E+03  0.12508923716E+03 0.  0.
          5    1    3    3  502    0  0.65094819600E+02  0.24633400665E+02 -0.31634516075E+02  0.76566017099E+02  0.41800000000E+01 0.  1.
         -5    1    3    3    0  502 -0.52195963503E+01 -0.62016154045E+02 -0.10233207931E+03  0.11984395857E+03  0.41800000000E+01 0.  1.
        -11    1    1    2    0    0 -0.32826904946E+02 -0.22852603968E+02  0.10996243677E+02  0.41482099410E+02  0.00000000000E+00 0.  1.
         11    1    1    2    0    0 -0.27048318304E+02  0.60235357347E+02 -0.41019653496E+02  0.77733659188E+02  0.00000000000E+00 0. -1.
</event>
<event>
 7    1  0.3304966E-009  0.1213038E+03  0.7561462E-02  0.1240962E+00
          2   -1    0    0  501    0  0.00000000000E+00  0.00000000000E+00  0.17350573861E+04  0.17350573861E+04  0.00000000000E+00 0. -1.
         -2   -1    0    0    0  501 -0.00000000000E+00 -0.00000000000E+00 -0.12612390046E+02  0.12612390046E+02  0.00000000000E+00 0.  1.
         25    2    1    2    0    0 -0.54430657153E+02 -0.37245137000E+02  0.13821495559E+04  0.13893648933E+04  0.12509002921E+03 0.  0.
          5    1    3    3  502    0  0.27963141954E+01 -0.73394105798E+02  0.70511033778E+03  0.70893763829E+03  0.41800000000E+01 0. -1.
         -5    1    3    3    0  502 -0.57226971348E+02  0.36148968798E+02  0.67703921809E+03  0.68042725506E+03  0.41800000000E+01 0. -1.
        -11    1    1    2    0    0  0.25189054550E+02 -0.23093807190E+02  0.19892976697E+03  0.20184366372E+03  0.00000000000E+00 0.  1.
         11    1    1    2    0    0  0.29241602603E+02  0.60338944190E+02  0.14136567317E+03  0.15646121903E+03  0.00000000000E+00 0. -1.
</event>
<event>
 7    1  0.2384639E-009  0.9036885E+02  0.7561462E-02  0.1301961E+00
         -1   -1    0    0    0  501 -0.00000000000E+00  0.00000000000E+00  0.61698234841E+02  0.61698234841E+02  0.00000000000E+00 0.  1.
          1   -1    0    0  501    0  0.00000000000E+00 -0.00000000000E+00 -0.20601012196E+03  0.20601012196E+03  0.00000000000E+00 0. -1.
         25    2    1    2    0    0  0.16634005512E+02  0.70641193188E+01 -0.97038511816E+02  0.15934312084E+03  0.12508863043E+03 0.  0.
          5    1    3    3  502    0 -0.61977444090E+01  0.61449032115E+02 -0.26599701662E+02  0.67375159459E+02  0.41800000000E+01 0. -1.
         -5    1    3    3    0  502  0.22831749921E+02 -0.54384912796E+02 -0.70438810154E+02  0.91967961379E+02  0.41800000000E+01 0. -1.
        -11    1    1    2    0    0  0.13575933157E+02 -0.22117653689E+02  0.20222397367E+02  0.32900485119E+02  0.00000000000E+00 0.  1.
         11    1    1    2    0    0 -0.30209938669E+02  0.15053534370E+02 -0.67495772667E+02  0.75464750840E+02  0.00000000000E+00 0. -1.
</event>
<event>
 7    1  0.2384639E-009  0.1290911E+03  0.7561462E-02  0.1228811E+00
         -1   -1    0    0    0  501 -0.00000000000E+00  0.00000000000E+00  0.64295286661E+03  0.64295286661E+03  0.00000000000E+00 0.  1.
          1   -1    0    0  501    0  0.00000000000E+00 -0.00000000000E+00 -0.26550787772E+02  0.26550787772E+02  0.00000000000E+00 0. -1.
         25    2    1    2    0    0  0.66580057103E+02  0.36563153826E+01  0.29519393757E+03  0.32746810657E+03  0.12509847081E+03 0.  0.
          5    1    3    3  502    0 -0.36971886827E+02 -0.34881926359E+01  0.66374223436E+02  0.76171502809E+02  0.41800000000E+01 0. -1.
         -5    1    3    3    0  502  0.10355194393E+03  0.71445080185E+01  0.22881971413E+03  0.25129660376E+03  0.41800000000E+01 0. -1.
        -11    1    1    2    0    0 -0.80997543308E+02  0.25069463120E+02  0.24763512132E+03  0.26174841607E+03  0.00000000000E+00 0.  1.
         11    1    1    2    0    0  0.14417486205E+02 -0.28725778503E+02  0.73573019943E+02  0.80287131737E+02  0.00000000000E+00 0. -1.
</event>
<event>
 7    1  0.2384639E-009  0.1012845E+03  0.7561462E-02  0.1277618E+00
         -3   -1    0    0    0  501 -0.00000000000E+00  0.00000000000E+00  0.74474697506E+03  0.74474697506E+03  0.00000000000E+00 0.  1.
          3   -1    0    0  501    0  0.00000000000E+00 -0.00000000000E+00 -0.20523968484E+02  0.20523968484E+02  0.00000000000E+00 0. -1.
         25    2    1    2    0    0 -0.25765314315E+02 -0.52041269399E+02  0.40166993439E+03  0.42468612097E+03  0.12508964789E+03 0.  0.
          5    1    3    3  502    0 -0.59134728259E+02 -0.22830726937E+02  0.35315439607E+03  0.35882259968E+03  0.41800000000E+01 0. -1.
         -5    1    3    3    0  502  0.33369413944E+02 -0.29210542462E+02  0.48515538314E+02  0.65863521283E+02  0.41800000000E+01 0. -1.
        -11    1    1    2    0    0  0.36127423901E+02  0.67106139328E+02  0.30778714567E+03  0.31708256296E+03  0.00000000000E+00 0.  1.
         11    1    1    2    0    0 -0.10362109586E+02 -0.15064869929E+02  0.14765926514E+02  0.23502259612E+02  0.00000000000E+00 0. -1.
</event>
<event>
 7    1  0.2384639E-009  0.1195399E+03  0.7561462E-02  0.1243858E+00
          2   -1    0    0  501    0  0.00000000000E+00  0.00000000000E+00  0.13857818548E+04  0.13857818548E+04  0.00000000000E+00 0. -1.
         -2   -1    0    0    0  501 -0.00000000000E+00 -0.00000000000E+00 -0.14747874804E+02  0.14747874804E+02  0.00000000000E+00 0.  1.
         25    2    1    2    0    0  0.15925321919E+01 -0.78961229262E+02  0.99783108713E+03  0.10087375589E+04  0.12508865801E+03 0.  0.
          5    1    3    3  502    0 -0.38577036910E+02  0.18090755115E+02  0.28647892038E+03  0.28966033111E+03  0.41800000000E+01 0.  1.
         -5    1    3    3    0  502  0.40169569102E+02 -0.97051984377E+02  0.71135216675E+03  0.71907722777E+03  0.41800000000E+01 0.  1.
        -11    1    1    2    0    0 -0.20239061775E+02  0.64351192534E+02  0.35645266952E+03  0.36277982470E+03  0.00000000000E+00 0. -1.
         11    1    1    2    0    0  0.18646529583E+02  0.14610036728E+02  0.16750223306E+02  0.29012345984E+02  0.00000000000E+00 0.  1.
</event>
<event>
 7    1  0.2384639E-009  0.8940554E+02  0.7561462E-02  0.1304298E+00
          1   -1    0    0  501    0  0.00000000000E+00  0.00000000000E+00  0.60647360539E+03  0.60647360539E+03  0.00000000000E+00 0. -1.
         -1   -1    0    0    0  501 -0.00000000000E+00 -0.00000000000E+00 -0.21046505930E+02  0.21046505930E+02  0.00000000000E+00 0.  1.
         25    2    1    2    0    0  0.79791054029E+00 -0.26307831239E+00  0.42464033654E+03  0.44268083143E+03  0.12508476015E+03 0.  0.
          5    1    3    3  502    0 -0.44602142368E+02  0.19951063900E+02  0.75711368523E+02  0.90205763553E+02  0.41800000000E+01 0.  1.
         -5    1    3    3    0  502  0.45400052908E+02 -0.20214142212E+02  0.34892896802E+03  0.35247506787E+03  0.41800000000E+01 0.  1.
        -11    1    1    2    0    0  0.31953155213E+01  0.39917071434E+02  0.36018097685E+02  0.53859873691E+02  0.00000000000E+00 0.  1.
         11    1    1    2    0    0 -0.39932260616E+01 -0.39653993122E+02  0.12476866523E+03  0.13097940620E+03  0.00000000000E+00 0. -1.
</event>
<event>
 7    1  0.2384639E-009  0.1093214E+03  0.7561462E-02  0.1261832E+00
          2   -1    0    0  501    0  0.00000000000E+00  0.00000000000E+00  0.26821480328E+03  0.26821480328E+03  0.00000000000E+00 0. -1.
         -2   -1    0    0    0  501 -0.00000000000E+00 -0.00000000000E+00 -0.67245761908E+02  0.67245761908E+02  0.00000000000E+00 0.  1.
         25    2    1    2    0    0 -0.17017844790E+02 -0.65836089341E+02  0.12411343034E+03  0.18888114466E+03  0.12509174840E+03 0.  0.
          5    1    3    3  502    0 -0.26486706561E+02  0.61490225396E+00 -0.17558030708E+02  0.32057457348E+02  0.41800000000E+01 0. -1.
         -5    1    3    3    0  502  0.94688617712E+01 -0.66450991595E+02  0.14167146105E+03  0.15682368731E+03  0.41800000000E+01 0. -1.
        -11    1    1    2    0    0 -0.37620766572E+02  0.58340563701E+02  0.47379865332E+02  0.84046386533E+02  0.00000000000E+00 0. -1.
         11    1    1    2    0    0  0.54638611362E+02  0.74955256398E+01  0.29475745704E+02  0.62533033998E+02  0.00000000000E+00 0.  1.
</event>
<event>
 7    1  0.2384639E-009  0.1306190E+03  0.7561462E-02  0.1226540E+00
         -2   -1    0    0    0  501 -0.00000000000E+00  0.00000000000E+00  0.38054010043E+03  0.38054010043E+03  0.00000000000E+00 0. -1.
          2   -1    0    0  501    0  0.00000000000E+00 -0.00000000000E+00 -0.61946921386E+02  0.61946921386E+02  0.00000000000E+00 0.  1.
         25    2    1    2    0    0  0.96346566453E+02 -0.29632078995E+02  0.22813595014E+03  0.27902243724E+03  0.12508712069E+03 0.  0.
          5    1    3    3  502    0  0.67627810630E+02  0.34923545998E+02  0.61382788258E+02  0.97869780474E+02  0.41800000000E+01 0.  1.
         -5    1    3    3    0  502  0.28718755823E+02 -0.64555624993E+02  0.16675316188E+03  0.18115265676E+03  0.41800000000E+01 0.  1.
        -11    1    1    2    0    0 -0.47048077346E+02 -0.13265062851E+02 -0.35096000217E+01  0.49008170407E+02  0.00000000000E+00 0.  1.
         11    1    1    2    0    0 -0.49298489107E+02  0.42897141846E+02  0.93966828925E+02  0.11445641417E+03  0.00000000000E+00 0. -1.
</event>
<event>
 7    1  0.2384639E-009  0.8796002E+02  0.7561462E-02  0.1307868E+00
         -3   -1    0    0    0  501 -0.00000000000E+00  0.00000000000E+00  0.18165440317E+03  0.18165440317E+03  0.00000000000E+00 0.  1.
          3   -1    0    0  501    0  0.00000000000E+00 -0.00000000000E+00 -0.71575243201E+02  0.71575243201E+02  0.00000000000E+00 0. -1.
         25    2    1    2    0    0  0.29826378683E+02  0.10455615187E+01  0.52113507079E+02  0.13874967646E+03  0.12507977068E+03 0.  0.
          5    1    3    3  502    0  0.46086673649E+02  0.24774274672E+02  0.81805852783E+02  0.97197819539E+02  0.41800000000E+01 0. -1.
         -5    1    3    3    0  502 -0.16260294967E+02 -0.23728713153E+02 -0.29692345704E+02  0.41551856923E+02  0.41800000000E+01 0. -1.
        -11    1    1    2    0    0  0.61994590837E+00 -0.42734616948E+02  0.43240266810E+02  0.60797635583E+02  0.00000000000E+00 0.  1.
         11    1    1    2    0    0 -0.30446324591E+02  0.41689055430E+02  0.14725386084E+02  0.53682334329E+02  0.00000000000E+00 0. -1.
</event>
<event>
 7    1  0.2384639E-009  0.1027910E+03  0.7561462E-02  0.1274534E+00
         -2   -1    0    0    0  501 -0.00000000000E+00  0.00000000000E+00  0.38270923150E+02  0.38270923150E+02  0.00000000000E+00 0.  1.
          2   -1    0    0  501    0  0.00000000000E+00 -0.00000000000E+00 -0.55916174613E+03  0.55916174613E+03  0.00000000000E+00 0. -1.
         25    2    1    2    0    0 -0.41325508746E+02  0.40292124118E+02 -0.44305788307E+03  0.46398189009E+03  0.12509058177E+03 0.  0.
          5    1    3    3  502    0 -0.70711725048E+02  0.11265648315E+02 -0.39036208165E+03  0.39689682549E+03  0.41800000000E+01 0. -1.
         -5    1    3    3    0  502  0.29386216302E+02  0.29026475803E+02 -0.52695801414E+02  0.67085064603E+02  0.41800000000E+01 0. -1.
        -11    1    1    2    0    0 -0.15523533418E+02  0.82565033033E+01 -0.51126701909E+02  0.54065604451E+02  0.00000000000E+00 0. -1.
         11    1    1    2    0    0  0.56849042164E+02 -0.48548627421E+02 -0.26706238002E+02  0.79385174734E+02  0.00000000000E+00 0.  1.
</event>
<event>
 7    1  0.2384639E-009  0.1255505E+03  0.7561462E-02  0.1234211E+00
          3   -1    0    0  501    0  0.00000000000E+00  0.00000000000E+00  0.69452774659E+03  0.69452774659E+03  0.00000000000E+00 0. -1.
         -3   -1    0    0    0  501 -0.00000000000E+00 -0.00000000000E+00 -0.34469159043E+02  0.34469159043E+02  0.00000000000E+00 0.  1.
         25    2    1    2    0    0 -0.38098145262E+02 -0.99573711949E+02  0.28449706766E+03  0.32856072874E+03  0.12508868124E+03 0.  0.
          5    1    3    3  502    0 -0.11542154085E+02 -0.79606769717E+02  0.28386101149E+03  0.29506779789E+03  0.41800000000E+01 0. -1.
         -5    1    3    3    0  502 -0.26555991178E+02 -0.19966942233E+02  0.63605617459E+00  0.33492930851E+02  0.41800000000E+01 0. -1.
        -11    1    1    2    0    0  0.77459548508E+01  0.10579911870E+03  0.26038998456E+03  0.28116969501E+03  0.00000000000E+00 0.  1.
         11    1    1    2    0    0  0.30352190412E+02 -0.62254067513E+01  0.11517153532E+03  0.11926648188E+03  0.00000000000E+00 0. -1.
</event>
<event>
 7    1  0.2384639E-009  0.9354082E+02  0.7561462E-02  0.1294497E+00
         -1   -1    0    0    0  501 -0.00000000000E+00  0.00000000000E+00  0.28624681421E+02  0.28624681421E+02  0.00000000000E+00 0.  1.
          1   -1    0    0  501    0  0.00000000000E+00 -0.00000000000E+00 -0.41869608234E+03  0.41869608234E+03  0.00000000000E+00 0. -1.
         25    2    1    2    0    0  0.12566003195E+02  0.10798523756E+02 -0.24907695701E+03  0.27921484270E+03  0.12508831008E+03 0.  0.
          5    1    3    3  502    0  0.40151223908E+02  0.51140415793E+02 -0.80040366063E+02  0.10320559824E+03  0.41800000000E+01 0.  1.
         -5    1    3    3    0  502 -0.27585220713E+02 -0.40341892038E+02 -0.16903659095E+03  0.17600924446E+03  0.41800000000E+01 0.  1.
        -11    1    1    2    0    0  0.29550350104E+02 -0.82733173904E+01 -0.11390480354E+03  0.11796599189E+03  0.00000000000E+00 0. -1.
         11    1    1    2    0    0 -0.42116353300E+02 -0.25252063653E+01 -0.27089640364E+02  0.50139929173E+02  0.00000000000E+00 0.  1.
</event>
<event>
 7    1  0.2384639E-009  0.1474143E+03  0.7561462E-02  0.1203687E+00
          1   -1    0    0  501    0  0.00000000000E+00  0.00000000000E+00  0.46910063092E+02  0.46910063092E+02  0.00000000000E+00 0. -1.
         -1   -1    0    0    0  501 -0.00000000000E+00 -0.00000000000E+00 -0.63949809268E+03  0.63949809268E+03  0.00000000000E+00 0.  1.
         25    2    1    2    0    0  0.82854186072E+00  0.12724159118E+03 -0.22803322163E+03  0.28955295367E+03  0.12510257313E+03 0.  0.
          5    1    3    3  502    0 -0.33142106790E+02  0.89727948181E+02 -0.21756969473E+03  0.23770475046E+03  0.41800000000E+01 0. -1.
         -5    1    3    3    0  502  0.33970648651E+02  0.37513642998E+02 -0.10463526902E+02  0.51848203209E+02  0.41800000000E+01 0. -1.
        -11    1    1    2    0    0  0.36166525688E+02 -0.42293601449E+02 -0.20429971555E+03  0.21174309925E+03  0.00000000000E+00 0.  1.
         11    1    1    2    0    0 -0.36995067549E+02 -0.84947989729E+02 -0.16025509240E+03  0.18511210285E+03  0.00000000000E+00 0. -1.
</event>
<event>
 7    1  0.2384639E-009  0.9387240E+02  0.7561462E-02  0.1293736E+00
          1   -1    0    0  501    0  0.00000000000E+00  0.00000000000E+00  0.90667719662E+03  0.90667719662E+03  0.00000000000E+00 0. -1.
         -1   -1    0    0    0  501 -0.00000000000E+00 -0.00000000000E+00 -0.11094683995E+02  0.11094683995E+02  0.00000000000E+00 0.  1.
         25    2    1    2    0    0  0.50242804087E+01 -0.19899827162E+02  0.59905434555E+03  0.61231948174E+03  0.12509113589E+03 0.  0.
          5    1    3    3  502    0 -0.53980001604E+02  0.93765265309E+00  0.16253253680E+03  0.17131555003E+03  0.41800000000E+01 0.  1.
         -5    1    3    3    0  502  0.59004282012E+02 -0.20837479815E+02  0.43652180876E+03  0.44100393171E+03  0.41800000000E+01 0.  1.
        -11    1    1    2    0    0  0.16833448044E+02  0.38602308461E+02  0.21260518125E+03  0.21673593677E+03  0.00000000000E+00 0. -1.
         11    1    1    2    0    0 -0.21857728452E+02 -0.18702481299E+02  0.83922985820E+02  0.88716462107E+02  0.00000000000E+00 0.  1.
</event>
<event>
 7    1  0.2384639E-009  0.1570934E+03  0.7561462E-02  0.1192018E+00
          1   -1    0    0  501    0  0.00000000000E+00  0.00000000000E+00  0.91051464845E+02  0.91051464845E+02  0.00000000000E+00 0. -1.
         -1   -1    0    0    0  501 -0.00000000000E+00 -0.00000000000E+00 -0.50030872698E+03  0.50030872698E+03  0.00000000000E+00 0.  1.
         25    2    1    2    0    0 -0.78734837286E+02 -0.12928385585E+03 -0.69152069823E+02  0.20819247570E+03  0.12509439712E+03 0.  0.
          5    1    3    3  502    0 -0.40826548993E+02 -0.61585182281E+02  0.32010250740E+02  0.80632935775E+02  0.41800000000E+01 0. -1.
         -5    1    3    3    0  502 -0.37908288294E+02 -0.67698673564E+02 -0.10116232056E+03  0.12755953992E+03  0.41800000000E+01 0. -1.
        -11    1    1    2    0    0  0.71870422467E+02  0.62213635866E+02 -0.26843985303E+03  0.28477332883E+03  0.00000000000E+00 0.  1.
         11    1    1    2    0    0  0.68644148190E+01  0.67070219979E+02 -0.71665339281E+02  0.98394387305E+02  0.00000000000E+00 0. -1.
</event>
<event>
 7    1  0.2384639E-009  0.1063984E+03  0.7561462E-02  0.1267389E+00
         -2   -1    0    0    0  501 -0.00000000000E+00  0.00000000000E+00  0.34388168681E+02  0.34388168681E+02  0.00000000000E+00 0.  1.
          2   -1    0    0  501    0  0.00000000000E+00 -0.00000000000E+00 -0.38365736889E+03  0.38365736889E+03  0.00000000000E+00 0. -1.
         25    2    1    2    0    0  0.35633191337E+02  0.20033239120E+02 -0.20976707586E+03  0.24762972758E+03  0.12508877196E+03 0.  0.
          5    1    3    3  502    0  0.24476660121E+01 -0.51690891104E+02 -0.94256870009E+02  0.10760933619E+03  0.41800000000E+01 0.  1.
         -5    1    3    3    0  502  0.33185525325E+02  0.71724130224E+02 -0.11551020585E+03  0.14002039138E+03  0.41800000000E+01 0.  1.
        -11    1    1    2    0    0 -0.21312393275E+02  0.25948797667E+02 -0.14722954656E+02  0.36665018768E+02  0.00000000000E+00 0.  1.
         11    1    1    2    0    0 -0.14320798062E+02 -0.45982036787E+02 -0.12477916970E+03  0.13375079123E+03  0.00000000000E+00 0. -1.
</event>
<event>
 7    1  0.2384639E-009  0.1217833E+03  0.7561462E-02  0.1240184E+00
          1   -1    0    0  501    0  0.00000000000E+00  0.00000000000E+00  0.12315161821E+03  0.12315161821E+03  0.00000000000E+00 0. -1.
         -1   -1    0    0    0  501 -0.00000000000E+00 -0.00000000000E+00 -0.15540834118E+03  0.15540834118E+03  0.00000000000E+00 0.  1.
         25    2    1    2    0    0  0.67154299906E+02 -0.25283544222E+02  0.28819346764E+02  0.14705566436E+03  0.12508339645E+03 0.  0.
          5    1    3    3  502    0  0.40870414090E+02  0.49428094916E+02  0.61354148100E+01  0.64565029465E+02  0.41800000000E+01 0. -1.
         -5    1    3    3    0  502  0.26283885816E+02 -0.74711639138E+02  0.22683931954E+02  0.82490634894E+02  0.41800000000E+01 0. -1.
        -11    1    1    2    0    0  0.12422864253E+02  0.15413307640E+02  0.11886484111E+02  0.23090823138E+02  0.00000000000E+00 0. -1.
         11    1    1    2    0    0 -0.79577164159E+02  0.98702365813E+01 -0.72962553843E+02  0.10841347190E+03  0.00000000000E+00 0.  1.
</event>
<event>
 7    1  0.2384639E-009  0.1148339E+03  0.7561462E-02  0.1251871E+00
         -1   -1    0    0    0  501 -0.00000000000E+00  0.00000000000E+00  0.46397647934E+02  0.46397647934E+02  0.00000000000E+00 0.  1.
          1   -1    0    0  501    0  0.00000000000E+00 -0.00000000000E+00 -0.50323338236E+03  0.50323338236E+03  0.00000000000E+00 0. -1.
         25    2    1    2    0    0  0.36159372334E+02  0.10118220224E+03 -0.27642890147E+03  0.32187696235E+03  0.12508598268E+03 0.  0.
          5    1    3    3  502    0 -0.27503060525E+00  0.56310704548E+02 -0.21462642785E+02  0.60407685967E+02  0.41800000000E+01 0. -1.
         -5    1    3    3    0  502  0.36434402939E+02  0.44871497693E+02 -0.25496625869E+03  0.26146927638E+03  0.41800000000E+01 0. -1.
        -11    1    1    2    0    0 -0.45196456934E+02 -0.91198267142E+02 -0.18688930037E+03  0.21280849194E+03  0.00000000000E+00 0. -1.
         11    1    1    2    0    0  0.90370846007E+01 -0.99839350986E+01  0.64824674199E+01  0.14945576000E+02  0.00000000000E+00 0.  1.
</event>
<event>
 7    1  0.2384639E-009  0.9467172E+02  0.7561462E-02  0.1291917E+00
         -1   -1    0    0    0  501 -0.00000000000E+00  0.00000000000E+00  0.62461257049E+02  0.62461257049E+02  0.00000000000E+00 0.  1.
          1   -1    0    0  501    0  0.00000000000E+00 -0.00000000000E+00 -0.36645326438E+03  0.36645326438E+03  0.00000000000E+00 0. -1.
         25    2    1    2    0    0  0.91521213898E+02  0.12601791629E+02 -0.23734122769E+03  0.28374854159E+03  0.12508972280E+03 0.  0.
          5    1    3    3  502    0  0.57598268896E+02  0.38824472061E+01 -0.24139972475E+03  0.24824168362E+03  0.41800000000E+01 0. -1.
         -5    1    3    3    0  502  0.33922945002E+02  0.87193444226E+01  0.40584970642E+01  0.35506857974E+02  0.41800000000E+01 0. -1.
        -11    1    1    2    0    0 -0.74526535465E+02  0.82407495552E+00  0.57939463730E+00  0.74533343452E+02  0.00000000000E+00 0.  1.
         11    1    1    2    0    0 -0.16994678433E+02 -0.13425866584E+02 -0.67230174279E+02  0.70632636381E+02  0.00000000000E+00 0. -1.
</event>
<event>
 7    1  0.2384639E-009  0.1267932E+03  0.7561462E-02  0.1232293E+00
          2   -1    0    0  501    0  0.00000000000E+00  0.00000000000E+00  0.51692853389E+03  0.51692853389E+03  0.00000000000E+00 0. -1.
         -2   -1    0    0    0  501 -0.00000000000E+00 -0.00000000000E+00 -0.67134504754E+02  0.67134504754E+02  0.00000000000E+00 0.  1.
         25    2    1    2    0    0  0.61261220938E+02  0.60237667785E+02  0.43200666176E+03  0.45788101096E+03  0.12507497986E+03 0.  0.
          5    1    3    3  502    0 -0.32171830039E+02 -0.40000627023E+01  0.15737978007E+03  0.16073859127E+03  0.41800000000E+01 0. -1.
         -5    1    3    3    0  502  0.93433050977E+02  0.64237730487E+02  0.27462688169E+03  0.29714241969E+03  0.41800000000E+01 0. -1.
        -11    1    1    2    0    0 -0.55701026748E+02 -0.73983965289E+02  0.38847063093E+02  0.10042572286E+03  0.00000000000E+00 0. -1.
         11    1    1    2    0    0 -0.55601941904E+01  0.13746297504E+02 -0.21059695715E+02  0.25756304823E+02  0.00000000000E+00 0.  1.
</event>
<event>
 7    1  0.2384639E-009  0.1135085E+03  0.7561462E-02  0.1254207E+00
         -2   -1    0    0    0  501 -0.00000000000E+00  0.00000000000E+00  0.88814029404E+02  0.88814029404E+02  0.00000000000E+00 0.  1.
          2   -1    0    0  501    0  0.00000000000E+00 -0.00000000000E+00 -0.20575717716E+03  0.20575717716E+03  0.00000000000E+00 0. -1.
         25    2    1    2    0    0 -0.65996258613E+02 -0.79917639714E+01 -0.11374765207E+03  0.18167286716E+03  0.12508848016E+03 0.  0.
          5    1    3    3  502    0 -0.99386425427E+02 -0.58912439769E+01 -0.10889786069E+03  0.14760956872E+03  0.41800000000E+01 0. -1.
         -5    1    3    3    0  502  0.33390166814E+02 -0.21005199945E+01 -0.48497913728E+01  0.34063298438E+02  0.41800000000E+01 0. -1.
        -11    1    1    2    0    0 -0.12542568334E+02  0.84297184594E+01 -0.26904127309E+02  0.30857871605E+02  0.00000000000E+00 0. -1.
         11    1    1    2    0    0  0.78538826947E+02 -0.43795448791E+00  0.23708631624E+02  0.82040467794E+02  0.00000000000E+00 0.  1.
</event>
<event>
 7    1  0.2384639E-009  0.1484535E+03  0.7561462E-02  0.1202386E+00
         -2   -1    0    0    0  501 -0.00000000000E+00  0.00000000000E+00  0.24008109539E+03  0.24008109539E+03  0.00000000000E+00 0.  1.
          2   -1    0    0  501    0  0.00000000000E+00 -0.00000000000E+00 -0.14323640616E+03  0.14323640616E+03  0.00000000000E+00 0. -1.
         25    2    1    2    0    0 -0.10245470909E+03  0.65150102711E+02  0.14026285433E+03  0.22374710874E+03  0.12509035562E+03 0.  0.
          5    1    3    3  502    0 -0.47791122352E+02 -0.16907483859E+02 -0.16514257004E+01  0.50892573063E+02  0.41800000000E+01 0.  1.
         -5    1    3    3    0  502 -0.54663586735E+02  0.82057586571E+02  0.14191428003E+03  0.17285453568E+03  0.41800000000E+01 0.  1.
        -11    1    1    2    0    0 -0.11661566240E+02  0.57549613039E+01  0.85015676171E+01  0.15536677853E+02  0.00000000000E+00 0.  1.
         11    1    1    2    0    0  0.11411627533E+03 -0.70905064015E+02 -0.51919732722E+02  0.14403371495E+03  0.00000000000E+00 0. -1.
</event>
<event>
 7    1  0.2384639E-009  0.1074784E+03  0.7561462E-02  0.1265312E+00
         -2   -1    0    0    0  501 -0.00000000000E+00  0.00000000000E+00  0.42207910925E+02  0.42207910925E+02  0.00000000000E+00 0.  1.
          2   -1    0    0  501    0  0.00000000000E+00 -0.00000000000E+00 -0.31038397669E+03  0.31038397669E+03  0.00000000000E+00 0. -1.
         25    2    1    2    0    0  0.10980831275E+02 -0.18681627896E+02 -0.17558577451E+03  0.21667446409E+03  0.12509147574E+03 0.  0.
          5    1    3    3  502    0 -0.48373724726E+02  0.16784146407E+02 -0.10943083001E+03  0.12088963467E+03  0.41800000000E+01 0.  1.
         -5    1    3    3    0  502  0.59354556002E+02 -0.35465774303E+02 -0.66154944508E+02  0.95784829425E+02  0.41800000000E+01 0.  1.
        -11    1    1    2    0    0  0.29690921218E+02 -0.21873477266E+02 -0.58417811884E+02  0.69084300357E+02  0.00000000000E+00 0. -1.
         11    1    1    2    0    0 -0.40671752493E+02  0.40555105162E+02 -0.34172479365E+02  0.66833123162E+02  0.00000000000E+00 0.  1.
</event>
<event>
 7    1  0.2384639E-009  0.1163761E+03  0.7561462E-02  0.1249198E+00
          4   -1    0    0  501    0  0.00000000000E+00  0.00000000000E+00  0.38029179592E+02  0.38029179592E+02  0.00000000000E+00 0. -1.
         -4   -1    0    0    0  501 -0.00000000000E+00 -0.00000000000E+00 -0.38349645693E+03  0.38349645693E+03  0.00000000000E+00 0.  1.
         25    2    1    2    0    0 -0.41500475730E+02  0.30975934838E+02 -0.18055514601E+03  0.22567577525E+03  0.12509035438E+03 0.  0.
          5    1    3    3  502    0  0.37648626342E+02  0.35285883780E+02 -0.45012224225E+02  0.68600913909E+02  0.41800000000E+01 0.  1.
         -5    1    3    3    0  502 -0.79149102071E+02 -0.43099489418E+01 -0.13554292178E+03  0.15707486134E+03  0.41800000000E+01 0.  1.
        -11    1    1    2    0    0  0.62232094264E+02 -0.44807753770E+02 -0.97932495792E+02  0.12438384978E+03  0.00000000000E+00 0.  1.
         11    1    1    2    0    0 -0.20731618535E+02  0.13831818932E+02 -0.66979635538E+02  0.71466011494E+02  0.00000000000E+00 0. -1.
</event>
<event>
 7    1  0.2384639E-009  0.9690448E+02  0.7561462E-02  0.1286943E+00
         -1   -1    0    0    0  501 -0.00000000000E+00  0.00000000000E+00  0.70330289939E+02  0.70330289939E+02  0.00000000000E+00 0.  1.
          1   -1    0    0  501    0  0.00000000000E+00 -0.00000000000E+00 -0.26551575428E+03  0.26551575428E+03  0.00000000000E+00 0. -1.
         25    2    1    2    0    0 -0.13882320546E+02  0.73684626822E+02 -0.60491626973E+02  0.15788871845E+03  0.12508983743E+03 0.  0.
          5    1    3    3  502    0 -0.40913590009E+02  0.11974198501E+02 -0.77257190192E+02  0.88337133265E+02  0.41800000000E+01 0. -1.
         -5    1    3    3    0  502  0.27031269463E+02  0.61710428321E+02  0.16765563218E+02  0.69551585190E+02  0.41800000000E+01 0. -1.
        -11    1    1    2    0    0  0.21482060245E+02 -0.20316612329E+02 -0.11781739149E+03  0.12147090758E+03  0.00000000000E+00 0. -1.
         11    1    1    2    0    0 -0.75997396990E+01 -0.53368014493E+02 -0.16876445875E+02  0.56486418189E+02  0.00000000000E+00 0.  1.
</event>
<event>
 7    1  0.2384639E-009  0.1047146E+03  0.7561462E-02  0.1270683E+00
         -1   -1    0    0    0  501 -0.00000000000E+00  0.00000000000E+00  0.61182007850E+02  0.61182007850E+02  0.00000000000E+00 0.  1.
          1   -1    0    0  501    0  0.00000000000E+00 -0.00000000000E+00 -0.27785897165E+03  0.27785897165E+03  0.00000000000E+00 0. -1.
         25    2    1    2    0    0  0.64667151757E+02 -0.11717810096E+02 -0.13906841984E+03  0.19825413026E+03  0.12508208176E+03 0.  0.
          5    1    3    3  502    0  0.46620312219E+02 -0.66569272633E+02 -0.97407433574E+02  0.12692754660E+03  0.41800000000E+01 0.  1.
         -5    1    3    3    0  502  0.18046839538E+02  0.54851462536E+02 -0.41660986267E+02  0.71326583659E+02  0.41800000000E+01 0.  1.
        -11    1    1    2    0    0 -0.43592316111E+02  0.19413880218E+02  0.11342944679E+02  0.49049476684E+02  0.00000000000E+00 0.  1.
         11    1    1    2    0    0 -0.21074835646E+02 -0.76960701216E+01 -0.88951488634E+02  0.91737372553E+02  0.00000000000E+00 0. -1.
</event>
<event>
 7    1  0.2384639E-009  0.1618208E+03  0.7561462E-02  0.1186656E+00
         -2   -1    0    0    0  501 -0.00000000000E+00  0.00000000000E+00  0.91141446966E+02  0.91141446966E+02  0.00000000000E+00 0.  1.
          2   -1    0    0  501    0  0.00000000000E+00 -0.00000000000E+00 -0.46691624837E+03  0.46691624837E+03  0.00000000000E+00 0. -1.
         25    2    1    2    0    0  0.13379701678E+03 -0.53380519203E+02 -0.62323797478E+02  0.20070612390E+03  0.12509025105E+03 0.  0.
          5    1    3    3  502    0  0.54524199645E+01 -0.49353683047E+02  0.13367461113E+02  0.51591436600E+02  0.41800000000E+01 0.  1.
         -5    1    3    3    0  502  0.12834459681E+03 -0.40268361555E+01 -0.75691258592E+02  0.14911468730E+03  0.41800000000E+01 0.  1.
        -11    1    1    2    0    0 -0.79618318071E+02  0.41838420938E+02 -0.90386385989E+02  0.12751168108E+03  0.00000000000E+00 0.  1.
         11    1    1    2    0    0 -0.54178698707E+02  0.11542098265E+02 -0.22306461793E+03  0.22983989036E+03  0.00000000000E+00 0. -1.
</event>
<event>
 7    1  0.2384639E-009  0.1839080E+03  0.7561462E-02  0.1164074E+00
          1   -1    0    0  501    0  0.00000000000E+00  0.00000000000E+00  0.37004655638E+02  0.37004655638E+02  0.00000000000E+00 0. -1.
         -1   -1    0    0    0  501 -0.00000000000E+00 -0.00000000000E+00 -0.10629993461E+04  0.10629993461E+04  0.00000000000E+00 0.  1.
         25    2    1    2    0    0 -0.14870920411E+03  0.51734326939E+02 -0.66783988531E+03  0.69745855843E+03  0.12508980916E+03 0.  0.
          5    1    3    3  502    0 -0.39630964408E+02 -0.40781471641E+02 -0.16056294904E+03  0.17038683861E+03  0.41800000000E+01 0. -1.
         -5    1    3    3    0  502 -0.10907823970E+03  0.92515798580E+02 -0.50727693627E+03  0.52707171982E+03  0.41800000000E+01 0. -1.
        -11    1    1    2    0    0  0.12090748065E+03 -0.15292601352E+02 -0.32160223297E+03  0.34391929109E+03  0.00000000000E+00 0. -1.
         11    1    1    2    0    0  0.27801723455E+02 -0.36441725587E+02 -0.36552572204E+02  0.58626152232E+02  0.00000000000E+00 0.  1.
</event>
<event>
 7    1  0.2384639E-009  0.1462340E+03  0.7561462E-02  0.1205178E+00
          3   -1    0    0  501    0  0.00000000000E+00  0.00000000000E+00  0.11538875949E+03  0.11538875949E+03  0.00000000000E+00 0. -1.
         -3   -1    0    0    0  501 -0.00000000000E+00 -0.00000000000E+00 -0.27208129365E+03  0.27208129365E+03  0.00000000000E+00 0.  1.
         25    2    1    2    0    0 -0.54053735556E+02 -0.11922404144E+03 -0.13681732392E+03  0.22694698105E+03  0.12509905555E+03 0.  0.
          5    1    3    3  502    0 -0.15975098232E+02 -0.96434463938E+02 -0.15121445968E+03  0.18010578785E+03  0.41800000000E+01 0.  1.
         -5    1    3    3    0  502 -0.38078637324E+02 -0.22789577497E+02  0.14397135760E+02  0.46841193207E+02  0.41800000000E+01 0.  1.
        -11    1    1    2    0    0  0.57551480463E+02  0.38466793760E+02 -0.36110460555E+02  0.78075812433E+02  0.00000000000E+00 0.  1.
         11    1    1    2    0    0 -0.34977449062E+01  0.80757247676E+02  0.16235250314E+02  0.82447259653E+02  0.00000000000E+00 0. -1.
</event>
<event>
 7    1  0.2384639E-009  0.3422666E+03  0.7561462E-02  0.1065835E+00
          1   -1    0    0  501    0  0.00000000000E+00  0.00000000000E+00  0.42729585737E+03  0.42729585737E+03  0.00000000000E+00 0. -1.
         -1   -1    0    0    0  501 -0.00000000000E+00 -0.00000000000E+00 -0.32419774763E+03  0.32419774763E+03  0.00000000000E+00 0.  1.
         25    2    1    2    0    0 -0.22436300947E+03  0.23663131548E+03  0.19840838415E+03  0.40167963946E+03  0.12508999310E+03 0.  0.
          5    1    3    3  502    0  0.11123138774E+02  0.41130227086E+02  0.30434968136E+02  0.52527892417E+02  0.41800000000E+01 0. -1.
         -5    1    3    3    0  502 -0.23548614824E+03  0.19550108839E+03  0.16797341602E+03  0.34915174705E+03  0.41800000000E+01 0. -1.
        -11    1    1    2    0    0  0.14989408145E+03 -0.10052027402E+03 -0.64324479264E+02  0.19159905995E+03  0.00000000000E+00 0. -1.
         11    1    1    2    0    0  0.74468928019E+02 -0.13611104146E+03 -0.30985795143E+02  0.15821490558E+03  0.00000000000E+00 0.  1.
</event>
<event>
 7    1  0.2384639E-009  0.9630824E+02  0.7561462E-02  0.1288256E+00
          1   -1    0    0  501    0  0.00000000000E+00  0.00000000000E+00  0.10406734049E+03  0.10406734049E+03  0.00000000000E+00 0. -1.
         -1   -1    0    0    0  501 -0.00000000000E+00 -0.00000000000E+00 -0.14668792310E+03  0.14668792310E+03  0.00000000000E+00 0.  1.
         25    2    1    2    0    0  0.88351312592E+01 -0.53045417088E+02  0.35955034393E+01  0.13619147780E+03  0.12507323919E+03 0.  0.
          5    1    3    3  502    0  0.25814642874E+02 -0.69883724334E+02 -0.41204306895E+02  0.85237304158E+02  0.41800000000E+01 0. -1.
         -5    1    3    3    0  502 -0.16979511614E+02  0.16838307246E+02  0.44799810334E+02  0.50954173642E+02  0.41800000000E+01 0. -1.
        -11    1    1    2    0    0  0.27588393121E+02 -0.20645974964E+01 -0.39415603199E+02  0.48155703435E+02  0.00000000000E+00 0. -1.
         11    1    1    2    0    0 -0.36423524380E+02  0.55110014584E+02 -0.68004828518E+01  0.66408082360E+02  0.00000000000E+00 0.  1.
</event>
<event>
 7    1  0.2384639E-009  0.4181291E+03  0.7561462E-02  0.1037677E+00
          1   -1    0    0  501    0  0.00000000000E+00  0.00000000000E+00  0.12567297581E+04  0.12567297581E+04  0.00000000000E+00 0. -1.
         -1   -1    0    0    0  501 -0.00000000000E+00 -0.00000000000E+00 -0.14367051075E+03  0.14367051075E+03  0.00000000000E+00 0.  1.
         25    2    1    2    0    0 -0.22393205463E+03 -0.33876311761E+03  0.66313329325E+03  0.78759050948E+03  0.12508809320E+03 0.  0.
          5    1    3    3  502    0 -0.18187433537E+03 -0.16611842203E+03  0.40908978624E+03  0.47754112871E+03  0.41800000000E+01 0.  1.
         -5    1    3    3    0  502 -0.42057719265E+02 -0.17264469558E+03  0.25404350701E+03  0.31004938077E+03  0.41800000000E+01 0.  1.
        -11    1    1    2    0    0  0.16559395727E+03  0.18814776097E+03  0.23183809925E+03  0.34142326064E+03  0.00000000000E+00 0.  1.
         11    1    1    2    0    0  0.58338097366E+02  0.15061535664E+03  0.21808785486E+03  0.27138649874E+03  0.00000000000E+00 0. -1.
</event>
<event>
 7    1  0.2384639E-009  0.1033907E+03  0.7561462E-02  0.1273323E+00
          2   -1    0    0  501    0  0.00000000000E+00  0.00000000000E+00  0.16821728232E+03  0.16821728232E+03  0.00000000000E+00 0. -1.
         -2   -1    0    0    0  501 -0.00000000000E+00 -0.00000000000E+00 -0.16872952988E+03  0.16872952988E+03  0.00000000000E+00 0.  1.
         25    2    1    2    0    0  0.54531380044E+02  0.52726008901E+02  0.10263993069E+03  0.17870635826E+03  0.12508918293E+03 0.  0.
          5    1    3    3  502    0  0.36503244312E+02  0.37728812770E+01 -0.22371811944E+02  0.43182077857E+02  0.41800000000E+01 0. -1.
         -5    1    3    3    0  502  0.18028135733E+02  0.48953127624E+02  0.12501174264E+03  0.13552428040E+03  0.41800000000E+01 0. -1.
        -11    1    1    2    0    0 -0.44863680123E+01 -0.65667620033E+02 -0.41611021636E+02  0.77870668036E+02  0.00000000000E+00 0. -1.
         11    1    1    2    0    0 -0.50045012032E+02  0.12941611132E+02 -0.61541156621E+02  0.80369785904E+02  0.00000000000E+00 0.  1.
</event>
<event>
 7    1  0.2384639E-009  0.9091847E+02  0.7561462E-02  0.1300643E+00
         -3   -1    0    0    0  501 -0.00000000000E+00  0.00000000000E+00  0.39881717296E+02  0.39881717296E+02  0.00000000000E+00 0.  1.
          3   -1    0    0  501    0  0.00000000000E+00 -0.00000000000E+00 -0.49484898781E+03  0.49484898781E+03  0.00000000000E+00 0. -1.
         25    2    1    2    0    0 -0.85961184295E+02  0.19072783398E+01 -0.32728914752E+03  0.36077961861E+03  0.12510309431E+03 0.  0.
          5    1    3    3  502    0 -0.43553420599E+02 -0.19105625014E+02 -0.23346168762E+02  0.53145473457E+02  0.41800000000E+01 0. -1.
         -5    1    3    3    0  502 -0.42407763695E+02  0.21012903354E+02 -0.30394297876E+03  0.30763414516E+03  0.41800000000E+01 0. -1.
        -11    1    1    2    0    0  0.73501749972E+02 -0.52268866923E+01 -0.13865382069E+03  0.15701818234E+03  0.00000000000E+00 0. -1.
         11    1    1    2    0    0  0.12459434322E+02  0.33196083525E+01  0.10975697695E+02  0.16932904155E+02  0.00000000000E+00 0.  1.
</event>
<event>
 7    1  0.2384639E-009  0.1009319E+03  0.7561462E-02  0.1278348E+00
         -2   -1    0    0    0  501 -0.00000000000E+00  0.00000000000E+00  0.99801188280E+02  0.99801188280E+02  0.00000000000E+00 0.  1.
          2   -1    0    0  501    0  0.00000000000E+00 -0.00000000000E+00 -0.10283537752E+03  0.10283537752E+03  0.00000000000E+00 0. -1.
         25    2    1    2    0    0  0.15463452224E+01  0.14734131699E+02 -0.47519977628E+01  0.12605165596E+03  0.12508777984E+03 0.  0.
          5    1    3    3  502    0 -0.60379949522E+02 -0.35920073958E+01 -0.85159636962E+01  0.61226096226E+02  0.41800000000E+01 0. -1.
         -5    1    3    3    0  502  0.61926294744E+02  0.18326139095E+02  0.37639659334E+01  0.64825559731E+02  0.41800000000E+01 0. -1.
        -11    1    1    2    0    0  0.24262025302E+02 -0.35769595968E+02 -0.38688265727E+00  0.43223368051E+02  0.00000000000E+00 0. -1.
         11    1    1    2    0    0 -0.25808370525E+02  0.21035464269E+02  0.21046911756E+01  0.33361541797E+02  0.00000000000E+00 0.  1.
</event>
<event>
 7    1  0.2384639E-009  0.7258841E+02  0.7561462E-02  0.1351506E+00
         -2   -1    0    0    0  501 -0.00000000000E+00  0.00000000000E+00  0.39215049509E+02  0.39215049509E+02  0.00000000000E+00 0.  1.
          2   -1    0    0  501    0  0.00000000000E+00 -0.00000000000E+00 -0.41391894794E+03  0.41391894794E+03  0.00000000000E+00 0. -1.
         25    2    1    2    0    0 -0.23467002903E+02 -0.42705526451E+01 -0.32116952607E+03  0.34549637266E+03  0.12509572816E+03 0.  0.
          5    1    3    3  502    0  0.15768099093E+02 -0.31498023059E+02 -0.20377610137E+02  0.40908163006E+02  0.41800000000E+01 0.  1.
         -5    1    3    3    0  502 -0.39235101995E+02  0.27227470414E+02 -0.30079191593E+03  0.30458820966E+03  0.41800000000E+01 0.  1.
        -11    1    1    2    0    0  0.25231142725E+02  0.28160701787E+02 -0.69311333837E+02  0.78953762967E+02  0.00000000000E+00 0. -1.
         11    1    1    2    0    0 -0.17641398218E+01 -0.23890149141E+02  0.15776961475E+02  0.28683861816E+02  0.00000000000E+00 0.  1.
</event>
<event>
 7    1  0.4760574E-009  0.2058761E+03  0.7561462E-02  0.1144874E+00
          2   -1    0    0  501    0  0.00000000000E+00  0.00000000000E+00  0.31511552815E+03  0.31511552815E+03  0.00000000000E+00 0. -1.
         -2   -1    0    0    0  501 -0.00000000000E+00 -0.00000000000E+00 -0.16571924588E+03  0.16571924588E+03  0.00000000000E+00 0.  1.
         25    2    1    2    0    0 -0.10041551388E+03  0.16728259431E+03  0.12788441879E+03  0.26469746085E+03  0.12507429561E+03 0.  0.
          5    1    3    3  502    0 -0.59692318968E+02  0.74249660605E+02  0.13215296767E+03  0.16296645148E+03  0.41800000000E+01 0.  1.
         -5    1    3    3    0  502 -0.40723194917E+02  0.93032933706E+02 -0.42685488758E+01  0.10173100937E+03  0.41800000000E+01 0.  1.
        -11    1    1    2    0    0  0.34702179590E+02 -0.13889994239E+03  0.19836000241E+02  0.14453685402E+03  0.00000000000E+00 0.  1.
         11    1    1    2    0    0  0.65713334295E+02 -0.28382651917E+02  0.16758632469E+01  0.71600459158E+02  0.00000000000E+00 0. -1.
</event>
<event>
 7    1  0.2384639E-009  0.1331318E+03  0.7561462E-02  0.1222881E+00
         -2   -1    0    0    0  501 -0.00000000000E+00  0.00000000000E+00  0.21485213828E+02  0.21485213828E+02  0.00000000000E+00 0.  1.
          2   -1    0    0  501    0  0.00000000000E+00 -0.00000000000E+00 -0.86478025595E+03  0.86478025595E+03  0.00000000000E+00 0. -1.
         25    2    1    2    0    0 -0.38656844799E+02  0.68583917374E+02 -0.38972404083E+03  0.41680613804E+03  0.12507766920E+03 0.  0.
          5    1    3    3  502    0 -0.77036097003E+02  0.10231768673E+02 -0.20513728187E+03  0.21940379702E+03  0.41800000000E+01 0. -1.
         -5    1    3    3    0  502  0.38379252204E+02  0.58352148700E+02 -0.18458675896E+03  0.19740234102E+03  0.41800000000E+01 0. -1.
        -11    1    1    2    0    0  0.60746297706E+02 -0.18130416530E+02 -0.19348900611E+03  0.20360947958E+03  0.00000000000E+00 0.  1.
         11    1    1    2    0    0 -0.22089452907E+02 -0.50453500844E+02 -0.26008199518E+03  0.26584985216E+03  0.00000000000E+00 0. -1.
</event>
<event>
 7    1  0.2384639E-009  0.9964226E+02  0.7561462E-02  0.1281050E+00
          2   -1    0    0  501    0  0.00000000000E+00  0.00000000000E+00  0.44241596840E+03  0.44241596840E+03  0.00000000000E+00 0. -1.
         -2   -1    0    0    0  501 -0.00000000000E+00 -0.00000000000E+00 -0.39510789882E+02  0.39510789882E+02  0.00000000000E+00 0.  1.
         25    2    1    2    0    0 -0.20093991944E+02 -0.63127942844E+02  0.28227281681E+03  0.31577236297E+03  0.12508131924E+03 0.  0.
          5    1    3    3  502    0 -0.14801046281E+02  0.59643954756E+01 -0.72676317109E+01  0.18025977230E+02  0.41800000000E+01 0. -1.
         -5    1    3    3    0  502 -0.52929456628E+01 -0.69092338320E+02  0.28954044853E+03  0.29774638574E+03  0.41800000000E+01 0. -1.
        -11    1    1    2    0    0 -0.26993281678E+02  0.60451661343E+02  0.60078414188E+02  0.89400539518E+02  0.00000000000E+00 0. -1.
         11    1    1    2    0    0  0.47087273622E+02  0.26762815016E+01  0.60553947516E+02  0.76753855796E+02  0.00000000000E+00 0.  1.
</event>
<event>
 7    1  0.2384639E-009  0.1287498E+03  0.7561462E-02  0.1229323E+00
         -3   -1    0    0    0  501 -0.00000000000E+00  0.00000000000E+00  0.10784088974E+04  0.10784088974E+04  0.00000000000E+00 0.  1.
          3   -1    0    0  501    0  0.00000000000E+00 -0.00000000000E+00 -0.32060851897E+02  0.32060851897E+02  0.00000000000E+00 0. -1.
         25    2    1    2    0    0 -0.71638783424E+02 -0.44680718477E+02  0.92013422084E+03  0.93242867726E+03  0.12509105454E+03 0.  0.
          5    1    3    3  502    0 -0.12852837314E+02 -0.79836930624E+02  0.43602950480E+03  0.44348430905E+03  0.41800000000E+01 0. -1.
         -5    1    3    3    0  502 -0.58785946110E+02  0.35156212146E+02  0.48410471604E+03  0.48894436821E+03  0.41800000000E+01 0. -1.
        -11    1    1    2    0    0  0.46598191452E+02 -0.10091302431E+02  0.12382643286E+02  0.49260082075E+02  0.00000000000E+00 0. -1.
         11    1    1    2    0    0  0.25040591972E+02  0.54772020908E+02  0.11383118136E+03  0.12878098994E+03  0.00000000000E+00 0.  1.
</event>
<event>
 7    1  0.2384639E-009  0.1986444E+03  0.7561462E-02  0.1150888E+00
         -2   -1    0    0    0  501 -0.00000000000E+00  0.00000000000E+00  0.85433157900E+03  0.85433157900E+03  0.00000000000E+00 0.  1.
          2   -1    0    0  501    0  0.00000000000E+00 -0.00000000000E+00 -0.54335832739E+02  0.54335832739E+02  0.00000000000E+00 0. -1.
         25    2    1    2    0    0 -0.15601883405E+03  0.10051174338E+03  0.39639899880E+03  0.45521861287E+03  0.12508929657E+03 0.  0.
          5    1    3    3  502    0  0.14327067362E+01 -0.14288580685E+02  0.95814798944E+02  0.96975070422E+02  0.41800000000E+01 0. -1.
         -5    1    3    3    0  502 -0.15745154079E+03  0.11480032407E+03  0.30058419986E+03  0.35824354245E+03  0.41800000000E+01 0. -1.
        -11    1    1    2    0    0  0.20482832902E+02 -0.35688285961E+01  0.49454330533E+01  0.21371483086E+02  0.00000000000E+00 0. -1.
         11    1    1    2    0    0  0.13553600115E+03 -0.96942914788E+02  0.39865131441E+03  0.43207731579E+03  0.00000000000E+00 0.  1.
</event>
<event>
 7    1  0.2384639E-009  0.1003840E+03  0.7561462E-02  0.1279491E+00
          2   -1    0    0  501    0  0.00000000000E+00  0.00000000000E+00  0.94338388622E+03  0.94338388622E+03  0.00000000000E+00 0. -1.
         -2   -1    0    0    0  501 -0.00000000000E+00 -0.00000000000E+00 -0.15669216028E+02  0.15669216028E+02  0.00000000000E+00 0.  1.
         25    2    1    2    0    0  0.30347440070E+02 -0.31785415545E+02  0.65570064706E+03  0.66897126370E+03  0.12509169976E+03 0.  0.
          5    1    3    3  502    0 -0.23880560294E+02  0.15210711403E+02  0.45299720606E+03  0.45390041639E+03  0.41800000000E+01 0.  1.
         -5    1    3    3    0  502  0.54228000365E+02 -0.46996126948E+02  0.20270344099E+03  0.21507084731E+03  0.41800000000E+01 0.  1.
        -11    1    1    2    0    0  0.28766233339E+02  0.29360543950E+02  0.12607836990E+03  0.13260955123E+03  0.00000000000E+00 0. -1.
         11    1    1    2    0    0 -0.59113673409E+02  0.24248715953E+01  0.14593565324E+03  0.15747228731E+03  0.00000000000E+00 0.  1.
</event>
<event>
 7    1  0.2384639E-009  0.1315184E+03  0.7561462E-02  0.1225220E+00
         -1   -1    0    0    0  501 -0.00000000000E+00  0.00000000000E+00  0.12739875649E+03  0.12739875649E+03  0.00000000000E+00 0.  1.
          1   -1    0    0  501    0  0.00000000000E+00 -0.00000000000E+00 -0.15114867744E+03  0.15114867744E+03  0.00000000000E+00 0. -1.
         25    2    1    2    0    0 -0.31150387243E+02  0.77330804557E+02 -0.31728462649E+02  0.15362765978E+03  0.12507742621E+03 0.  0.
          5    1    3    3  502    0  0.15701152904E+02 -0.29368841760E+02 -0.99108036670E+01  0.34996449794E+02  0.41800000000E+01 0. -1.
         -5    1    3    3    0  502 -0.46851540148E+02  0.10669964632E+03 -0.21817658982E+02  0.11863120998E+03  0.41800000000E+01 0. -1.
        -11    1    1    2    0    0  0.18779235504E+02 -0.91873196422E+02 -0.15085555430E+02  0.94978512779E+02  0.00000000000E+00 0. -1.
         11    1    1    2    0    0  0.12371151739E+02  0.14542391865E+02  0.23064097131E+02  0.29941261379E+02  0.00000000000E+00 0.  1.
</event>
<event>
 7    1  0.2384639E-009  0.1398727E+03  0.7561462E-02  0.1213500E+00
          2   -1    0    0  501    0  0.00000000000E+00  0.00000000000E+00  0.50123399480E+02  0.50123399480E+02  0.00000000000E+00 0.  1.
         -2   -1    0    0    0  501 -0.00000000000E+00 -0.00000000000E+00 -0.43969565349E+03  0.43969565349E+03  0.00000000000E+00 0. -1.
         25    2    1    2    0    0  0.96563338818E+02  0.53405070206E+02 -0.21151224637E+03  0.26937455621E+03  0.12509452921E+03 0.  0.
          5    1    3    3  502    0  0.24979082639E+02  0.84556631629E+02 -0.10330593883E+03  0.13587997615E+03  0.41800000000E+01 0.  1.
         -5    1    3    3    0  502  0.71584256179E+02 -0.31151561422E+02 -0.10820630754E+03  0.13349458005E+03  0.41800000000E+01 0.  1.
        -11    1    1    2    0    0 -0.21327218518E+02 -0.25039195680E+02 -0.11091742922E+03  0.11569134658E+03  0.00000000000E+00 0. -1.
         11    1    1    2    0    0 -0.75236120300E+02 -0.28365874526E+02 -0.67142578414E+02  0.10475315017E+03  0.00000000000E+00 0.  1.
</event>
<event>
 7    1  0.2384639E-009  0.1281697E+03  0.7561462E-02  0.1230197E+00
          3   -1    0    0  501    0  0.00000000000E+00  0.00000000000E+00  0.13002333786E+03  0.13002333786E+03  0.00000000000E+00 0. -1.
         -3   -1    0    0    0  501 -0.00000000000E+00 -0.00000000000E+00 -0.17489730500E+03  0.17489730500E+03  0.00000000000E+00 0.  1.
         25    2    1    2    0    0  0.10340305642E+03  0.14938106217E+02 -0.15604591843E+02  0.16372532070E+03  0.12508852169E+03 0.  0.
          5    1    3    3  502    0 -0.42535410009E+01  0.29606915731E+02 -0.42099418054E+02  0.51812117025E+02  0.41800000000E+01 0.  1.
         -5    1    3    3    0  502  0.10765659743E+03 -0.14668809514E+02  0.26494826211E+02  0.11191320368E+03  0.41800000000E+01 0.  1.
        -11    1    1    2    0    0 -0.97503239956E+02 -0.29357033994E+02 -0.51452519343E+02  0.11408803177E+03  0.00000000000E+00 0.  1.
         11    1    1    2    0    0 -0.58998164683E+01  0.14418927777E+02  0.22183144038E+02  0.27107290385E+02  0.00000000000E+00 0. -1.
</event>
<event>
 7    1  0.2384639E-009  0.1155086E+03  0.7561462E-02  0.1250696E+00
          1   -1    0    0  501    0  0.00000000000E+00  0.00000000000E+00  0.11518795385E+03  0.11518795385E+03  0.00000000000E+00 0. -1.
         -1   -1    0    0    0  501 -0.00000000000E+00 -0.00000000000E+00 -0.13504404003E+03  0.13504404003E+03  0.00000000000E+00 0.  1.
         25    2    1    2    0    0  0.49762865253E+01 -0.59416110666E+02 -0.16116506988E+02  0.13950910226E+03  0.12509200687E+03 0.  0.
          5    1    3    3  502    0  0.35418341005E+02  0.25820346466E+02 -0.20979838374E+02  0.48772688970E+02  0.41800000000E+01 0. -1.
         -5    1    3    3    0  502 -0.30442054480E+02 -0.85236457132E+02  0.48633313865E+01  0.90736413294E+02  0.41800000000E+01 0. -1.
        -11    1    1    2    0    0  0.35403723125E+02  0.30292581248E+02  0.25366793588E+02  0.53052222448E+02  0.00000000000E+00 0. -1.
         11    1    1    2    0    0 -0.40380009650E+02  0.29123529418E+02 -0.29106372781E+02  0.57670669162E+02  0.00000000000E+00 0.  1.
</event>
<event>
 7    1  0.2384639E-009  0.1567416E+03  0.7561462E-02  0.1192425E+00
          2   -1    0    0  501    0  0.00000000000E+00  0.00000000000E+00  0.58047307220E+02  0.58047307220E+02  0.00000000000E+00 0. -1.
         -2   -1    0    0    0  501 -0.00000000000E+00 -0.00000000000E+00 -0.61014861843E+03  0.61014861843E+03  0.00000000000E+00 0.  1.
         25    2    1    2    0    0 -0.76582216103E+02 -0.92921199898E+02 -0.12158265759E+03  0.21196320485E+03  0.12508745888E+03 0.  0.
          5    1    3    3  502    0 -0.38561799634E+02  0.20886352754E+02 -0.45342374793E+01  0.44286384272E+02  0.41800000000E+01 0.  1.
         -5    1    3    3    0  502 -0.38020416469E+02 -0.11380755265E+03 -0.11704842011E+03  0.16767682058E+03  0.41800000000E+01 0.  1.
        -11    1    1    2    0    0 -0.97971759609E+01  0.53547413210E+02 -0.12588876048E+03  0.13715425671E+03  0.00000000000E+00 0. -1.
         11    1    1    2    0    0  0.86379392064E+02  0.39373786688E+02 -0.30462989313E+03  0.31907846409E+03  0.00000000000E+00 0.  1.
</event>
<event>
 7    1  0.2384639E-009  0.1026500E+03  0.7561462E-02  0.1274820E+00
         -2   -1    0    0    0  501 -0.00000000000E+00  0.00000000000E+00  0.13791745530E+03  0.13791745530E+03  0.00000000000E+00 0.  1.
          2   -1    0    0  501    0  0.00000000000E+00 -0.00000000000E+00 -0.10635923768E+03  0.10635923768E+03  0.00000000000E+00 0. -1.
         25    2    1    2    0    0 -0.27808782028E+02 -0.45360453562E+02  0.27535880921E+02  0.13869785026E+03  0.12509184555E+03 0.  0.
          5    1    3    3  502    0  0.32411633673E+02 -0.19635949223E+01  0.51116731410E+02  0.60702243224E+02  0.41800000000E+01 0. -1.
         -5    1    3    3    0  502 -0.60220415701E+02 -0.43396858640E+02 -0.23580850490E+02  0.77995607035E+02  0.41800000000E+01 0. -1.
        -11    1    1    2    0    0  0.57152357394E+02  0.24339295792E+02  0.21155627624E+02  0.65622815053E+02  0.00000000000E+00 0.  1.
         11    1    1    2    0    0 -0.29343575366E+02  0.21021157770E+02 -0.17133290919E+02  0.39956027667E+02  0.00000000000E+00 0. -1.
</event>
<event>
 7    1  0.2384639E-009  0.9179863E+02  0.7561462E-02  0.1298554E+00
          2   -1    0    0  501    0  0.00000000000E+00  0.00000000000E+00  0.66701854346E+02  0.66701854346E+02  0.00000000000E+00 0. -1.
         -2   -1    0    0    0  501 -0.00000000000E+00 -0.00000000000E+00 -0.22027300326E+03  0.22027300326E+03  0.00000000000E+00 0.  1.
         25    2    1    2    0    0  0.55010816178E+02  0.79277199412E+01 -0.87881342222E+02  0.16266395172E+03  0.12508953689E+03 0.  0.
          5    1    3    3  502    0  0.24115941261E+02  0.50791633744E+02  0.40726438408E+01  0.56528112556E+02  0.41800000000E+01 0. -1.
         -5    1    3    3    0  502  0.30894874917E+02 -0.42863913803E+02 -0.91953986063E+02  0.10613583917E+03  0.41800000000E+01 0. -1.
        -11    1    1    2    0    0 -0.60217345448E+02  0.48532815434E+01 -0.82694118751E+02  0.10241093843E+03  0.00000000000E+00 0.  1.
         11    1    1    2    0    0  0.52065292703E+01 -0.12781001485E+02  0.17004312056E+02  0.21899967454E+02  0.00000000000E+00 0. -1.
</event>
<event>
 7    1  0.2384639E-009  0.1075694E+03  0.7561462E-02  0.1265138E+00
          2   -1    0    0  501    0  0.00000000000E+00  0.00000000000E+00  0.57806786579E+02  0.57806786579E+02  0.00000000000E+00 0.  1.
         -2   -1    0    0    0  501 -0.00000000000E+00 -0.00000000000E+00 -0.22289035457E+03  0.22289035457E+03  0.00000000000E+00 0. -1.
         25    2    1    2    0    0  0.28118744884E+02  0.16538002515E+02 -0.90183606696E+02  0.15762373920E+03  0.12509192980E+03 0.  0.
          5    1    3    3  502    0  0.28178551132E+02  0.64093194845E+02 -0.84084325926E+02  0.10949709876E+03  0.41800000000E+01 0.  1.
         -5    1    3    3    0  502 -0.59806248605E-01 -0.47555192330E+02 -0.60992807696E+01  0.48126640442E+02  0.41800000000E+01 0.  1.
        -11    1    1    2    0    0  0.28531200736E+02  0.15199183195E+02 -0.30217479925E+02  0.44250883361E+02  0.00000000000E+00 0.  1.
         11    1    1    2    0    0 -0.56649945620E+02 -0.31737185710E+02 -0.44682481370E+02  0.78822518590E+02  0.00000000000E+00 0. -1.
</event>
<event>
 7    1  0.2384639E-009  0.1129424E+03  0.7561462E-02  0.1255216E+00
         -2   -1    0    0    0  501 -0.00000000000E+00  0.00000000000E+00  0.82149273196E+02  0.82149273196E+02  0.00000000000E+00 0. -1.
          2   -1    0    0  501    0  0.00000000000E+00 -0.00000000000E+00 -0.24554026307E+03  0.24554026307E+03  0.00000000000E+00 0.  1.
         25    2    1    2    0    0  0.70182445656E+02  0.31586303875E+02 -0.29736599154E+02  0.14985246949E+03  0.12509287355E+03 0.  0.
          5    1    3    3  502    0 -0.15395594206E+02 -0.32826352067E+02 -0.21466092227E+02  0.42342168420E+02  0.41800000000E+01 0. -1.
         -5    1    3    3    0  502  0.85578039862E+02  0.64412655943E+02 -0.82705069274E+01  0.10751030107E+03  0.41800000000E+01 0. -1.
        -11    1    1    2    0    0 -0.45393123579E+02 -0.47163769247E+01 -0.13370461049E+03  0.14127881209E+03  0.00000000000E+00 0.  1.
         11    1    1    2    0    0 -0.24789322077E+02 -0.26869926951E+02  0.50219768666E-01  0.36558254682E+02  0.00000000000E+00 0. -1.
</event>
<event>
 7    1  0.2384639E-009  0.1013873E+03  0.7561462E-02  0.1277405E+00
          2   -1    0    0  501    0  0.00000000000E+00  0.00000000000E+00  0.10680843145E+04  0.10680843145E+04  0.00000000000E+00 0. -1.
         -2   -1    0    0    0  501 -0.00000000000E+00 -0.00000000000E+00 -0.19461985636E+02  0.19461985636E+02  0.00000000000E+00 0.  1.
         25    2    1    2    0    0  0.21502491055E+02 -0.72054629395E+02  0.78605257419E+03  0.79948786695E+03  0.12509185930E+03 0.  0.
          5    1    3    3  502    0 -0.11720275697E+02  0.11732918947E+02  0.48263739339E+03  0.48294031944E+03  0.41800000000E+01 0. -1.
         -5    1    3    3    0  502  0.33222766752E+02 -0.83787548342E+02  0.30341518081E+03  0.31654754751E+03  0.41800000000E+01 0. -1.
        -11    1    1    2    0    0  0.20494382342E+02  0.26149555263E+02  0.22668150617E+02  0.40220193938E+02  0.00000000000E+00 0.  1.
         11    1    1    2    0    0 -0.41996873397E+02  0.45905074132E+02  0.23990160405E+03  0.24783823925E+03  0.00000000000E+00 0. -1.
</event>
<event>
 7    1  0.2384639E-009  0.1127877E+03  0.7561462E-02  0.1255493E+00
          4   -1    0    0  501    0  0.00000000000E+00  0.00000000000E+00  0.19640237809E+03  0.19640237809E+03  0.00000000000E+00 0. -1.
         -4   -1    0    0    0  501 -0.00000000000E+00 -0.00000000000E+00 -0.74966351055E+02  0.74966351055E+02  0.00000000000E+00 0.  1.
         25    2    1    2    0    0 -0.54991728828E+02  0.12341325214E+02  0.62810724940E+02  0.15089792355E+03  0.12509435486E+03 0.  0.
          5    1    3    3  502    0  0.27393352601E+02  0.40148091265E+02  0.32946674948E+02  0.58866125991E+02  0.41800000000E+01 0.  1.
         -5    1    3    3    0  502 -0.82385081430E+02 -0.27806766051E+02  0.29864049991E+02  0.92031797561E+02  0.41800000000E+01 0.  1.
        -11    1    1    2    0    0  0.22743072752E+02  0.29288491312E+02 -0.55075758199E+01  0.37488617912E+02  0.00000000000E+00 0.  1.
         11    1    1    2    0    0  0.32248656076E+02 -0.41629816526E+02  0.64132877913E+02  0.82982187680E+02  0.00000000000E+00 0. -1.
</event>
<event>
 7    1  0.2696210E-009  0.7473785E+02  0.7561462E-02  0.1344685E+00
          2   -1    0    0  501    0  0.00000000000E+00  0.00000000000E+00  0.11083361474E+03  0.11083361474E+03  0.00000000000E+00 0. -1.
         -2   -1    0    0    0  501 -0.00000000000E+00 -0.00000000000E+00 -0.16508147484E+03  0.16508147484E+03  0.00000000000E+00 0.  1.
         25    2    1    2    0    0  0.65582686644E+02 -0.48351030159E+01 -0.76432484198E+02  0.16066828769E+03  0.12509159452E+03 0.  0.
          5    1    3    3  502    0  0.15669482857E+02 -0.17174405434E+02  0.32477550876E+02  0.40159141000E+02  0.41800000000E+01 0. -1.
         -5    1    3    3    0  502  0.49913203787E+02  0.12339302418E+02 -0.10891003507E+03  0.12050914669E+03  0.41800000000E+01 0. -1.
        -11    1    1    2    0    0 -0.17144914024E+02 -0.14163489499E+02 -0.32747694554E+02  0.39584896239E+02  0.00000000000E+00 0.  1.
         11    1    1    2    0    0 -0.48437772621E+02  0.18998592515E+02  0.54932318654E+02  0.75661905651E+02  0.00000000000E+00 0. -1.
</event>
<event>
 7    1  0.2384639E-009  0.1220427E+03  0.7561462E-02  0.1239765E+00
         -1   -1    0    0    0  501 -0.00000000000E+00  0.00000000000E+00  0.70414063367E+03  0.70414063367E+03  0.00000000000E+00 0. -1.
          1   -1    0    0  501    0  0.00000000000E+00 -0.00000000000E+00 -0.33289814637E+02  0.33289814637E+02  0.00000000000E+00 0.  1.
         25    2    1    2    0    0 -0.79229757065E+02 -0.65130258886E+02  0.44530653694E+03  0.47377690994E+03  0.12508934218E+03 0.  0.
          5    1    3    3  502    0  0.14513632158E+02 -0.34892601746E+02  0.26988344503E+03  0.27254850114E+03  0.41800000000E+01 0. -1.
         -5    1    3    3    0  502 -0.93743389224E+02 -0.30237657140E+02  0.17542309191E+03  0.20122840880E+03  0.41800000000E+01 0. -1.
        -11    1    1    2    0    0  0.51310188032E+02  0.60242212324E+02  0.22126324218E+03  0.23498783348E+03  0.00000000000E+00 0. -1.
         11    1    1    2    0    0  0.27919569034E+02  0.48880465623E+01  0.42810399165E+01  0.28665704893E+02  0.00000000000E+00 0.  1.
</event>
<event>
 7    1  0.2384639E-009  0.1281174E+03  0.7561462E-02  0.1230276E+00
         -1   -1    0    0    0  501 -0.00000000000E+00  0.00000000000E+00  0.98041490739E+02  0.98041490739E+02  0.00000000000E+00 0.  1.
          1   -1    0    0  501    0  0.00000000000E+00 -0.00000000000E+00 -0.21321237903E+03  0.21321237903E+03  0.00000000000E+00 0. -1.
         25    2    1    2    0    0 -0.61554647000E+02 -0.46043232443E+02 -0.12081718742E+03  0.19013912148E+03  0.12508852434E+03 0.  0.
          5    1    3    3  502    0 -0.68715140790E+02  0.26484448661E+02 -0.58027153902E+02  0.93849984468E+02  0.41800000000E+01 0.  1.
         -5    1    3    3    0  502  0.71604937895E+01 -0.72527681104E+02 -0.62790033522E+02  0.96289137016E+02  0.41800000000E+01 0.  1.
        -11    1    1    2    0    0  0.12348957000E+02 -0.22162962192E+02 -0.20954196847E+02  0.32905501024E+02  0.00000000000E+00 0. -1.
         11    1    1    2    0    0  0.49205690001E+02  0.68206194635E+02  0.26600495984E+02  0.88209247257E+02  0.00000000000E+00 0.  1.
</event>
<event>
 7    1  0.2842858E-009  0.1444524E+03  0.7561462E-02  0.1207460E+00
          1   -1    0    0  501    0  0.00000000000E+00  0.00000000000E+00  0.10427167014E+04  0.10427167014E+04  0.00000000000E+00 0. -1.
         -1   -1    0    0    0  501 -0.00000000000E+00 -0.00000000000E+00 -0.22874944684E+02  0.22874944684E+02  0.00000000000E+00 0.  1.
         25    2    1    2    0    0  0.42431926869E+02  0.95552916674E+02  0.43369331358E+03  0.46332007604E+03  0.12507907226E+03 0.  0.
          5    1    3    3  502    0  0.70213045026E+01 -0.30285373792E+02  0.66465078418E+02  0.73495453137E+02  0.41800000000E+01 0.  1.
         -5    1    3    3    0  502  0.35410622366E+02  0.12583829047E+03  0.36722823516E+03  0.38982462290E+03  0.41800000000E+01 0.  1.
        -11    1    1    2    0    0 -0.38584489249E+02 -0.83771264781E+01  0.86827503754E+02  0.95383198032E+02  0.00000000000E+00 0.  1.
         11    1    1    2    0    0 -0.38474376197E+01 -0.87175790196E+02  0.49932093935E+03  0.50688837197E+03  0.00000000000E+00 0. -1.
</event>
<event>
 7    1  0.2384639E-009  0.1367440E+03  0.7561462E-02  0.1217779E+00
         -1   -1    0    0    0  501 -0.00000000000E+00  0.00000000000E+00  0.44132815458E+03  0.44132815458E+03  0.00000000000E+00 0.  1.
          1   -1    0    0  501    0  0.00000000000E+00 -0.00000000000E+00 -0.62509552707E+02  0.62509552707E+02  0.00000000000E+00 0. -1.
         25    2    1    2    0    0 -0.81194883157E+02  0.56171086712E+02  0.84661197430E+02  0.18044834104E+03  0.12508511263E+03 0.  0.
          5    1    3    3  502    0  0.31160410019E+02 -0.99867143534E+00  0.28236240244E+02  0.42269683703E+02  0.41800000000E+01 0.  1.
         -5    1    3    3    0  502 -0.11235529318E+03  0.57169758147E+02  0.56424957186E+02  0.13817865734E+03  0.41800000000E+01 0.  1.
        -11    1    1    2    0    0  0.91281692410E+02 -0.50103128941E+02  0.29369629408E+03  0.31160902434E+03  0.00000000000E+00 0.  1.
         11    1    1    2    0    0 -0.10086809254E+02 -0.60679577708E+01  0.46111036438E+00  0.11780341896E+02  0.00000000000E+00 0. -1.
</event>
<event>
 7    1  0.2384639E-009  0.1253471E+03  0.7561462E-02  0.1234528E+00
          2   -1    0    0  501    0  0.00000000000E+00  0.00000000000E+00  0.11892150672E+03  0.11892150672E+03  0.00000000000E+00 0.  1.
         -2   -1    0    0    0  501 -0.00000000000E+00 -0.00000000000E+00 -0.15772741261E+03  0.15772741261E+03  0.00000000000E+00 0. -1.
         25    2    1    2    0    0 -0.17934014638E+02  0.67863302608E+02  0.24454426717E+02  0.14550844364E+03  0.12509049309E+03 0.  0.
          5    1    3    3  502    0  0.53140026326E+02  0.23011164627E+02  0.66291994837E+00  0.58062793235E+02  0.41800000000E+01 0. -1.
         -5    1    3    3    0  502 -0.71074040964E+02  0.44852137982E+02  0.23791506769E+02  0.87445650406E+02  0.41800000000E+01 0. -1.
        -11    1    1    2    0    0  0.18032811600E+02 -0.87253648965E+02 -0.66891274648E+02  0.11141285463E+03  0.00000000000E+00 0. -1.
         11    1    1    2    0    0 -0.98796961434E-01  0.19390346357E+02  0.36309420449E+01  0.19727621063E+02  0.00000000000E+00 0.  1.
</event>
<event>
 7    1  0.2384639E-009  0.8543495E+02  0.7561462E-02  0.1314299E+00
         -2   -1    0    0    0  501 -0.00000000000E+00  0.00000000000E+00  0.17707276974E+03  0.17707276974E+03  0.00000000000E+00 0. -1.
          2   -1    0    0  501    0  0.00000000000E+00 -0.00000000000E+00 -0.10892716722E+03  0.10892716722E+03  0.00000000000E+00 0.  1.
         25    2    1    2    0    0 -0.18749703136E+02 -0.58116494986E+02  0.99113938171E+02  0.17088300223E+03  0.12509336256E+03 0.  0.
          5    1    3    3  502    0  0.28773458341E+02 -0.41248001673E+02 -0.92321260133E+01  0.51303158750E+02  0.41800000000E+01 0. -1.
         -5    1    3    3    0  502 -0.47523161477E+02 -0.16868493313E+02  0.10834606418E+03  0.11957984348E+03  0.41800000000E+01 0. -1.
        -11    1    1    2    0    0  0.28006203898E+02  0.34493791601E+02 -0.61213666249E+02  0.75639156866E+02  0.00000000000E+00 0.  1.
         11    1    1    2    0    0 -0.92565007629E+01  0.23622703385E+02  0.30245330596E+02  0.39477777856E+02  0.00000000000E+00 0. -1.
</event>
<event>
 7    1  0.2384639E-009  0.7284711E+02  0.7561462E-02  0.1350670E+00
         -2   -1    0    0    0  501 -0.00000000000E+00  0.00000000000E+00  0.99692332885E+01  0.99692332885E+01  0.00000000000E+00 0.  1.
          2   -1    0    0  501    0  0.00000000000E+00 -0.00000000000E+00 -0.14511663320E+04  0.14511663320E+04  0.00000000000E+00 0. -1.
         25    2    1    2    0    0  0.24713442008E+02 -0.36513616346E+02 -0.99582808314E+03  0.10046220607E+04  0.12509162757E+03 0.  0.
          5    1    3    3  502    0  0.15383480035E+02 -0.30667625627E+02 -0.99145828038E+03  0.99206055705E+03  0.41800000000E+01 0. -1.
         -5    1    3    3    0  502  0.93299619723E+01 -0.58459907191E+01 -0.43698027599E+01  0.12561503654E+02  0.41800000000E+01 0. -1.
        -11    1    1    2    0    0  0.27697929246E+02  0.37878214858E+02 -0.24105295383E+03  0.24557781047E+03  0.00000000000E+00 0. -1.
         11    1    1    2    0    0 -0.52411371253E+02 -0.13645985119E+01 -0.20431606173E+03  0.21093569411E+03  0.00000000000E+00 0.  1.
</event>
<event>
 7    1  0.2384639E-009  0.2679948E+03  0.7561462E-02  0.1102433E+00
         -2   -1    0    0    0  501 -0.00000000000E+00  0.00000000000E+00  0.21263754755E+03  0.21263754755E+03  0.00000000000E+00 0.  1.
          2   -1    0    0  501    0  0.00000000000E+00 -0.00000000000E+00 -0.37889456000E+03  0.37889456000E+03  0.00000000000E+00 0. -1.
         25    2    1    2    0    0 -0.12201850718E+02 -0.25833419863E+03 -0.12469811259E+03  0.31318133917E+03  0.12508992195E+03 0.  0.
          5    1    3    3  502    0  0.37131080957E+02 -0.13381221749E+03 -0.14499398166E+02  0.13968583203E+03  0.41800000000E+01 0.  1.
         -5    1    3    3    0  502 -0.49332931674E+02 -0.12452198115E+03 -0.11019871443E+03  0.17349550714E+03  0.41800000000E+01 0.  1.
        -11    1    1    2    0    0 -0.17824680330E+02  0.13218254823E+03 -0.61980716643E+02  0.14707669605E+03  0.00000000000E+00 0. -1.
         11    1    1    2    0    0  0.30026531047E+02  0.12615165040E+03  0.20421816787E+02  0.13127407233E+03  0.00000000000E+00 0.  1.
</event>
<event>
 7    1  0.2384639E-009  0.1489634E+03  0.7561462E-02  0.1201753E+00
         -1   -1    0    0    0  501 -0.00000000000E+00  0.00000000000E+00  0.50496688098E+02  0.50496688098E+02  0.00000000000E+00 0.  1.
          1   -1    0    0  501    0  0.00000000000E+00 -0.00000000000E+00 -0.57324235759E+03  0.57324235759E+03  0.00000000000E+00 0. -1.
         25    2    1    2    0    0 -0.11124321964E+03 -0.67600176989E+02 -0.29698831108E+03  0.34755504538E+03  0.12509042652E+03 0.  0.
          5    1    3    3  502    0 -0.26839764378E+02 -0.52383570949E+02 -0.23330324603E+03  0.24064972152E+03  0.41800000000E+01 0.  1.
         -5    1    3    3    0  502 -0.84403455266E+02 -0.15216606040E+02 -0.63685065044E+02  0.10690532386E+03  0.41800000000E+01 0.  1.
        -11    1    1    2    0    0  0.38898589509E+02 -0.16382325775E+02 -0.32023762213E+02  0.52981149571E+02  0.00000000000E+00 0.  1.
         11    1    1    2    0    0  0.72344630135E+02  0.83982502764E+02 -0.19373359621E+03  0.22320285074E+03  0.00000000000E+00 0. -1.
</event>
<event>
 7    1  0.2384639E-009  0.1268223E+03  0.7561462E-02  0.1232249E+00
         -2   -1    0    0    0  501 -0.00000000000E+00  0.00000000000E+00  0.27306424518E+02  0.27306424518E+02  0.00000000000E+00 0.  1.
          2   -1    0    0  501    0  0.00000000000E+00 -0.00000000000E+00 -0.10196332662E+04  0.10196332662E+04  0.00000000000E+00 0. -1.
         25    2    1    2    0    0 -0.53630354904E+02 -0.90824911027E+02 -0.75213841974E+03  0.76973071603E+03  0.12509114006E+03 0.  0.
          5    1    3    3  502    0 -0.48055742822E+02 -0.35886542484E+02 -0.11126971679E+03  0.12647379422E+03  0.41800000000E+01 0. -1.
         -5    1    3    3    0  502 -0.55746120825E+01 -0.54938368544E+02 -0.64086870295E+03  0.64325692181E+03  0.41800000000E+01 0. -1.
        -11    1    1    2    0    0  0.99879784694E+01 -0.18171184599E+02 -0.30341078245E+02  0.36749594456E+02  0.00000000000E+00 0.  1.
         11    1    1    2    0    0  0.43642376435E+02  0.10899609563E+03 -0.20984734367E+03  0.24045938020E+03  0.00000000000E+00 0. -1.
</event>
<event>
 7    1  0.2384639E-009  0.8054953E+02  0.7561462E-02  0.1327499E+00
         -2   -1    0    0    0  501 -0.00000000000E+00  0.00000000000E+00  0.49508491451E+03  0.49508491451E+03  0.00000000000E+00 0.  1.
          2   -1    0    0  501    0  0.00000000000E+00 -0.00000000000E+00 -0.26249424400E+02  0.26249424400E+02  0.00000000000E+00 0. -1.
         25    2    1    2    0    0 -0.11685671115E+02 -0.21924861631E+02  0.21101347612E+03  0.24655909044E+03  0.12508974181E+03 0.  0.
          5    1    3    3  502    0 -0.14091764484E+02 -0.55329011624E+02  0.34483244955E+02  0.66831459181E+02  0.41800000000E+01 0. -1.
         -5    1    3    3    0  502  0.24060933688E+01  0.33404149994E+02  0.17653023117E+03  0.17972763126E+03  0.41800000000E+01 0. -1.
        -11    1    1    2    0    0  0.38701938117E+02  0.73164708824E+01  0.22995596409E+03  0.23330477102E+03  0.00000000000E+00 0.  1.
         11    1    1    2    0    0 -0.27016267002E+02  0.14608390748E+02  0.27866049898E+02  0.41470477450E+02  0.00000000000E+00 0. -1.
</event>
<event>
 7    1  0.2384639E-009  0.1264606E+03  0.7561462E-02  0.1232804E+00
          2   -1    0    0  501    0  0.00000000000E+00  0.00000000000E+00  0.13608154006E+04  0.13608154006E+04  0.00000000000E+00 0. -1.
         -2   -1    0    0    0  501 -0.00000000000E+00 -0.00000000000E+00 -0.12341163066E+02  0.12341163066E+02  0.00000000000E+00 0.  1.
         25    2    1    2    0    0  0.43239880104E+02  0.55640408199E+02  0.74802685634E+03  0.76168039093E+03  0.12508915970E+03 0.  0.
          5    1    3    3  502    0 -0.34315191979E+02  0.51003118327E+02  0.42339326146E+03  0.42785298495E+03  0.41800000000E+01 0. -1.
         -5    1    3    3    0  502  0.77555072083E+02  0.46372898724E+01  0.32463359488E+03  0.33382740598E+03  0.41800000000E+01 0. -1.
        -11    1    1    2    0    0 -0.38309979410E+01 -0.71074365263E+02  0.43010011129E+03  0.43594993712E+03  0.00000000000E+00 0.  1.
         11    1    1    2    0    0 -0.39408882163E+02  0.15433957064E+02  0.17034726987E+03  0.17552623558E+03  0.00000000000E+00 0. -1.
</event>
<event>
 7    1  0.2384639E-009  0.1219871E+03  0.7561462E-02  0.1239855E+00
          2   -1    0    0  501    0  0.00000000000E+00  0.00000000000E+00  0.48809456495E+03  0.48809456495E+03  0.00000000000E+00 0. -1.
         -2   -1    0    0    0  501 -0.00000000000E+00 -0.00000000000E+00 -0.32461046255E+02  0.32461046255E+02  0.00000000000E+00 0.  1.
         25    2    1    2    0    0 -0.61787799976E+02 -0.12616005335E+01  0.29240649975E+03  0.32398923249E+03  0.12509251700E+03 0.  0.
          5    1    3    3  502    0 -0.56138469160E+02  0.56066728442E+02  0.13951382653E+03  0.16055088275E+03  0.41800000000E+01 0.  1.
         -5    1    3    3    0  502 -0.56493308164E+01 -0.57328328975E+02  0.15289267323E+03  0.16343834975E+03  0.41800000000E+01 0.  1.
        -11    1    1    2    0    0  0.15286871513E+01 -0.35923982322E+02  0.77071837270E+02  0.85046678303E+02  0.00000000000E+00 0. -1.
         11    1    1    2    0    0  0.60259112825E+02  0.37185582855E+02  0.86155181670E+02  0.11151970041E+03  0.00000000000E+00 0.  1.
</event>
<event>
 7    1  0.2384639E-009  0.1057831E+03  0.7561462E-02  0.1268584E+00
          2   -1    0    0  501    0  0.00000000000E+00  0.00000000000E+00  0.34718270529E+03  0.34718270529E+03  0.00000000000E+00 0. -1.
         -2   -1    0    0    0  501 -0.00000000000E+00 -0.00000000000E+00 -0.47610365274E+02  0.47610365274E+02  0.00000000000E+00 0.  1.
         25    2    1    2    0    0 -0.51885069213E+02  0.29902714936E+01  0.23494445802E+03  0.27119924647E+03  0.12509648596E+03 0.  0.
          5    1    3    3  502    0  0.36448916999E+02 -0.10458002919E+02  0.11770518505E+03  0.12373308516E+03  0.41800000000E+01 0.  1.
         -5    1    3    3    0  502 -0.88333986212E+02  0.13448274412E+02  0.11723927297E+03  0.14746616131E+03  0.41800000000E+01 0.  1.
        -11    1    1    2    0    0 -0.15177185186E+02  0.59701848776E+01  0.52348604613E+02  0.54830342536E+02  0.00000000000E+00 0. -1.
         11    1    1    2    0    0  0.67062254398E+02 -0.89604563712E+01  0.12279277384E+02  0.68763481561E+02  0.00000000000E+00 0.  1.
</event>
<event>
 7    1  0.2384639E-009  0.2352175E+03  0.7561462E-02  0.1123020E+00
          2   -1    0    0  501    0  0.00000000000E+00  0.00000000000E+00  0.22881659878E+03  0.22881659878E+03  0.00000000000E+00 0. -1.
         -2   -1    0    0    0  501 -0.00000000000E+00 -0.00000000000E+00 -0.29162831320E+03  0.29162831320E+03  0.00000000000E+00 0.  1.
         25    2    1    2    0    0 -0.19808780661E+03 -0.11152647195E+03 -0.79910648818E+02  0.27149510222E+03  0.12508775183E+03 0.  0.
          5    1    3    3  502    0 -0.14843721270E+03 -0.80187185840E+02  0.42212058315E+01  0.16881611850E+03  0.41800000000E+01 0.  1.
         -5    1    3    3    0  502 -0.49650593918E+02 -0.31339286112E+02 -0.84131854650E+02  0.10267898372E+03  0.41800000000E+01 0.  1.
        -11    1    1    2    0    0  0.10296956409E+02  0.40900008553E+02 -0.16938084315E+02  0.45450376359E+02  0.00000000000E+00 0. -1.
         11    1    1    2    0    0  0.18779085021E+03  0.70626463399E+02  0.34037018706E+02  0.20349943340E+03  0.00000000000E+00 0.  1.
</event>
<event>
 7    1  0.2384639E-009  0.8689233E+02  0.7561462E-02  0.1310557E+00
         -2   -1    0    0    0  501 -0.00000000000E+00  0.00000000000E+00  0.19872088746E+03  0.19872088746E+03  0.00000000000E+00 0.  1.
          2   -1    0    0  501    0  0.00000000000E+00 -0.00000000000E+00 -0.75305131948E+02  0.75305131948E+02  0.00000000000E+00 0. -1.
         25    2    1    2    0    0  0.10482766486E+02  0.55130255245E+02  0.56826260792E+02  0.14841516472E+03  0.12509437944E+03 0.  0.
          5    1    3    3  502    0  0.17846374668E+02  0.59730248165E+02  0.92410185827E+02  0.11154958753E+03  0.41800000000E+01 0. -1.
         -5    1    3    3    0  502 -0.73636081820E+01 -0.45999929204E+01 -0.35583925035E+02  0.36865577186E+02  0.41800000000E+01 0. -1.
        -11    1    1    2    0    0 -0.65411550003E+00 -0.77360411296E+02  0.65354894785E+02  0.10127350777E+03  0.00000000000E+00 0.  1.
         11    1    1    2    0    0 -0.98286509862E+01  0.22230156052E+02  0.12345999397E+01  0.24337346924E+02  0.00000000000E+00 0. -1.
</event>
<event>
 7    1  0.2384639E-009  0.8857918E+02  0.7561462E-02  0.1306329E+00
         -2   -1    0    0    0  501 -0.00000000000E+00  0.00000000000E+00  0.19555820645E+02  0.19555820645E+02  0.00000000000E+00 0.  1.
          2   -1    0    0  501    0  0.00000000000E+00 -0.00000000000E+00 -0.68514006244E+03  0.68514006244E+03  0.00000000000E+00 0. -1.
         25    2    1    2    0    0 -0.35129167148E+02  0.13575753583E+02 -0.50894674695E+03  0.52544435607E+03  0.12508645262E+03 0.  0.
          5    1    3    3  502    0 -0.39444154145E+02  0.45065356788E+02 -0.11088597329E+03  0.12609480224E+03  0.41800000000E+01 0.  1.
         -5    1    3    3    0  502  0.43149869969E+01 -0.31489603205E+02 -0.39806077366E+03  0.39934955383E+03  0.41800000000E+01 0.  1.
        -11    1    1    2    0    0  0.57703175425E+02  0.18362764975E+01 -0.86704977008E+02  0.10416708407E+03  0.00000000000E+00 0.  1.
         11    1    1    2    0    0 -0.22574008278E+02 -0.15412030081E+02 -0.69932517841E+02  0.75084442946E+02  0.00000000000E+00 0. -1.
</event>
<event>
 7    1  0.2384639E-009  0.1376193E+03  0.7561462E-02  0.1216569E+00
         -2   -1    0    0    0  501 -0.00000000000E+00  0.00000000000E+00  0.13891006052E+03  0.13891006052E+03  0.00000000000E+00 0.  1.
          2   -1    0    0  501    0  0.00000000000E+00 -0.00000000000E+00 -0.29017543040E+03  0.29017543040E+03  0.00000000000E+00 0. -1.
         25    2    1    2    0    0 -0.12430205053E+02 -0.91444424295E+02  0.71314558418E+02  0.17102818682E+03  0.12509309219E+03 0.  0.
          5    1    3    3  502    0 -0.52988488399E+02 -0.75513548604E+01  0.12137783423E+00  0.53686962995E+02  0.41800000000E+01 0. -1.
         -5    1    3    3    0  502  0.40558283347E+02 -0.83893069435E+02  0.71193180584E+02  0.11734122383E+03  0.41800000000E+01 0. -1.
        -11    1    1    2    0    0 -0.32480934813E+02  0.72668763744E+02 -0.16063572841E+03  0.17927520072E+03  0.00000000000E+00 0. -1.
         11    1    1    2    0    0  0.44911139865E+02  0.18775660551E+02 -0.61944199889E+02  0.78782103381E+02  0.00000000000E+00 0.  1.
</event>
<event>
 7    1  0.2384639E-009  0.1107708E+03  0.7561462E-02  0.1259149E+00
         -1   -1    0    0    0  501 -0.00000000000E+00  0.00000000000E+00  0.18881796988E+02  0.18881796988E+02  0.00000000000E+00 0.  1.
          1   -1    0    0  501    0  0.00000000000E+00 -0.00000000000E+00 -0.66729911506E+03  0.66729911506E+03  0.00000000000E+00 0. -1.
         25    2    1    2    0    0 -0.10361199108E+02 -0.22790141711E+02 -0.35596120451E+03  0.37813040684E+03  0.12508988948E+03 0.  0.
          5    1    3    3  502    0  0.37343957817E+02 -0.56695841782E+02 -0.21299117215E+03  0.22358824091E+03  0.41800000000E+01 0. -1.
         -5    1    3    3    0  502 -0.47705156925E+02  0.33905700071E+02 -0.14297003237E+03  0.15454216593E+03  0.41800000000E+01 0. -1.
        -11    1    1    2    0    0  0.45471630374E+02  0.35310451097E+02 -0.20615961437E+03  0.21404738663E+03  0.00000000000E+00 0. -1.
         11    1    1    2    0    0 -0.35110431266E+02 -0.12520309386E+02 -0.86296499186E+02  0.94003118579E+02  0.00000000000E+00 0.  1.
</event>
<event>
 7    1  0.2384639E-009  0.1467985E+03  0.7561462E-02  0.1204463E+00
          1   -1    0    0  501    0  0.00000000000E+00  0.00000000000E+00  0.18477199263E+03  0.18477199263E+03  0.00000000000E+00 0. -1.
         -1   -1    0    0    0  501 -0.00000000000E+00 -0.00000000000E+00 -0.13379292774E+03  0.13379292774E+03  0.00000000000E+00 0.  1.
         25    2    1    2    0    0 -0.65948717065E+02 -0.97503722799E+02  0.21488503480E+02  0.17311066357E+03  0.12509730939E+03 0.  0.
          5    1    3    3  502    0 -0.83834694844E+02 -0.15877717068E+02 -0.43690397246E+01  0.85538990332E+02  0.41800000000E+01 0. -1.
         -5    1    3    3    0  502  0.17885977780E+02 -0.81626005732E+02  0.25857543204E+02  0.87571673236E+02  0.41800000000E+01 0. -1.
        -11    1    1    2    0    0  0.35631836917E+02  0.19070919163E+02 -0.22830602787E+02  0.46417283240E+02  0.00000000000E+00 0.  1.
         11    1    1    2    0    0  0.30316880148E+02  0.78432803636E+02  0.52321164203E+02  0.99036973559E+02  0.00000000000E+00 0. -1.
</event>
<event>
 7    1  0.2384639E-009  0.9629076E+02  0.7561462E-02  0.1288295E+00
          2   -1    0    0  501    0  0.00000000000E+00  0.00000000000E+00  0.32658396603E+03  0.32658396603E+03  0.00000000000E+00 0. -1.
         -2   -1    0    0    0  501 -0.00000000000E+00 -0.00000000000E+00 -0.39683052761E+02  0.39683052761E+02  0.00000000000E+00 0.  1.
         25    2    1    2    0    0  0.72536248893E+01  0.27298645706E+02  0.13092731222E+03  0.18326824921E+03  0.12508980355E+03 0.  0.
          5    1    3    3  502    0 -0.27877735799E+02  0.66112326197E+02  0.53018301297E+02  0.89310808421E+02  0.41800000000E+01 0.  1.
         -5    1    3    3    0  502  0.35131360688E+02 -0.38813680491E+02  0.77909010919E+02  0.93957440788E+02  0.41800000000E+01 0.  1.
        -11    1    1    2    0    0  0.10331149110E+02  0.17356773355E+02  0.41288628103E+00  0.20202987361E+02  0.00000000000E+00 0.  1.
         11    1    1    2    0    0 -0.17584774000E+02 -0.44655419061E+02  0.15556071477E+03  0.16279578222E+03  0.00000000000E+00 0. -1.
</event>
<event>
 7    1  0.2384639E-009  0.1338216E+03  0.7561462E-02  0.1221893E+00
          1   -1    0    0  501    0  0.00000000000E+00  0.00000000000E+00  0.39010975671E+03  0.39010975671E+03  0.00000000000E+00 0. -1.
         -1   -1    0    0    0  501 -0.00000000000E+00 -0.00000000000E+00 -0.73881494387E+02  0.73881494387E+02  0.00000000000E+00 0.  1.
         25    2    1    2    0    0  0.12829890765E+03  0.69910226808E+01  0.19689345080E+03  0.26631369145E+03  0.12508583927E+03 0.  0.
          5    1    3    3  502    0  0.15625927460E+02 -0.17420422535E+02  0.13165100021E+03  0.13378003957E+03  0.41800000000E+01 0.  1.
         -5    1    3    3    0  502  0.11267298019E+03  0.24411445216E+02  0.65242450582E+02  0.13253365188E+03  0.41800000000E+01 0.  1.
        -11    1    1    2    0    0 -0.10677683723E+03 -0.49918152012E+01  0.13410780888E+03  0.17149669266E+03  0.00000000000E+00 0.  1.
         11    1    1    2    0    0 -0.21522070416E+02 -0.19992074796E+01 -0.14772997356E+02  0.26180866991E+02  0.00000000000E+00 0. -1.
</event>
<event>
 7    1  0.2384639E-009  0.1530743E+03  0.7561462E-02  0.1196745E+00
          1   -1    0    0  501    0  0.00000000000E+00  0.00000000000E+00  0.45088976129E+02  0.45088976129E+02  0.00000000000E+00 0. -1.
         -1   -1    0    0    0  501 -0.00000000000E+00 -0.00000000000E+00 -0.89104574877E+03  0.89104574877E+03  0.00000000000E+00 0.  1.
         25    2    1    2    0    0 -0.12472926452E+03 -0.61259079897E+02 -0.22222993909E+03  0.29042095258E+03  0.12509244412E+03 0.  0.
          5    1    3    3  502    0 -0.77589766903E+02 -0.40635682764E+02 -0.22211601052E+03  0.23879787514E+03  0.41800000000E+01 0.  1.
         -5    1    3    3    0  502 -0.47139497620E+02 -0.20623397133E+02 -0.11392856615E+00  0.51623077445E+02  0.41800000000E+01 0.  1.
        -11    1    1    2    0    0  0.86543627323E+02  0.85462558631E+02 -0.43936111643E+03  0.45588577406E+03  0.00000000000E+00 0.  1.
         11    1    1    2    0    0  0.38185637199E+02 -0.24203478733E+02 -0.18436571712E+03  0.18982799825E+03  0.00000000000E+00 0. -1.
</event>
<event>
 7    1  0.2384639E-009  0.1585188E+03  0.7561462E-02  0.1190379E+00
          2   -1    0    0  501    0  0.00000000000E+00  0.00000000000E+00  0.36366802141E+03  0.36366802141E+03  0.00000000000E+00 0. -1.
         -2   -1    0    0    0  501 -0.00000000000E+00 -0.00000000000E+00 -0.72100188218E+02  0.72100188218E+02  0.00000000000E+00 0.  1.
         25    2    1    2    0    0 -0.28307824947E+02 -0.11743109729E+03  0.14572198804E+03  0.22687878257E+03  0.12509072155E+03 0.  0.
          5    1    3    3  502    0 -0.75870544774E+02 -0.83506977664E+02  0.77396043350E+02  0.13688453093E+03  0.41800000000E+01 0.  1.
         -5    1    3    3    0  502  0.47562719827E+02 -0.33924119621E+02  0.68325944686E+02  0.89994251632E+02  0.41800000000E+01 0.  1.
        -11    1    1    2    0    0  0.43345586373E+02  0.21360638151E+02  0.72329001742E+02  0.86986212777E+02  0.00000000000E+00 0. -1.
         11    1    1    2    0    0 -0.15037761426E+02  0.96070459135E+02  0.73516843409E+02  0.12190321428E+03  0.00000000000E+00 0.  1.
</event>
<event>
 7    1  0.2384639E-009  0.1094009E+03  0.7561462E-02  0.1261683E+00
         -2   -1    0    0    0  501 -0.00000000000E+00  0.00000000000E+00  0.41526829195E+02  0.41526829195E+02  0.00000000000E+00 0.  1.
          2   -1    0    0  501    0  0.00000000000E+00 -0.00000000000E+00 -0.56067131123E+03  0.56067131123E+03  0.00000000000E+00 0. -1.
         25    2    1    2    0    0 -0.83620703303E+02  0.43342584892E+02 -0.37758317899E+03  0.40876351579E+03  0.12509017987E+03 0.  0.
          5    1    3    3  502    0 -0.19423735290E+02 -0.21967389043E+02 -0.24950810901E+03  0.25126005758E+03  0.41800000000E+01 0. -1.
         -5    1    3    3    0  502 -0.64196968013E+02  0.65309973936E+02 -0.12807506998E+03  0.15750345821E+03  0.41800000000E+01 0. -1.
        -11    1    1    2    0    0  0.24686723387E+02 -0.57845139308E+00 -0.11226272955E+03  0.11494646303E+03  0.00000000000E+00 0. -1.
         11    1    1    2    0    0  0.58933979917E+02 -0.42764133499E+02 -0.29298573494E+02  0.78488161601E+02  0.00000000000E+00 0.  1.
</event>
<event>
 7    1  0.2384639E-009  0.1929771E+03  0.7561462E-02  0.1155803E+00
          1   -1    0    0  501    0  0.00000000000E+00  0.00000000000E+00  0.19813929462E+03  0.19813929462E+03  0.00000000000E+00 0. -1.
         -1   -1    0    0    0  501 -0.00000000000E+00 -0.00000000000E+00 -0.21530142816E+03  0.21530142816E+03  0.00000000000E+00 0.  1.
         25    2    1    2    0    0 -0.44608642523E+02 -0.16967963768E+03 -0.17407677299E+02  0.21617613330E+03  0.12509189801E+03 0.  0.
          5    1    3    3  502    0 -0.38977515175E+02 -0.29437433313E+02  0.41182219651E+02  0.64025438574E+02  0.41800000000E+01 0. -1.
         -5    1    3    3    0  502 -0.56311273478E+01 -0.14024220436E+03 -0.58589896950E+02  0.15215069472E+03  0.41800000000E+01 0. -1.
        -11    1    1    2    0    0  0.38016136991E+02  0.13722455247E+02  0.70157878222E+01  0.41021381357E+02  0.00000000000E+00 0.  1.
         11    1    1    2    0    0  0.65925055323E+01  0.15595718243E+03 -0.67702440693E+01  0.15624320812E+03  0.00000000000E+00 0. -1.
</event>
<event>
 7    1  0.2384639E-009  0.9952576E+02  0.7561462E-02  0.1281296E+00
         -3   -1    0    0    0  501 -0.00000000000E+00  0.00000000000E+00  0.55468307529E+02  0.55468307529E+02  0.00000000000E+00 0.  1.
          3   -1    0    0  501    0  0.00000000000E+00 -0.00000000000E+00 -0.22830022208E+03  0.22830022208E+03  0.00000000000E+00 0. -1.
         25    2    1    2    0    0 -0.19572775830E+01 -0.13370335519E+02 -0.13241753177E+03  0.18266812719E+03  0.12510253859E+03 0.  0.
          5    1    3    3  502    0 -0.39928635585E+02  0.29020643640E+02 -0.11129248379E+03  0.12181946907E+03  0.41800000000E+01 0. -1.
         -5    1    3    3    0  502  0.37971358002E+02 -0.42390979158E+02 -0.21125047988E+02  0.60848658120E+02  0.41800000000E+01 0. -1.
        -11    1    1    2    0    0 -0.12480619204E+02 -0.37525229052E+02 -0.20755778483E+02  0.44662187716E+02  0.00000000000E+00 0.  1.
         11    1    1    2    0    0  0.14437896787E+02  0.50895564571E+02 -0.19658604298E+02  0.56438214709E+02  0.00000000000E+00 0. -1.
</event>
<event>
 7    1  0.2384639E-009  0.1303765E+03  0.7561462E-02  0.1226898E+00
          2   -1    0    0  501    0  0.00000000000E+00  0.00000000000E+00  0.23304922889E+02  0.23304922889E+02  0.00000000000E+00 0.  1.
         -2   -1    0    0    0  501 -0.00000000000E+00 -0.00000000000E+00 -0.10280687119E+04  0.10280687119E+04  0.00000000000E+00 0. -1.
         25    2    1    2    0    0 -0.92393398118E+02 -0.39810696721E+02 -0.68393003594E+03  0.70251639681E+03  0.12509021599E+03 0.  0.
          5    1    3    3  502    0 -0.10143300793E+03 -0.46665070892E+02 -0.68096195491E+03  0.69006734481E+03  0.41800000000E+01 0. -1.
         -5    1    3    3    0  502  0.90396098070E+01  0.68543741715E+01 -0.29680810323E+01  0.12449052002E+02  0.41800000000E+01 0. -1.
        -11    1    1    2    0    0 -0.46612971946E+01  0.39603899109E+02 -0.98214015817E+02  0.10600089348E+03  0.00000000000E+00 0. -1.
         11    1    1    2    0    0  0.97054695313E+02  0.20679761223E+00 -0.22261973726E+03  0.24285634450E+03  0.00000000000E+00 0.  1.
</event>
<event>
 7    1  0.2384639E-009  0.8576349E+02  0.7561462E-02  0.1313448E+00
          2   -1    0    0  501    0  0.00000000000E+00  0.00000000000E+00  0.39911049662E+03  0.39911049662E+03  0.00000000000E+00 0. -1.
         -2   -1    0    0    0  501 -0.00000000000E+00 -0.00000000000E+00 -0.37702411434E+02  0.37702411434E+02  0.00000000000E+00 0.  1.
         25    2    1    2    0    0 -0.17678284722E+02  0.47396045473E+02  0.15324156799E+03  0.20418001574E+03  0.12509034251E+03 0.  0.
          5    1    3    3  502    0 -0.34968010907E+02  0.54337059721E+02  0.17462306208E+02  0.67064762611E+02  0.41800000000E+01 0.  1.
         -5    1    3    3    0  502  0.17289726185E+02 -0.69410142483E+01  0.13577926178E+03  0.13711525313E+03  0.41800000000E+01 0.  1.
        -11    1    1    2    0    0  0.33736654112E+02  0.38712126712E+01  0.26168316506E+02  0.42871073079E+02  0.00000000000E+00 0.  1.
         11    1    1    2    0    0 -0.16058369390E+02 -0.51267258144E+02  0.18199820069E+03  0.18976181924E+03  0.00000000000E+00 0. -1.
</event>
<event>
 7    1  0.2384639E-009  0.1425873E+03  0.7561462E-02  0.1209889E+00
          2   -1    0    0  501    0  0.00000000000E+00  0.00000000000E+00  0.31206009154E+04  0.31206009154E+04  0.00000000000E+00 0. -1.
         -2   -1    0    0    0  501 -0.00000000000E+00 -0.00000000000E+00 -0.91420566065E+01  0.91420566065E+01  0.00000000000E+00 0.  1.
         25    2    1    2    0    0 -0.79425449311E+02  0.55558976170E+02  0.24621766205E+04  0.24672567917E+04  0.12508862459E+03 0.  0.
          5    1    3    3  502    0  0.10633649906E+02  0.62621169311E+02  0.75128621124E+03  0.75397806928E+03  0.41800000000E+01 0. -1.
         -5    1    3    3    0  502 -0.90059099217E+02 -0.70621931412E+01  0.17108904092E+04  0.17132787224E+04  0.41800000000E+01 0. -1.
        -11    1    1    2    0    0  0.81693706048E+01  0.23367250309E+02  0.10111903666E+03  0.10410488259E+03  0.00000000000E+00 0.  1.
         11    1    1    2    0    0  0.71256078706E+02 -0.78926226479E+02  0.54816320163E+03  0.55838129768E+03  0.00000000000E+00 0. -1.
</event>
<event>
 7    1  0.2384639E-009  0.1108943E+03  0.7561462E-02  0.1258923E+00
         -1   -1    0    0    0  501 -0.00000000000E+00  0.00000000000E+00  0.41078607228E+02  0.41078607228E+02  0.00000000000E+00 0.  1.
          1   -1    0    0  501    0  0.00000000000E+00 -0.00000000000E+00 -0.35067870527E+03  0.35067870527E+03  0.00000000000E+00 0. -1.
         25    2    1    2    0    0  0.34156176624E+02  0.27959115116E+02 -0.21959002956E+03  0.25654637214E+03  0.12509158029E+03 0.  0.
          5    1    3    3  502    0  0.84904385216E+01 -0.46925084410E+02 -0.49337077326E+02  0.68743513819E+02  0.41800000000E+01 0. -1.
         -5    1    3    3    0  502  0.25665738103E+02  0.74884199526E+02 -0.17025295223E+03  0.18780285832E+03  0.41800000000E+01 0. -1.
        -11    1    1    2    0    0 -0.27618472269E+02  0.27399995379E+02 -0.61052618622E+02  0.72394488725E+02  0.00000000000E+00 0. -1.
         11    1    1    2    0    0 -0.65377043555E+01 -0.55359110495E+02 -0.28957449865E+02  0.62816451632E+02  0.00000000000E+00 0.  1.
</event>
<event>
 7    1  0.2384639E-009  0.1237012E+03  0.7561462E-02  0.1237113E+00
          3   -1    0    0  501    0  0.00000000000E+00  0.00000000000E+00  0.32667485005E+03  0.32667485005E+03  0.00000000000E+00 0. -1.
         -3   -1    0    0    0  501 -0.00000000000E+00 -0.00000000000E+00 -0.51173945674E+02  0.51173945674E+02  0.00000000000E+00 0.  1.
         25    2    1    2    0    0  0.63147068079E+02  0.13617129769E+02  0.18881988143E+03  0.23552895586E+03  0.12509181825E+03 0.  0.
          5    1    3    3  502    0 -0.29395661029E+02  0.33806917496E+02  0.48256359089E+02  0.65978490059E+02  0.41800000000E+01 0.  1.
         -5    1    3    3    0  502  0.92542729108E+02 -0.20189787727E+02  0.14056352234E+03  0.16955046580E+03  0.41800000000E+01 0.  1.
        -11    1    1    2    0    0 -0.24415901701E+01  0.31729899366E+02  0.74414076496E+01  0.32682142282E+02  0.00000000000E+00 0.  1.
         11    1    1    2    0    0 -0.60705477909E+02 -0.45347029135E+02  0.79239615293E+02  0.10963769758E+03  0.00000000000E+00 0. -1.
</event>
<event>
 7    1  0.2384639E-009  0.1325583E+03  0.7561462E-02  0.1223708E+00
          2   -1    0    0  501    0  0.00000000000E+00  0.00000000000E+00  0.11928976889E+03  0.11928976889E+03  0.00000000000E+00 0. -1.
         -2   -1    0    0    0  501 -0.00000000000E+00 -0.00000000000E+00 -0.26093337032E+03  0.26093337032E+03  0.00000000000E+00 0.  1.
         25    2    1    2    0    0  0.60636370260E+02 -0.10065748371E+03  0.47703344120E+01  0.17169407332E+03  0.12508956910E+03 0.  0.
          5    1    3    3  502    0  0.43658144575E+02 -0.36293759292E+02 -0.57164699322E+02  0.80675558875E+02  0.41800000000E+01 0.  1.
         -5    1    3    3    0  502  0.16978225686E+02 -0.64363724420E+02  0.61935033734E+02  0.91018514448E+02  0.41800000000E+01 0.  1.
        -11    1    1    2    0    0  0.15127794113E+02 -0.46627729593E+00 -0.41898384524E+02  0.44548200805E+02  0.00000000000E+00 0.  1.
         11    1    1    2    0    0 -0.75764164374E+02  0.10112376101E+03 -0.10451555133E+03  0.16398086508E+03  0.00000000000E+00 0. -1.
</event>
<event>
 7    1  0.2384639E-009  0.8135370E+02  0.7561462E-02  0.1325253E+00
         -2   -1    0    0    0  501 -0.00000000000E+00  0.00000000000E+00  0.46558634413E+03  0.46558634413E+03  0.00000000000E+00 0. -1.
          2   -1    0    0  501    0  0.00000000000E+00 -0.00000000000E+00 -0.26379218182E+02  0.26379218182E+02  0.00000000000E+00 0.  1.
         25    2    1    2    0    0  0.18833165937E+02  0.15461660839E+01  0.17780741057E+03  0.21822026811E+03  0.12509009309E+03 0.  0.
          5    1    3    3  502    0 -0.10257179361E+02 -0.36113280075E+02  0.16428746572E+03  0.16857408615E+03  0.41800000000E+01 0.  1.
         -5    1    3    3    0  502  0.29090345298E+02  0.37659446159E+02  0.13519944846E+02  0.49646181960E+02  0.41800000000E+01 0.  1.
        -11    1    1    2    0    0 -0.45175644426E+02 -0.14979001486E+02  0.20015543561E+03  0.20573625771E+03  0.00000000000E+00 0.  1.
         11    1    1    2    0    0  0.26342478489E+02  0.13432835402E+02  0.61244279774E+02  0.68009036495E+02  0.00000000000E+00 0. -1.
</event>
<event>
 7    1  0.2384639E-009  0.9664728E+02  0.7561462E-02  0.1287509E+00
          2   -1    0    0  501    0  0.00000000000E+00  0.00000000000E+00  0.54741704141E+03  0.54741704141E+03  0.00000000000E+00 0. -1.
         -2   -1    0    0    0  501 -0.00000000000E+00 -0.00000000000E+00 -0.28646589197E+02  0.28646589197E+02  0.00000000000E+00 0.  1.
         25    2    1    2    0    0 -0.42669526605E+02  0.29243062175E+02  0.36710001844E+03  0.39125975633E+03  0.12508368480E+03 0.  0.
          5    1    3    3  502    0 -0.74905102542E+02  0.48135918023E+02  0.31252339224E+03  0.32498643678E+03  0.41800000000E+01 0. -1.
         -5    1    3    3    0  502  0.32235575937E+02 -0.18892855848E+02  0.54576626198E+02  0.66273319558E+02  0.41800000000E+01 0. -1.
        -11    1    1    2    0    0  0.79649728608E+01  0.10897520188E+02 -0.85816862367E+01  0.15995064163E+02  0.00000000000E+00 0.  1.
         11    1    1    2    0    0  0.34704553744E+02 -0.40140582363E+02  0.16025212001E+03  0.16880881011E+03  0.00000000000E+00 0. -1.
</event>
<event>
 7    1  0.2384639E-009  0.8629763E+02  0.7561462E-02  0.1312074E+00
          2   -1    0    0  501    0  0.00000000000E+00  0.00000000000E+00  0.54594892783E+03  0.54594892783E+03  0.00000000000E+00 0.  1.
         -2   -1    0    0    0  501 -0.00000000000E+00 -0.00000000000E+00 -0.32490608644E+02  0.32490608644E+02  0.00000000000E+00 0. -1.
         25    2    1    2    0    0  0.33932507087E+02 -0.43580756311E+02  0.16463005009E+03  0.21401033098E+03  0.12508665403E+03 0.  0.
          5    1    3    3  502    0  0.17805838142E+02  0.24933102060E+01 -0.17481697734E+02  0.25423347997E+02  0.41800000000E+01 0. -1.
         -5    1    3    3    0  502  0.16126668945E+02 -0.46074066517E+02  0.18211174782E+03  0.18858698298E+03  0.41800000000E+01 0. -1.
        -11    1    1    2    0    0 -0.59209266197E+02  0.51689326308E+02  0.27298873897E+03  0.28407811472E+03  0.00000000000E+00 0.  1.
         11    1    1    2    0    0  0.25276759109E+02 -0.81085699967E+01  0.75839530132E+02  0.80351090778E+02  0.00000000000E+00 0. -1.
</event>
<event>
 7    1  0.2384639E-009  0.1093871E+03  0.7561462E-02  0.1261709E+00
          2   -1    0    0  501    0  0.00000000000E+00  0.00000000000E+00  0.48817852748E+03  0.48817852748E+03  0.00000000000E+00 0. -1.
         -2   -1    0    0    0  501 -0.00000000000E+00 -0.00000000000E+00 -0.36503022461E+02  0.36503022461E+02  0.00000000000E+00 0.  1.
         25    2    1    2    0    0 -0.27070970586E+02 -0.77187459231E+01  0.39432501502E+03  0.41464678867E+03  0.12508926969E+03 0.  0.
          5    1    3    3  502    0 -0.75297955344E+02  0.24167032832E+01  0.28191926351E+03  0.29184167980E+03  0.41800000000E+01 0. -1.
         -5    1    3    3    0  502  0.48226984758E+02 -0.10135449206E+02  0.11240575152E+03  0.12280510887E+03  0.41800000000E+01 0. -1.
        -11    1    1    2    0    0  0.54240089254E+02  0.26960871890E+02  0.38594879214E+02  0.71822284821E+02  0.00000000000E+00 0.  1.
         11    1    1    2    0    0 -0.27169118668E+02 -0.19242125967E+02  0.18755610786E+02  0.38212476456E+02  0.00000000000E+00 0. -1.
</event>
<event>
 7    1  0.2384639E-009  0.8941539E+02  0.7561462E-02  0.1304274E+00
         -2   -1    0    0    0  501 -0.00000000000E+00  0.00000000000E+00  0.72941496530E+03  0.72941496530E+03  0.00000000000E+00 0.  1.
          2   -1    0    0  501    0  0.00000000000E+00 -0.00000000000E+00 -0.18459361287E+02  0.18459361287E+02  0.00000000000E+00 0. -1.
         25    2    1    2    0    0 -0.27794189733E+00  0.35162217399E+02  0.32939275874E+03  0.35409554745E+03  0.12509040105E+03 0.  0.
          5    1    3    3  502    0 -0.35007591863E+02  0.30688721959E+01  0.19143739018E+02  0.40235613680E+02  0.41800000000E+01 0. -1.
         -5    1    3    3    0  502  0.34729649966E+02  0.32093345203E+02  0.31024901972E+03  0.31385993377E+03  0.41800000000E+01 0. -1.
        -11    1    1    2    0    0 -0.24163487308E+02 -0.57804418503E+02  0.27867763999E+03  0.28563342232E+03  0.00000000000E+00 0.  1.
         11    1    1    2    0    0  0.24441429206E+02  0.22642201104E+02  0.10288520529E+03  0.10814535682E+03  0.00000000000E+00 0. -1.
</event>
<event>
 7    1  0.2384639E-009  0.1079920E+03  0.7561462E-02  0.1264334E+00
          1   -1    0    0  501    0  0.00000000000E+00  0.00000000000E+00  0.28599113389E+03  0.28599113389E+03  0.00000000000E+00 0. -1.
         -1   -1    0    0    0  501 -0.00000000000E+00 -0.00000000000E+00 -0.20385986906E+03  0.20385986906E+03  0.00000000000E+00 0.  1.
         25    2    1    2    0    0  0.41758567014E+02 -0.65069731559E+02 -0.16147458349E+03  0.21840120602E+03  0.12508875966E+03 0.  0.
          5    1    3    3  502    0 -0.30275457393E+02 -0.37747475518E+02 -0.11755856060E+02  0.49971469660E+02  0.41800000000E+01 0. -1.
         -5    1    3    3    0  502  0.72034024406E+02 -0.27322256042E+02 -0.14971872743E+03  0.16842973636E+03  0.41800000000E+01 0. -1.
        -11    1    1    2    0    0 -0.43458843173E+02  0.24964516865E+02  0.40562228238E+02  0.64476294185E+02  0.00000000000E+00 0.  1.
         11    1    1    2    0    0  0.17002761593E+01  0.40105214695E+02  0.20304362008E+03  0.20697350274E+03  0.00000000000E+00 0. -1.
</event>
<event>
 7    1  0.2618777E-009  0.9418311E+02  0.7561462E-02  0.1293027E+00
         -1   -1    0    0    0  501 -0.00000000000E+00  0.00000000000E+00  0.18564732725E+03  0.18564732725E+03  0.00000000000E+00 0.  1.
          1   -1    0    0  501    0  0.00000000000E+00 -0.00000000000E+00 -0.13904353183E+03  0.13904353183E+03  0.00000000000E+00 0. -1.
         25    2    1    2    0    0  0.74185200799E+02 -0.24878592609E+02  0.11430605491E+03  0.18664523644E+03  0.12509269247E+03 0.  0.
          5    1    3    3  502    0  0.26764514005E+02 -0.18442883110E+01 -0.25452130714E+02  0.37215910135E+02  0.41800000000E+01 0. -1.
         -5    1    3    3    0  502  0.47420686795E+02 -0.23034304298E+02  0.13975818563E+03  0.14942932630E+03  0.41800000000E+01 0. -1.
        -11    1    1    2    0    0 -0.41354785260E+02 -0.25215796917E+02 -0.60830704248E+02  0.77758788940E+02  0.00000000000E+00 0. -1.
         11    1    1    2    0    0 -0.32830415539E+02  0.50094389525E+02 -0.68715552494E+01  0.60286833703E+02  0.00000000000E+00 0.  1.
</event>
<event>
 7    1  0.2384639E-009  0.8747139E+02  0.7561462E-02  0.1309093E+00
         -3   -1    0    0    0  501 -0.00000000000E+00  0.00000000000E+00  0.24360428914E+03  0.24360428914E+03  0.00000000000E+00 0.  1.
          3   -1    0    0  501    0  0.00000000000E+00 -0.00000000000E+00 -0.62730943585E+02  0.62730943585E+02  0.00000000000E+00 0. -1.
         25    2    1    2    0    0 -0.13513278955E+02 -0.44117395916E+02  0.52799778319E+02  0.14340643994E+03  0.12509451265E+03 0.  0.
          5    1    3    3  502    0 -0.46910138662E+02 -0.10938959198E+02  0.76528775501E+02  0.90522637044E+02  0.41800000000E+01 0.  1.
         -5    1    3    3    0  502  0.33396859706E+02 -0.33178436718E+02 -0.23728997183E+02  0.52883802895E+02  0.41800000000E+01 0.  1.
        -11    1    1    2    0    0 -0.46615074751E+01 -0.15927958039E+02 -0.36820933544E+01  0.16999626782E+02  0.00000000000E+00 0. -1.
         11    1    1    2    0    0  0.18174786430E+02  0.60045353956E+02  0.13175566059E+03  0.14592916601E+03  0.00000000000E+00 0.  1.
</event>
<event>
 7    1  0.2384639E-009  0.1222261E+03  0.7561462E-02  0.1239469E+00
         -2   -1    0    0    0  501 -0.00000000000E+00  0.00000000000E+00  0.15913151642E+03  0.15913151642E+03  0.00000000000E+00 0.  1.
          2   -1    0    0  501    0  0.00000000000E+00 -0.00000000000E+00 -0.22222232582E+03  0.22222232582E+03  0.00000000000E+00 0. -1.
         25    2    1    2    0    0  0.25286240654E+02 -0.66926348118E+02  0.10428075154E+03  0.17787993804E+03  0.12509303408E+03 0.  0.
          5    1    3    3  502    0  0.12336301165E+02 -0.10375265700E+03  0.80661829831E+02  0.13206286894E+03  0.41800000000E+01 0. -1.
         -5    1    3    3    0  502  0.12949939490E+02  0.36826308877E+02  0.23618921713E+02  0.45817069103E+02  0.41800000000E+01 0. -1.
        -11    1    1    2    0    0 -0.41092635637E+02  0.11044739752E+02 -0.24151095371E+02  0.48927153886E+02  0.00000000000E+00 0.  1.
         11    1    1    2    0    0  0.15806394982E+02  0.55881608367E+02 -0.14322046557E+03  0.15454675032E+03  0.00000000000E+00 0. -1.
</event>
<event>
 7    1  0.2384639E-009  0.1026328E+03  0.7561462E-02  0.1274855E+00
          1   -1    0    0  501    0  0.00000000000E+00  0.00000000000E+00  0.48346322669E+02  0.48346322669E+02  0.00000000000E+00 0. -1.
         -1   -1    0    0    0  501 -0.00000000000E+00 -0.00000000000E+00 -0.31242503139E+03  0.31242503139E+03  0.00000000000E+00 0.  1.
         25    2    1    2    0    0  0.16293725882E+02 -0.42880704023E+02 -0.94450125512E+02  0.16330345929E+03  0.12507179269E+03 0.  0.
          5    1    3    3  502    0  0.60980697328E+02 -0.85279375635E+01 -0.86451809251E+02  0.10622033180E+03  0.41800000000E+01 0.  1.
         -5    1    3    3    0  502 -0.44686971446E+02 -0.34352766460E+02 -0.79983162612E+01  0.57083127485E+02  0.41800000000E+01 0.  1.
        -11    1    1    2    0    0 -0.45979945483E+02  0.27828019686E+02 -0.50397388158E+02  0.73678021142E+02  0.00000000000E+00 0. -1.
         11    1    1    2    0    0  0.29686219601E+02  0.15052684337E+02 -0.11923119505E+03  0.12378987363E+03  0.00000000000E+00 0.  1.
</event>
<event>
 7    1  0.2384639E-009  0.1058740E+03  0.7561462E-02  0.1268407E+00
          2   -1    0    0  501    0  0.00000000000E+00  0.00000000000E+00  0.18808052114E+03  0.18808052114E+03  0.00000000000E+00 0. -1.
         -2   -1    0    0    0  501 -0.00000000000E+00 -0.00000000000E+00 -0.10676242431E+03  0.10676242431E+03  0.00000000000E+00 0.  1.
         25    2    1    2    0    0  0.15070739279E+02  0.84996536321E+02  0.15681343503E+02  0.15278943025E+03  0.12508863695E+03 0.  0.
          5    1    3    3  502    0  0.18700543241E+02  0.44252176197E+02 -0.53677888147E+02  0.72157837354E+02  0.41800000000E+01 0. -1.
         -5    1    3    3    0  502 -0.36298039623E+01  0.40744360124E+02  0.69359231649E+02  0.80631592901E+02  0.41800000000E+01 0. -1.
        -11    1    1    2    0    0  0.36437266645E+02 -0.38632325730E+02  0.45376786097E+02  0.69851153951E+02  0.00000000000E+00 0. -1.
         11    1    1    2    0    0 -0.51508005924E+02 -0.46364210591E+02  0.20259967227E+02  0.72202361250E+02  0.00000000000E+00 0.  1.
</event>
<event>
 7    1  0.2384639E-009  0.2137954E+03  0.7561462E-02  0.1138595E+00
          2   -1    0    0  501    0  0.00000000000E+00  0.00000000000E+00  0.99739272851E+03  0.99739272851E+03  0.00000000000E+00 0. -1.
         -2   -1    0    0    0  501 -0.00000000000E+00 -0.00000000000E+00 -0.57921783928E+02  0.57921783928E+02  0.00000000000E+00 0.  1.
         25    2    1    2    0    0  0.20157714434E+03 -0.68532098315E+02  0.43529830929E+03  0.50046214574E+03  0.12509095743E+03 0.  0.
          5    1    3    3  502    0  0.11535710761E+03 -0.26859895098E+02  0.11131009272E+03  0.16259189827E+03  0.41800000000E+01 0.  1.
         -5    1    3    3    0  502  0.86220036735E+02 -0.41672203217E+02  0.32398821656E+03  0.33787024747E+03  0.41800000000E+01 0.  1.
        -11    1    1    2    0    0 -0.17558366049E+03  0.63700645771E+02  0.49097324699E+03  0.52530193543E+03  0.00000000000E+00 0. -1.
         11    1    1    2    0    0 -0.25993483851E+02  0.48314525448E+01  0.13199388301E+02  0.29550431265E+02  0.00000000000E+00 0.  1.
</event>
<event>
 7    1  0.2384639E-009  0.1011913E+03  0.7561462E-02  0.1277811E+00
          1   -1    0    0  501    0  0.00000000000E+00  0.00000000000E+00  0.73982471370E+02  0.73982471370E+02  0.00000000000E+00 0. -1.
         -1   -1    0    0    0  501 -0.00000000000E+00 -0.00000000000E+00 -0.26275233728E+03  0.26275233728E+03  0.00000000000E+00 0.  1.
         25    2    1    2    0    0 -0.58839488222E+02  0.63227368672E+02 -0.11886853894E+03  0.19296790498E+03  0.12508835788E+03 0.  0.
          5    1    3    3  502    0 -0.36275856924E+02  0.15803701286E+02  0.19934099067E+02  0.44503207475E+02  0.41800000000E+01 0. -1.
         -5    1    3    3    0  502 -0.22563631298E+02  0.47423667386E+02 -0.13880263801E+03  0.14846469750E+03  0.41800000000E+01 0. -1.
        -11    1    1    2    0    0  0.72723954380E+02 -0.40402325321E+02 -0.17596327270E+02  0.85033829535E+02  0.00000000000E+00 0. -1.
         11    1    1    2    0    0 -0.13884466158E+02 -0.22825043352E+02 -0.52304999701E+02  0.58733074143E+02  0.00000000000E+00 0.  1.
</event>
<event>
 7    1  0.2384639E-009  0.1337436E+03  0.7561462E-02  0.1222004E+00
         -2   -1    0    0    0  501 -0.00000000000E+00  0.00000000000E+00  0.33401149176E+02  0.33401149176E+02  0.00000000000E+00 0.  1.
          2   -1    0    0  501    0  0.00000000000E+00 -0.00000000000E+00 -0.78829765687E+03  0.78829765687E+03  0.00000000000E+00 0. -1.
         25    2    1    2    0    0  0.84148866237E+02 -0.57841481879E+02 -0.56087023875E+03  0.58365225836E+03  0.12509142760E+03 0.  0.
          5    1    3    3  502    0 -0.16952455195E+02 -0.22680668388E+02 -0.27715778239E+02  0.39842630674E+02  0.41800000000E+01 0.  1.
         -5    1    3    3    0  502  0.10110132143E+03 -0.35160813491E+02 -0.53315446051E+03  0.54380962768E+03  0.41800000000E+01 0.  1.
        -11    1    1    2    0    0  0.10248794684E+02  0.32390660916E+02 -0.85357891981E+02  0.91870356647E+02  0.00000000000E+00 0.  1.
         11    1    1    2    0    0 -0.94397660921E+02  0.25450820963E+02 -0.10866837697E+03  0.14617619105E+03  0.00000000000E+00 0. -1.
</event>
<event>
 7    1  0.2384639E-009  0.1395338E+03  0.7561462E-02  0.1213958E+00
          1   -1    0    0  501    0  0.00000000000E+00  0.00000000000E+00  0.17060793478E+03  0.17060793478E+03  0.00000000000E+00 0. -1.
         -1   -1    0    0    0  501 -0.00000000000E+00 -0.00000000000E+00 -0.15512126465E+03  0.15512126465E+03  0.00000000000E+00 0.  1.
         25    2    1    2    0    0 -0.11955456437E+02  0.97349540195E+02 -0.61823644345E+02  0.17055500999E+03  0.12508789917E+03 0.  0.
          5    1    3    3  502    0  0.24204094148E+02  0.10824870439E+03 -0.70609663177E+02  0.13155537659E+03  0.41800000000E+01 0. -1.
         -5    1    3    3    0  502 -0.36159550585E+02 -0.10899164197E+02  0.87860188323E+01  0.38999633403E+02  0.41800000000E+01 0. -1.
        -11    1    1    2    0    0 -0.36985179840E+02 -0.47644425726E+02  0.16240161550E+02  0.62463090523E+02  0.00000000000E+00 0.  1.
         11    1    1    2    0    0  0.48940636277E+02 -0.49705114469E+02  0.61070152927E+02  0.92711098916E+02  0.00000000000E+00 0. -1.
</event>
<event>
 7    1  0.2384639E-009  0.1487194E+03  0.7561462E-02  0.1202055E+00
         -1   -1    0    0    0  501 -0.00000000000E+00  0.00000000000E+00  0.84913926863E+02  0.84913926863E+02  0.00000000000E+00 0.  1.
          1   -1    0    0  501    0  0.00000000000E+00 -0.00000000000E+00 -0.34982981090E+03  0.34982981090E+03  0.00000000000E+00 0. -1.
         25    2    1    2    0    0  0.12944372719E+03 -0.22629829503E+02 -0.17351217698E+03  0.25104189076E+03  0.12509103751E+03 0.  0.
          5    1    3    3  502    0  0.51499042578E+02 -0.48482141573E+02 -0.14928951471E+02  0.72408669578E+02  0.41800000000E+01 0.  1.
         -5    1    3    3    0  502  0.77944684613E+02  0.25852312070E+02 -0.15858322551E+03  0.17863322118E+03  0.41800000000E+01 0.  1.
        -11    1    1    2    0    0 -0.42106715481E+02 -0.20637675840E+02  0.43185954916E+01  0.47090757264E+02  0.00000000000E+00 0.  1.
         11    1    1    2    0    0 -0.87337011710E+02  0.43267505343E+02 -0.95722302546E+02  0.13661108973E+03  0.00000000000E+00 0. -1.
</event>
<event>
 7    1  0.2384639E-009  0.1457998E+03  0.7561462E-02  0.1205731E+00
         -2   -1    0    0    0  501 -0.00000000000E+00  0.00000000000E+00  0.10740668914E+03  0.10740668914E+03  0.00000000000E+00 0.  1.
          2   -1    0    0  501    0  0.00000000000E+00 -0.00000000000E+00 -0.24710410855E+03  0.24710410855E+03  0.00000000000E+00 0. -1.
         25    2    1    2    0    0 -0.51295718197E+02  0.88294901604E+02 -0.14551988084E+03  0.21737283147E+03  0.12509065427E+03 0.  0.
          5    1    3    3  502    0 -0.88468719567E+02  0.86707279960E+02 -0.11480346429E+03  0.16894429423E+03  0.41800000000E+01 0.  1.
         -5    1    3    3    0  502  0.37173001370E+02  0.15876216441E+01 -0.30716416550E+02  0.48428537238E+02  0.41800000000E+01 0.  1.
        -11    1    1    2    0    0  0.22939636808E+02 -0.97685842556E+02 -0.13961413191E+02  0.10130978152E+03  0.00000000000E+00 0. -1.
         11    1    1    2    0    0  0.28356081390E+02  0.93909409517E+01  0.19783874624E+02  0.35828184700E+02  0.00000000000E+00 0.  1.
</event>
<event>
 7    1  0.2384639E-009  0.1109254E+03  0.7561462E-02  0.1258866E+00
          2   -1    0    0  501    0  0.00000000000E+00  0.00000000000E+00  0.12721035526E+03  0.12721035526E+03  0.00000000000E+00 0.  1.
         -2   -1    0    0    0  501 -0.00000000000E+00 -0.00000000000E+00 -0.14401852109E+03  0.14401852109E+03  0.00000000000E+00 0. -1.
         25    2    1    2    0    0  0.24346894505E+02 -0.76966825283E+02 -0.21609171910E+02  0.15043827866E+03  0.12509218965E+03 0.  0.
          5    1    3    3  502    0  0.54649570853E+02 -0.67519256973E+02  0.28029756781E+02  0.91370483865E+02  0.41800000000E+01 0.  1.
         -5    1    3    3    0  502 -0.30302676347E+02 -0.94475683095E+01 -0.49638928691E+02  0.59067794799E+02  0.41800000000E+01 0.  1.
        -11    1    1    2    0    0 -0.40843006606E+02  0.23951388699E+02 -0.29253877448E+02  0.55656172658E+02  0.00000000000E+00 0. -1.
         11    1    1    2    0    0  0.16496112101E+02  0.53015436584E+02  0.34054883528E+02  0.65134425021E+02  0.00000000000E+00 0.  1.
</event>
<event>
 7    1  0.2384639E-009  0.8065404E+02  0.7561462E-02  0.1327206E+00
         -1   -1    0    0    0  501 -0.00000000000E+00  0.00000000000E+00  0.21405759483E+03  0.21405759483E+03  0.00000000000E+00 0.  1.
          1   -1    0    0  501    0  0.00000000000E+00 -0.00000000000E+00 -0.90210067427E+02  0.90210067427E+02  0.00000000000E+00 0. -1.
         25    2    1    2    0    0  0.28933138073E+02  0.24511087512E+02 -0.14778616394E+02  0.13154456778E+03  0.12509055089E+03 0.  0.
          5    1    3    3  502    0  0.68865601098E+01  0.33743260809E+02 -0.66170198682E+02  0.74712783068E+02  0.41800000000E+01 0. -1.
         -5    1    3    3    0  502  0.22046577963E+02 -0.92321732961E+01  0.51391582289E+02  0.56831784714E+02  0.41800000000E+01 0. -1.
        -11    1    1    2    0    0  0.33399347718E+02 -0.21951290446E+02  0.44649125455E+02  0.59924285428E+02  0.00000000000E+00 0. -1.
         11    1    1    2    0    0 -0.62332485791E+02 -0.25597970670E+01  0.93977018341E+02  0.11279880905E+03  0.00000000000E+00 0.  1.
</event>
<event>
 7    1  0.2384639E-009  0.9810887E+02  0.7561462E-02  0.1284324E+00
         -1   -1    0    0    0  501 -0.00000000000E+00  0.00000000000E+00  0.17203792254E+02  0.17203792254E+02  0.00000000000E+00 0.  1.
          1   -1    0    0  501    0  0.00000000000E+00 -0.00000000000E+00 -0.10380805002E+04  0.10380805002E+04  0.00000000000E+00 0. -1.
         25    2    1    2    0    0 -0.40911843247E+02 -0.52860372782E+01 -0.81881393840E+03  0.82934000560E+03  0.12508740171E+03 0.  0.
          5    1    3    3  502    0 -0.59059671175E+02 -0.36989961474E+02 -0.72836578162E+03  0.73170382413E+03  0.41800000000E+01 0.  1.
         -5    1    3    3    0  502  0.18147827928E+02  0.31703924196E+02 -0.90448156782E+02  0.97636181476E+02  0.41800000000E+01 0.  1.
        -11    1    1    2    0    0  0.62025881339E+02  0.18502782080E+02 -0.18433966009E+03  0.19537316393E+03  0.00000000000E+00 0. -1.
         11    1    1    2    0    0 -0.21114038092E+02 -0.13216744802E+02 -0.17723109442E+02  0.30571122911E+02  0.00000000000E+00 0.  1.
</event>
<event>
 7    1  0.2384639E-009  0.9181926E+02  0.7561462E-02  0.1298505E+00
          1   -1    0    0  501    0  0.00000000000E+00  0.00000000000E+00  0.30569659123E+03  0.30569659123E+03  0.00000000000E+00 0. -1.
         -1   -1    0    0    0  501 -0.00000000000E+00 -0.00000000000E+00 -0.44365659435E+02  0.44365659435E+02  0.00000000000E+00 0.  1.
         25    2    1    2    0    0 -0.32220787888E+02  0.75031206941E+01  0.10556419501E+03  0.16698996257E+03  0.12508945735E+03 0.  0.
          5    1    3    3  502    0  0.37271821510E+02  0.32410959850E+02  0.67733400636E+02  0.83934170388E+02  0.41800000000E+01 0.  1.
         -5    1    3    3    0  502 -0.69492609398E+02 -0.24907839156E+02  0.37830794375E+02  0.83055792185E+02  0.41800000000E+01 0.  1.
        -11    1    1    2    0    0  0.25217727279E+02  0.19724493345E+02  0.84704667303E+01  0.33117038114E+02  0.00000000000E+00 0.  1.
         11    1    1    2    0    0  0.70030606092E+01 -0.27227614039E+02  0.14729627005E+03  0.14995524997E+03  0.00000000000E+00 0. -1.
</event>
<event>
 7    1  0.2384639E-009  0.1704027E+03  0.7561462E-02  0.1177429E+00
          1   -1    0    0  501    0  0.00000000000E+00  0.00000000000E+00  0.55266430477E+03  0.55266430477E+03  0.00000000000E+00 0.  1.
         -1   -1    0    0    0  501 -0.00000000000E+00 -0.00000000000E+00 -0.89749106925E+02  0.89749106925E+02  0.00000000000E+00 0. -1.
         25    2    1    2    0    0 -0.14345049819E+03  0.66169795537E+02  0.40149704978E+03  0.44922834907E+03  0.12509892631E+03 0.  0.
          5    1    3    3  502    0 -0.73010065978E+02 -0.12167525016E+02  0.72274416536E+02  0.10353541464E+03  0.41800000000E+01 0.  1.
         -5    1    3    3    0  502 -0.70440432208E+02  0.78337320553E+02  0.32922263324E+03  0.34569293443E+03  0.41800000000E+01 0.  1.
        -11    1    1    2    0    0  0.43837041071E+02 -0.44710713965E+01  0.61934996951E+02  0.76010660414E+02  0.00000000000E+00 0.  1.
         11    1    1    2    0    0  0.99613457115E+02 -0.61698724140E+02 -0.51684888294E+00  0.11717440220E+03  0.00000000000E+00 0. -1.
</event>
<event>
 7    1  0.2384639E-009  0.3479520E+03  0.7561462E-02  0.1063459E+00
         -2   -1    0    0    0  501 -0.00000000000E+00  0.00000000000E+00  0.28733720611E+03  0.28733720611E+03  0.00000000000E+00 0.  1.
          2   -1    0    0  501    0  0.00000000000E+00 -0.00000000000E+00 -0.49475514443E+03  0.49475514443E+03  0.00000000000E+00 0. -1.
         25    2    1    2    0    0 -0.31957134166E+03 -0.10946358508E+03 -0.23832297748E+03  0.43191857584E+03  0.12509074984E+03 0.  0.
          5    1    3    3  502    0 -0.17619006964E+03 -0.11983113132E+03 -0.17041457709E+03  0.27287550487E+03  0.41800000000E+01 0. -1.
         -5    1    3    3    0  502 -0.14338127202E+03  0.10367546241E+02 -0.67908400392E+02  0.15904307097E+03  0.41800000000E+01 0. -1.
        -11    1    1    2    0    0  0.18050430043E+03  0.47037156839E+02  0.58015048481E+02  0.19534595580E+03  0.00000000000E+00 0.  1.
         11    1    1    2    0    0  0.13906704123E+03  0.62426428240E+02 -0.27110009314E+02  0.15482781889E+03  0.00000000000E+00 0. -1.
</event>
<event>
 7    1  0.2384639E-009  0.1634151E+03  0.7561462E-02  0.1184894E+00
         -2   -1    0    0    0  501 -0.00000000000E+00  0.00000000000E+00  0.83543521478E+02  0.83543521478E+02  0.00000000000E+00 0.  1.
          2   -1    0    0  501    0  0.00000000000E+00 -0.00000000000E+00 -0.32836108844E+03  0.32836108844E+03  0.00000000000E+00 0. -1.
         25    2    1    2    0    0 -0.85498933174E+02 -0.88420701478E+02 -0.16104354052E+03  0.23813979528E+03  0.12508897686E+03 0.  0.
          5    1    3    3  502    0 -0.70453265924E+02 -0.12030169642E+03 -0.12123272972E+03  0.18479991341E+03  0.41800000000E+01 0. -1.
         -5    1    3    3    0  502 -0.15045667250E+02  0.31880994945E+02 -0.39810810800E+02  0.53339881873E+02  0.41800000000E+01 0. -1.
        -11    1    1    2    0    0  0.56924573625E+02 -0.20668075753E+01 -0.25512115033E+02  0.62414315581E+02  0.00000000000E+00 0. -1.
         11    1    1    2    0    0  0.28574359549E+02  0.90487509053E+02 -0.58261911407E+02  0.11135049905E+03  0.00000000000E+00 0.  1.
</event>
<event>
 7    1  0.2384639E-009  0.1242935E+03  0.7561462E-02  0.1236178E+00
         -2   -1    0    0    0  501 -0.00000000000E+00  0.00000000000E+00  0.26281029858E+02  0.26281029858E+02  0.00000000000E+00 0.  1.
          2   -1    0    0  501    0  0.00000000000E+00 -0.00000000000E+00 -0.91868833112E+03  0.91868833112E+03  0.00000000000E+00 0. -1.
         25    2    1    2    0    0  0.85693267764E+02 -0.20276736420E+02 -0.68644274255E+03  0.70328296101E+03  0.12509517282E+03 0.  0.
          5    1    3    3  502    0  0.87769182095E+02  0.14076299338E+02 -0.63526830395E+03  0.64147085821E+03  0.41800000000E+01 0. -1.
         -5    1    3    3    0  502 -0.20759143312E+01 -0.34353035758E+02 -0.51174438596E+02  0.61812102793E+02  0.41800000000E+01 0. -1.
        -11    1    1    2    0    0 -0.79975498386E+02 -0.21458494281E+02 -0.11798973196E+03  0.14414619026E+03  0.00000000000E+00 0.  1.
         11    1    1    2    0    0 -0.57177693783E+01  0.41735230700E+02 -0.87974826754E+02  0.97540209713E+02  0.00000000000E+00 0. -1.
</event>
<event>
 7    1  0.2384639E-009  0.1130442E+03  0.7561462E-02  0.1255034E+00
          4   -1    0    0  501    0  0.00000000000E+00  0.00000000000E+00  0.49761931658E+02  0.49761931658E+02  0.00000000000E+00 0. -1.
         -4   -1    0    0    0  501 -0.00000000000E+00 -0.00000000000E+00 -0.31010773922E+03  0.31010773922E+03  0.00000000000E+00 0.  1.
         25    2    1    2    0    0  0.34682567551E+02 -0.30348726881E+02 -0.82928318419E+02  0.15699897501E+03  0.12509055298E+03 0.  0.
          5    1    3    3  502    0 -0.27218613337E+02  0.31511459916E+02 -0.45230529845E+02  0.61620599219E+02  0.41800000000E+01 0. -1.
         -5    1    3    3    0  502  0.61901180888E+02 -0.61860186797E+02 -0.37697788574E+02  0.95378375795E+02  0.41800000000E+01 0. -1.
        -11    1    1    2    0    0 -0.28710508752E+02 -0.26735921263E+02 -0.53865931076E+02  0.66638137199E+02  0.00000000000E+00 0.  1.
         11    1    1    2    0    0 -0.59720587987E+01  0.57084648144E+02 -0.12355155807E+03  0.13623255867E+03  0.00000000000E+00 0. -1.
</event>
<event>
 7    1  0.2384639E-009  0.1003849E+03  0.7561462E-02  0.1279489E+00
         -4   -1    0    0    0  501 -0.00000000000E+00  0.00000000000E+00  0.25057794128E+03  0.25057794128E+03  0.00000000000E+00 0.  1.
          4   -1    0    0  501    0  0.00000000000E+00 -0.00000000000E+00 -0.73440566362E+02  0.73440566362E+02  0.00000000000E+00 0. -1.
         25    2    1    2    0    0 -0.10390384756E+02  0.63834526484E+02  0.14862268887E+03  0.20474257239E+03  0.12509200789E+03 0.  0.
          5    1    3    3  502    0 -0.39187160086E+02 -0.21606073607E+02  0.24246745815E+02  0.51066946403E+02  0.41800000000E+01 0. -1.
         -5    1    3    3    0  502  0.28796775330E+02  0.85440600091E+02  0.12437594305E+03  0.15367562599E+03  0.41800000000E+01 0. -1.
        -11    1    1    2    0    0 -0.19297812985E+01 -0.18060741239E+02  0.59788194157E+02  0.62486339231E+02  0.00000000000E+00 0.  1.
         11    1    1    2    0    0  0.12320166055E+02 -0.45773785245E+02 -0.31273508102E+02  0.56789596022E+02  0.00000000000E+00 0. -1.
</event>
<event>
 7    1  0.2384639E-009  0.9659605E+02  0.7561462E-02  0.1287621E+00
          1   -1    0    0  501    0  0.00000000000E+00  0.00000000000E+00  0.56377680642E+03  0.56377680642E+03  0.00000000000E+00 0. -1.
         -1   -1    0    0    0  501 -0.00000000000E+00 -0.00000000000E+00 -0.35798616006E+02  0.35798616006E+02  0.00000000000E+00 0.  1.
         25    2    1    2    0    0 -0.75378791336E+02 -0.26867452904E+01  0.44734774314E+03  0.47059154737E+03  0.12508884993E+03 0.  0.
          5    1    3    3  502    0 -0.44321671412E+02 -0.28291947216E+02  0.55159308571E+02  0.76320813387E+02  0.41800000000E+01 0. -1.
         -5    1    3    3    0  502 -0.31057119923E+02  0.25605201925E+02  0.39218843457E+03  0.39427073398E+03  0.41800000000E+01 0. -1.
        -11    1    1    2    0    0  0.63729468698E+02 -0.26142218881E+02  0.62374347928E+02  0.92926960932E+02  0.00000000000E+00 0. -1.
         11    1    1    2    0    0  0.11649322638E+02  0.28828964171E+02  0.18256099348E+02  0.36056914129E+02  0.00000000000E+00 0.  1.
</event>
<event>
 7    1  0.2384639E-009  0.1269765E+03  0.7561462E-02  0.1232012E+00
         -1   -1    0    0    0  501 -0.00000000000E+00  0.00000000000E+00  0.13370345738E+03  0.13370345738E+03  0.00000000000E+00 0.  1.
          1   -1    0    0  501    0  0.00000000000E+00 -0.00000000000E+00 -0.28540902764E+03  0.28540902764E+03  0.00000000000E+00 0. -1.
         25    2    1    2    0    0  0.71815141192E+02  0.57971030075E+02 -0.22243014355E+03  0.27136784390E+03  0.12508910069E+03 0.  0.
          5    1    3    3  502    0  0.10150136126E+03  0.34790370820E+02 -0.11447739530E+03  0.15695681786E+03  0.41800000000E+01 0. -1.
         -5    1    3    3    0  502 -0.29686220064E+02  0.23180659255E+02 -0.10795274824E+03  0.11441102604E+03  0.41800000000E+01 0. -1.
        -11    1    1    2    0    0 -0.86906046506E+01 -0.42910130138E+02 -0.92543087066E+01  0.44748721851E+02  0.00000000000E+00 0. -1.
         11    1    1    2    0    0 -0.63124536541E+02 -0.15060899937E+02  0.79978881994E+02  0.10299591927E+03  0.00000000000E+00 0.  1.
</event>
<event>
 7    1  0.2384639E-009  0.9546247E+02  0.7561462E-02  0.1290138E+00
          2   -1    0    0  501    0  0.00000000000E+00  0.00000000000E+00  0.36903444583E+03  0.36903444583E+03  0.00000000000E+00 0. -1.
         -2   -1    0    0    0  501 -0.00000000000E+00 -0.00000000000E+00 -0.35024170418E+02  0.35024170418E+02  0.00000000000E+00 0.  1.
         25    2    1    2    0    0  0.29212951745E+02 -0.16093144870E+02  0.20370857605E+03  0.24136755496E+03  0.12509487108E+03 0.  0.
          5    1    3    3  502    0  0.71584712671E+02 -0.83136005797E+01  0.68936260428E+02  0.99815667330E+02  0.41800000000E+01 0. -1.
         -5    1    3    3    0  502 -0.42371760927E+02 -0.77795442900E+01  0.13477231563E+03  0.14155188763E+03  0.41800000000E+01 0. -1.
        -11    1    1    2    0    0 -0.39718874048E+02  0.35575122961E+02  0.32564764376E+02  0.62479134182E+02  0.00000000000E+00 0.  1.
         11    1    1    2    0    0  0.10505922303E+02 -0.19481978091E+02  0.97736934982E+02  0.10021192710E+03  0.00000000000E+00 0. -1.
</event>
<event>
 7    1  0.2384639E-009  0.1308600E+03  0.7561462E-02  0.1226185E+00
          2   -1    0    0  501    0  0.00000000000E+00  0.00000000000E+00  0.55267285303E+03  0.55267285303E+03  0.00000000000E+00 0. -1.
         -2   -1    0    0    0  501 -0.00000000000E+00 -0.00000000000E+00 -0.42563630417E+02  0.42563630417E+02  0.00000000000E+00 0.  1.
         25    2    1    2    0    0 -0.96271670988E+02  0.32586742763E+02  0.20099102716E+03  0.25763506566E+03  0.12509317974E+03 0.  0.
          5    1    3    3  502    0 -0.80327388567E+02  0.70664756590E+02  0.18382369854E+03  0.21273133696E+03  0.41800000000E+01 0.  1.
         -5    1    3    3    0  502 -0.15944282421E+02 -0.38078013827E+02  0.17167328620E+02  0.44903728697E+02  0.41800000000E+01 0.  1.
        -11    1    1    2    0    0  0.55640335317E+02  0.74266910434E+01  0.60513949751E+02  0.82540540151E+02  0.00000000000E+00 0.  1.
         11    1    1    2    0    0  0.40631335671E+02 -0.40013433806E+02  0.24860424570E+03  0.25506087764E+03  0.00000000000E+00 0. -1.
</event>
<event>
 7    1  0.2384639E-009  0.1896528E+03  0.7561462E-02  0.1158775E+00
          1   -1    0    0  501    0  0.00000000000E+00  0.00000000000E+00  0.28001543325E+02  0.28001543325E+02  0.00000000000E+00 0. -1.
         -1   -1    0    0    0  501 -0.00000000000E+00 -0.00000000000E+00 -0.15590654611E+04  0.15590654611E+04  0.00000000000E+00 0.  1.
         25    2    1    2    0    0  0.13718958865E+03  0.10908029667E+03 -0.67120772431E+03  0.70490135328E+03  0.12508642746E+03 0.  0.
          5    1    3    3  502    0  0.31462655562E+02  0.20950337681E+01 -0.33561359367E+03  0.33711755297E+03  0.41800000000E+01 0. -1.
         -5    1    3    3    0  502  0.10572693309E+03  0.10698526290E+03 -0.33559413064E+03  0.36778380032E+03  0.41800000000E+01 0. -1.
        -11    1    1    2    0    0 -0.93203058651E+01 -0.58948997654E+02 -0.27431469963E+03  0.28073191279E+03  0.00000000000E+00 0. -1.
         11    1    1    2    0    0 -0.12786928278E+03 -0.50131299012E+02 -0.58554149380E+03  0.60143373831E+03  0.00000000000E+00 0.  1.
</event>
<event>
 7    1  0.2384639E-009  0.1082252E+03  0.7561462E-02  0.1263892E+00
         -1   -1    0    0    0  501 -0.00000000000E+00  0.00000000000E+00  0.49588043050E+02  0.49588043050E+02  0.00000000000E+00 0.  1.
          1   -1    0    0  501    0  0.00000000000E+00 -0.00000000000E+00 -0.27072899572E+03  0.27072899572E+03  0.00000000000E+00 0. -1.
         25    2    1    2    0    0 -0.29593766820E+02  0.22451205095E+02 -0.97719574580E+02  0.16302176820E+03  0.12508850469E+03 0.  0.
          5    1    3    3  502    0 -0.74237217220E+02  0.32258376364E+02 -0.79820335619E+02  0.11375643122E+03  0.41800000000E+01 0. -1.
         -5    1    3    3    0  502  0.44643450400E+02 -0.98071712694E+01 -0.17899238961E+02  0.49265336975E+02  0.41800000000E+01 0. -1.
        -11    1    1    2    0    0  0.12049248538E+02  0.30991762321E+02 -0.18011780855E+02  0.37816636176E+02  0.00000000000E+00 0.  1.
         11    1    1    2    0    0  0.17544518282E+02 -0.53442967416E+02 -0.10540959723E+03  0.11947863440E+03  0.00000000000E+00 0. -1.
</event>
<event>
 7    1  0.2384639E-009  0.9401119E+02  0.7561462E-02  0.1293419E+00
          4   -1    0    0  501    0  0.00000000000E+00  0.00000000000E+00  0.18841213920E+03  0.18841213920E+03  0.00000000000E+00 0. -1.
         -4   -1    0    0    0  501 -0.00000000000E+00 -0.00000000000E+00 -0.70338905292E+02  0.70338905292E+02  0.00000000000E+00 0.  1.
         25    2    1    2    0    0  0.31550131030E+02  0.10491868210E+02  0.48881769591E+02  0.13837199522E+03  0.12510752014E+03 0.  0.
          5    1    3    3  502    0 -0.30846958112E+02  0.26689882185E+02 -0.18536249589E+02  0.44999439826E+02  0.41800000000E+01 0.  1.
         -5    1    3    3    0  502  0.62397089142E+02 -0.16198013975E+02  0.67418019180E+02  0.93372555391E+02  0.41800000000E+01 0.  1.
        -11    1    1    2    0    0 -0.56001135554E+02 -0.13977620841E+02  0.13239083907E+02  0.59218024371E+02  0.00000000000E+00 0.  1.
         11    1    1    2    0    0  0.24451004524E+02  0.34857526314E+01  0.55952380410E+02  0.61161024903E+02  0.00000000000E+00 0. -1.
</event>
<event>
 7    1  0.2384639E-009  0.8594016E+02  0.7561462E-02  0.1312992E+00
          1   -1    0    0  501    0  0.00000000000E+00  0.00000000000E+00  0.31643225638E+03  0.31643225638E+03  0.00000000000E+00 0. -1.
         -1   -1    0    0    0  501 -0.00000000000E+00 -0.00000000000E+00 -0.59203039566E+02  0.59203039566E+02  0.00000000000E+00 0.  1.
         25    2    1    2    0    0 -0.79514301205E+02  0.15920794403E+02  0.12439149956E+03  0.19415574980E+03  0.12508882535E+03 0.  0.
          5    1    3    3  502    0 -0.15253404137E+02  0.19382866799E+02 -0.22553474175E+02  0.33682242509E+02  0.41800000000E+01 0.  1.
         -5    1    3    3    0  502 -0.64260897068E+02 -0.34620723954E+01  0.14694497374E+03  0.16047350729E+03  0.41800000000E+01 0.  1.
        -11    1    1    2    0    0  0.21079957053E+02  0.21998779828E+01 -0.11925649152E+02  0.24319234367E+02  0.00000000000E+00 0.  1.
         11    1    1    2    0    0  0.58434344152E+02 -0.18120672386E+02  0.14476336640E+03  0.15716031177E+03  0.00000000000E+00 0. -1.
</event>
<event>
 7    1  0.2384639E-009  0.2066767E+03  0.7561462E-02  0.1144225E+00
          2   -1    0    0  501    0  0.00000000000E+00  0.00000000000E+00  0.13000786174E+04  0.13000786174E+04  0.00000000000E+00 0.  1.
         -2   -1    0    0    0  501 -0.00000000000E+00 -0.00000000000E+00 -0.38167074813E+02  0.38167074813E+02  0.00000000000E+00 0. -1.
         25    2    1    2    0    0 -0.18126252299E+03  0.69651030725E+02  0.63216888834E+03  0.67304620282E+03  0.12508524861E+03 0.  0.
          5    1    3    3  502    0 -0.17374417189E+03  0.83732041061E+02  0.62661082534E+03  0.65563457108E+03  0.41800000000E+01 0. -1.
         -5    1    3    3    0  502 -0.75183510988E+01 -0.14081010336E+02  0.55580629990E+01  0.17411631733E+02  0.41800000000E+01 0. -1.
        -11    1    1    2    0    0  0.59026633653E+01  0.97843114223E+01  0.70490134940E+01  0.13426197379E+02  0.00000000000E+00 0. -1.
         11    1    1    2    0    0  0.17535985963E+03 -0.79435342148E+02  0.62269364078E+03  0.65177329204E+03  0.00000000000E+00 0.  1.
</event>
<event>
 7    1  0.2384639E-009  0.9145173E+02  0.7561462E-02  0.1299374E+00
         -1   -1    0    0    0  501 -0.00000000000E+00  0.00000000000E+00  0.50511307092E+02  0.50511307092E+02  0.00000000000E+00 0.  1.
          1   -1    0    0  501    0  0.00000000000E+00 -0.00000000000E+00 -0.26453769019E+03  0.26453769019E+03  0.00000000000E+00 0. -1.
         25    2    1    2    0    0  0.35494959074E+02  0.19952856370E+02 -0.11310530556E+03  0.17348660007E+03  0.12508709629E+03 0.  0.
          5    1    3    3  502    0  0.43821175707E+02  0.51849643892E+02 -0.14651124496E+02  0.69575921561E+02  0.41800000000E+01 0.  1.
         -5    1    3    3    0  502 -0.83262166333E+01 -0.31896787522E+02 -0.98454181068E+02  0.10391067851E+03  0.41800000000E+01 0.  1.
        -11    1    1    2    0    0 -0.13576556878E+02 -0.45799291438E+02 -0.16409129221E+02  0.50508984495E+02  0.00000000000E+00 0.  1.
         11    1    1    2    0    0 -0.21918402196E+02  0.25846435068E+02 -0.84511948309E+02  0.91053412718E+02  0.00000000000E+00 0. -1.
</event>
<event>
 7    1  0.2384639E-009  0.5064810E+02  0.7561462E-02  0.1441877E+00
          1   -1    0    0  501    0  0.00000000000E+00  0.00000000000E+00  0.42396077082E+03  0.42396077082E+03  0.00000000000E+00 0. -1.
         -1   -1    0    0    0  501 -0.00000000000E+00 -0.00000000000E+00 -0.28728016652E+02  0.28728016652E+02  0.00000000000E+00 0.  1.
         25    2    1    2    0    0 -0.19944677177E+01  0.19179249566E+02  0.21682671853E+03  0.25106516394E+03  0.12509224262E+03 0.  0.
          5    1    3    3  502    0 -0.57982105048E+01  0.25182926501E+02  0.23217299279E+03  0.23364410974E+03  0.41800000000E+01 0. -1.
         -5    1    3    3    0  502  0.38037427871E+01 -0.60036769355E+01 -0.15346274265E+02  0.17421054209E+02  0.41800000000E+01 0. -1.
        -11    1    1    2    0    0 -0.42521654539E+01 -0.42509256754E+02  0.32359148519E+02  0.53593211451E+02  0.00000000000E+00 0.  1.
         11    1    1    2    0    0  0.62466331716E+01  0.23330007188E+02  0.14604688712E+03  0.14803041207E+03  0.00000000000E+00 0. -1.
</event>
<event>
 7    1  0.2384639E-009  0.2096972E+03  0.7561462E-02  0.1141806E+00
         -2   -1    0    0    0  501 -0.00000000000E+00  0.00000000000E+00  0.16115854221E+03  0.16115854221E+03  0.00000000000E+00 0. -1.
          2   -1    0    0  501    0  0.00000000000E+00 -0.00000000000E+00 -0.27952774098E+03  0.27952774098E+03  0.00000000000E+00 0.  1.
         25    2    1    2    0    0 -0.17868991518E+03  0.26972767684E+02 -0.46147060287E+02  0.22458240184E+03  0.12510031199E+03 0.  0.
          5    1    3    3  502    0 -0.75127429760E+02  0.70703982525E+02 -0.69607263087E+00  0.10325280027E+03  0.41800000000E+01 0.  1.
         -5    1    3    3    0  502 -0.10356248542E+03 -0.43731214841E+02 -0.45450987656E+02  0.12132960157E+03  0.41800000000E+01 0.  1.
        -11    1    1    2    0    0  0.11627223801E+03  0.28973915080E+02 -0.40693334791E+02  0.12654907579E+03  0.00000000000E+00 0.  1.
         11    1    1    2    0    0  0.62417677168E+02 -0.55946682764E+02 -0.31528803697E+02  0.89554805555E+02  0.00000000000E+00 0. -1.
</event>
<event>
 7    1  0.2384639E-009  0.1204882E+03  0.7561462E-02  0.1242294E+00
         -1   -1    0    0    0  501 -0.00000000000E+00  0.00000000000E+00  0.14552017653E+02  0.14552017653E+02  0.00000000000E+00 0.  1.
          1   -1    0    0  501    0  0.00000000000E+00 -0.00000000000E+00 -0.13578113810E+04  0.13578113810E+04  0.00000000000E+00 0. -1.
         25    2    1    2    0    0 -0.32683473406E+02 -0.84096897680E+02 -0.84322235746E+03  0.85721148415E+03  0.12508831597E+03 0.  0.
          5    1    3    3  502    0 -0.86172940346E+01 -0.94920258951E+02 -0.80467410442E+03  0.81030981731E+03  0.41800000000E+01 0.  1.
         -5    1    3    3    0  502 -0.24066179371E+02  0.10823361272E+02 -0.38548253047E+02  0.46901666833E+02  0.41800000000E+01 0.  1.
        -11    1    1    2    0    0  0.22780087866E+02  0.98654449483E+02 -0.46551994354E+03  0.47640366355E+03  0.00000000000E+00 0.  1.
         11    1    1    2    0    0  0.99033855395E+01 -0.14557551804E+02 -0.34517062332E+02  0.38748250950E+02  0.00000000000E+00 0. -1.
</event>
<event>
 7    1  0.2384639E-009  0.9814357E+02  0.7561462E-02  0.1284249E+00
         -2   -1    0    0    0  501 -0.00000000000E+00  0.00000000000E+00  0.42411735322E+02  0.42411735322E+02  0.00000000000E+00 0.  1.
          2   -1    0    0  501    0  0.00000000000E+00 -0.00000000000E+00 -0.42786277140E+03  0.42786277140E+03  0.00000000000E+00 0. -1.
         25    2    1    2    0    0 -0.55128550370E+02 -0.37414061826E+02 -0.27941568661E+03  0.31330063784E+03  0.12508075256E+03 0.  0.
          5    1    3    3  502    0 -0.87371649560E+02 -0.37016037472E+02 -0.25650159677E+03  0.27352245561E+03  0.41800000000E+01 0.  1.
         -5    1    3    3    0  502  0.32243099190E+02 -0.39802435445E+00 -0.22914089842E+02  0.39778182237E+02  0.41800000000E+01 0.  1.
        -11    1    1    2    0    0  0.30563703773E+02  0.30709968109E+02  0.44845258171E+01  0.43558616844E+02  0.00000000000E+00 0.  1.
         11    1    1    2    0    0  0.24564846597E+02  0.67040937168E+01 -0.11051987528E+03  0.11341525203E+03  0.00000000000E+00 0. -1.
</event>
<event>
 7    1  0.2384639E-009  0.3659051E+03  0.7561462E-02  0.1056270E+00
         -2   -1    0    0    0  501 -0.00000000000E+00  0.00000000000E+00  0.68005032312E+02  0.68005032312E+02  0.00000000000E+00 0.  1.
          2   -1    0    0  501    0  0.00000000000E+00 -0.00000000000E+00 -0.23955184812E+04  0.23955184812E+04  0.00000000000E+00 0. -1.
         25    2    1    2    0    0 -0.32907150570E+03  0.13614624369E+03 -0.72364167548E+03  0.81616767907E+03  0.12509416589E+03 0.  0.
          5    1    3    3  502    0 -0.23601619027E+03  0.13141569888E+03 -0.42776809647E+03  0.50594144398E+03  0.41800000000E+01 0. -1.
         -5    1    3    3    0  502 -0.93055315436E+02  0.47305448093E+01 -0.29587357901E+03  0.31022623509E+03  0.41800000000E+01 0. -1.
        -11    1    1    2    0    0  0.18956861557E+03 -0.12779094236E+03 -0.11480251204E+04  0.11705675812E+04  0.00000000000E+00 0. -1.
         11    1    1    2    0    0  0.13950289014E+03 -0.83553013271E+01 -0.45584665301E+03  0.47678825329E+03  0.00000000000E+00 0.  1.
</event>
<event>
 7    1  0.2384639E-009  0.2528248E+03  0.7561462E-02  0.1111532E+00
          1   -1    0    0  501    0  0.00000000000E+00  0.00000000000E+00  0.43721444324E+03  0.43721444324E+03  0.00000000000E+00 0. -1.
         -1   -1    0    0    0  501 -0.00000000000E+00 -0.00000000000E+00 -0.15594563279E+03  0.15594563279E+03  0.00000000000E+00 0.  1.
         25    2    1    2    0    0 -0.14763845506E+02 -0.23701638759E+03  0.12987856822E+03  0.29817777242E+03  0.12508717907E+03 0.  0.
          5    1    3    3  502    0  0.20046436676E+02 -0.62050198219E+01  0.44892711245E+02  0.49731175507E+02  0.41800000000E+01 0. -1.
         -5    1    3    3    0  502 -0.34810282182E+02 -0.23081136776E+03  0.84985856970E+02  0.24844659692E+03  0.41800000000E+01 0. -1.
        -11    1    1    2    0    0  0.40013941738E+02  0.60853827338E+02  0.62901275049E+02  0.96233436174E+02  0.00000000000E+00 0.  1.
         11    1    1    2    0    0 -0.25250096232E+02  0.17616256025E+03  0.88488967191E+02  0.19874886744E+03  0.00000000000E+00 0. -1.
</event>
<event>
 7    1  0.2384639E-009  0.1123417E+03  0.7561462E-02  0.1256294E+00
         -2   -1    0    0    0  501 -0.00000000000E+00  0.00000000000E+00  0.12744567218E+02  0.12744567218E+02  0.00000000000E+00 0.  1.
          2   -1    0    0  501    0  0.00000000000E+00 -0.00000000000E+00 -0.11245952189E+04  0.11245952189E+04  0.00000000000E+00 0. -1.
         25    2    1    2    0    0  0.59628547271E+02  0.61836370168E+01 -0.77031155978E+03  0.78270170741E+03  0.12509301590E+03 0.  0.
          5    1    3    3  502    0  0.57667254834E+02 -0.48041087212E+02 -0.30098147947E+03  0.31022698419E+03  0.41800000000E+01 0. -1.
         -5    1    3    3    0  502  0.19612924375E+01  0.54224724229E+02 -0.46933008032E+03  0.47247472321E+03  0.41800000000E+01 0. -1.
        -11    1    1    2    0    0 -0.37876616194E+01 -0.32948821943E+02 -0.10400822978E+03  0.10916814146E+03  0.00000000000E+00 0.  1.
         11    1    1    2    0    0 -0.55840885652E+02  0.26765184927E+02 -0.23753086212E+03  0.24546993725E+03  0.00000000000E+00 0. -1.
</event>
<event>
 7    1  0.2384639E-009  0.1253952E+03  0.7561462E-02  0.1234453E+00
          2   -1    0    0  501    0  0.00000000000E+00  0.00000000000E+00  0.57412280238E+03  0.57412280238E+03  0.00000000000E+00 0. -1.
         -2   -1    0    0    0  501 -0.00000000000E+00 -0.00000000000E+00 -0.48046789214E+02  0.48046789214E+02  0.00000000000E+00 0.  1.
         25    2    1    2    0    0 -0.10853326993E+03  0.48137408494E+02  0.36526899088E+03  0.40393740068E+03  0.12508919695E+03 0.  0.
          5    1    3    3  502    0 -0.10027115236E+03  0.23000703883E+02  0.36269539968E+03  0.37702620827E+03  0.41800000000E+01 0. -1.
         -5    1    3    3    0  502 -0.82621175680E+01  0.25136704610E+02  0.25735912012E+01  0.26911192412E+02  0.41800000000E+01 0. -1.
        -11    1    1    2    0    0  0.79342846943E+02 -0.46140800493E+02  0.16486632832E+03  0.18869331479E+03  0.00000000000E+00 0. -1.
         11    1    1    2    0    0  0.29190422983E+02 -0.19966080008E+01 -0.40593060320E+01  0.29538876128E+02  0.00000000000E+00 0.  1.
</event>
<event>
 7    1  0.2384639E-009  0.1366303E+03  0.7561462E-02  0.1217936E+00
         -2   -1    0    0    0  501 -0.00000000000E+00  0.00000000000E+00  0.72656254818E+02  0.72656254818E+02  0.00000000000E+00 0.  1.
          2   -1    0    0  501    0  0.00000000000E+00 -0.00000000000E+00 -0.27903519739E+03  0.27903519739E+03  0.00000000000E+00 0. -1.
         25    2    1    2    0    0  0.82586049358E+02  0.39103182392E+02 -0.97429924831E+02  0.18299919121E+03  0.12508636740E+03 0.  0.
          5    1    3    3  502    0  0.18441303041E+01  0.68504154157E+02 -0.38409182882E+02  0.78669928709E+02  0.41800000000E+01 0.  1.
         -5    1    3    3    0  502  0.80741919054E+02 -0.29400971765E+02 -0.59020741949E+02  0.10432926250E+03  0.41800000000E+01 0.  1.
        -11    1    1    2    0    0 -0.21816243563E+02  0.22988833140E+02 -0.32354834498E+01  0.31857546758E+02  0.00000000000E+00 0.  1.
         11    1    1    2    0    0 -0.60769805796E+02 -0.62092015532E+02 -0.10571353429E+03  0.13683471424E+03  0.00000000000E+00 0. -1.
</event>
<event>
 7    1  0.2384639E-009  0.1648551E+03  0.7561462E-02  0.1183322E+00
          1   -1    0    0  501    0  0.00000000000E+00  0.00000000000E+00  0.10930387938E+03  0.10930387938E+03  0.00000000000E+00 0. -1.
         -1   -1    0    0    0  501 -0.00000000000E+00 -0.00000000000E+00 -0.30888923357E+03  0.30888923357E+03  0.00000000000E+00 0.  1.
         25    2    1    2    0    0 -0.82537160856E+02  0.97182898014E+02 -0.19061531005E+03  0.26122802232E+03  0.12509590173E+03 0.  0.
          5    1    3    3  502    0 -0.10915829741E+03  0.97413461195E+02 -0.13362213823E+03  0.19818492511E+03  0.41800000000E+01 0.  1.
         -5    1    3    3    0  502  0.26621136557E+02 -0.23056318155E+00 -0.56993171822E+02  0.63043097205E+02  0.41800000000E+01 0.  1.
        -11    1    1    2    0    0 -0.19428079649E+02 -0.24053693037E+02  0.21542335789E+01  0.30994695511E+02  0.00000000000E+00 0.  1.
         11    1    1    2    0    0  0.10196524050E+03 -0.73129204977E+02 -0.11124277722E+02  0.12597039512E+03  0.00000000000E+00 0. -1.
</event>
<event>
 7    1  0.2384639E-009  0.1125693E+03  0.7561462E-02  0.1255885E+00
         -1   -1    0    0    0  501 -0.00000000000E+00  0.00000000000E+00  0.38738985101E+02  0.38738985101E+02  0.00000000000E+00 0.  1.
          1   -1    0    0  501    0  0.00000000000E+00 -0.00000000000E+00 -0.52466005668E+03  0.52466005668E+03  0.00000000000E+00 0. -1.
         25    2    1    2    0    0 -0.25215380500E+02 -0.69128490155E+02 -0.15458680976E+03  0.21203545679E+03  0.12508952643E+03 0.  0.
          5    1    3    3  502    0 -0.50146832652E+02 -0.22297478756E+02 -0.14861926585E+03  0.15848356686E+03  0.41800000000E+01 0.  1.
         -5    1    3    3    0  502  0.24931452152E+02 -0.46831011399E+02 -0.59675439108E+01  0.53551889933E+02  0.41800000000E+01 0.  1.
        -11    1    1    2    0    0 -0.32211912283E+02  0.83785759934E+01 -0.99288224702E+02  0.10471847685E+03  0.00000000000E+00 0.  1.
         11    1    1    2    0    0  0.57427292783E+02  0.60749914161E+02 -0.23204603712E+03  0.24664510814E+03  0.00000000000E+00 0. -1.
</event>
<event>
 7    1  0.2468607E-009  0.1668215E+03  0.7561462E-02  0.1181204E+00
         -2   -1    0    0    0  501 -0.00000000000E+00  0.00000000000E+00  0.41696629144E+02  0.41696629144E+02  0.00000000000E+00 0.  1.
          2   -1    0    0  501    0  0.00000000000E+00 -0.00000000000E+00 -0.92948567815E+03  0.92948567815E+03  0.00000000000E+00 0. -1.
         25    2    1    2    0    0  0.10467176476E+03 -0.11361623838E+03 -0.59660881741E+03  0.62885195549E+03  0.12509145836E+03 0.  0.
          5    1    3    3  502    0  0.33563251598E+02 -0.12783331603E+02 -0.24745693700E+02  0.43814691388E+02  0.41800000000E+01 0.  1.
         -5    1    3    3    0  502  0.71108513165E+02 -0.10083290678E+03 -0.57186312371E+03  0.58503726410E+03  0.41800000000E+01 0.  1.
        -11    1    1    2    0    0 -0.91654427815E+02  0.41261683615E+02 -0.20996131163E+03  0.23278061142E+03  0.00000000000E+00 0. -1.
         11    1    1    2    0    0 -0.13017336949E+02  0.72354554766E+02 -0.81218919970E+02  0.10954974038E+03  0.00000000000E+00 0.  1.
</event>
<event>
 7    1  0.2384639E-009  0.2045982E+03  0.7561462E-02  0.1145917E+00
          2   -1    0    0  501    0  0.00000000000E+00  0.00000000000E+00  0.44160455089E+03  0.44160455089E+03  0.00000000000E+00 0. -1.
         -2   -1    0    0    0  501 -0.00000000000E+00 -0.00000000000E+00 -0.10262365961E+03  0.10262365961E+03  0.00000000000E+00 0.  1.
         25    2    1    2    0    0 -0.11544007584E+03 -0.13760564602E+03  0.21172716348E+03  0.30452944854E+03  0.12509223934E+03 0.  0.
          5    1    3    3  502    0  0.24110540030E+02 -0.19837236639E+02  0.57114811697E+02  0.65225824741E+02  0.41800000000E+01 0. -1.
         -5    1    3    3    0  502 -0.13955061587E+03 -0.11776840938E+03  0.15461235178E+03  0.23930362379E+03  0.41800000000E+01 0. -1.
        -11    1    1    2    0    0  0.10021411622E+03  0.61826945942E+02  0.42988352145E+02  0.12535325586E+03  0.00000000000E+00 0.  1.
         11    1    1    2    0    0  0.15225959621E+02  0.75778700081E+02  0.84265375657E+02  0.11434550611E+03  0.00000000000E+00 0. -1.
</event>
<event>
 7    1  0.2384639E-009  0.1129132E+03  0.7561462E-02  0.1255268E+00
         -2   -1    0    0    0  501 -0.00000000000E+00  0.00000000000E+00  0.15953545401E+03  0.15953545401E+03  0.00000000000E+00 0.  1.
          2   -1    0    0  501    0  0.00000000000E+00 -0.00000000000E+00 -0.13044572290E+03  0.13044572290E+03  0.00000000000E+00 0. -1.
         25    2    1    2    0    0  0.90245486584E+02  0.24523778100E+02 -0.18005410965E+01  0.15619272717E+03  0.12508901843E+03 0.  0.
          5    1    3    3  502    0 -0.26598239551E+01  0.18488708798E+02 -0.48363166394E+02  0.52013222166E+02  0.41800000000E+01 0.  1.
         -5    1    3    3    0  502  0.92905310539E+02  0.60350693022E+01  0.46562625297E+02  0.10417950500E+03  0.41800000000E+01 0.  1.
        -11    1    1    2    0    0 -0.38282171175E+02 -0.43704654725E+02  0.48482522297E+02  0.75671503506E+02  0.00000000000E+00 0.  1.
         11    1    1    2    0    0 -0.51963315409E+02  0.19180876625E+02 -0.17592250085E+02  0.58116946234E+02  0.00000000000E+00 0. -1.
</event>
<event>
 7    1  0.2384639E-009  0.1171159E+03  0.7561462E-02  0.1247932E+00
         -2   -1    0    0    0  501 -0.00000000000E+00  0.00000000000E+00  0.54877202219E+02  0.54877202219E+02  0.00000000000E+00 0. -1.
          2   -1    0    0  501    0  0.00000000000E+00 -0.00000000000E+00 -0.32764685648E+03  0.32764685648E+03  0.00000000000E+00 0.  1.
         25    2    1    2    0    0  0.71590154078E+02  0.89446808842E+01 -0.19445814129E+03  0.24221032266E+03  0.12508682668E+03 0.  0.
          5    1    3    3  502    0  0.78097368040E+02  0.53049569603E+02 -0.99514693532E+02  0.13723739417E+03  0.41800000000E+01 0. -1.
         -5    1    3    3    0  502 -0.65072139616E+01 -0.44104888719E+02 -0.94943447759E+02  0.10497292849E+03  0.41800000000E+01 0. -1.
        -11    1    1    2    0    0 -0.36315334042E+02  0.26490605133E+02  0.27912118619E+01  0.45037168101E+02  0.00000000000E+00 0. -1.
         11    1    1    2    0    0 -0.35274820036E+02 -0.35435286017E+02 -0.81102724830E+02  0.95276567941E+02  0.00000000000E+00 0.  1.
</event>
<event>
 7    1  0.2384639E-009  0.1028903E+03  0.7561462E-02  0.1274333E+00
         -2   -1    0    0    0  501 -0.00000000000E+00  0.00000000000E+00  0.22793740141E+02  0.22793740141E+02  0.00000000000E+00 0.  1.
          2   -1    0    0  501    0  0.00000000000E+00 -0.00000000000E+00 -0.58717850702E+03  0.58717850702E+03  0.00000000000E+00 0. -1.
         25    2    1    2    0    0  0.24219420785E+02 -0.21242691851E+02 -0.26153514308E+03  0.29169489383E+03  0.12508975866E+03 0.  0.
          5    1    3    3  502    0 -0.50610187806E+02  0.13542314330E+01 -0.10835296277E+03  0.11967063965E+03  0.41800000000E+01 0. -1.
         -5    1    3    3    0  502  0.74829608591E+02 -0.22596923284E+02 -0.15318218031E+03  0.17202425419E+03  0.41800000000E+01 0. -1.
        -11    1    1    2    0    0 -0.45630329020E+02 -0.12499408848E+01 -0.26688701984E+03  0.27076257245E+03  0.00000000000E+00 0. -1.
         11    1    1    2    0    0  0.21410908235E+02  0.22492632736E+02 -0.35962603966E+02  0.47514780888E+02  0.00000000000E+00 0.  1.
</event>
<event>
 7    1  0.2384639E-009  0.2174298E+03  0.7561462E-02  0.1135814E+00
         -1   -1    0    0    0  501 -0.00000000000E+00  0.00000000000E+00  0.82767660778E+02  0.82767660778E+02  0.00000000000E+00 0.  1.
          1   -1    0    0  501    0  0.00000000000E+00 -0.00000000000E+00 -0.64066204286E+03  0.64066204286E+03  0.00000000000E+00 0. -1.
         25    2    1    2    0    0  0.14078699321E+02  0.20212514998E+03 -0.30657137350E+03  0.38818415499E+03  0.12509254618E+03 0.  0.
          5    1    3    3  502    0  0.42086419656E+02  0.19659276762E+03 -0.22553663904E+03  0.30216589971E+03  0.41800000000E+01 0. -1.
         -5    1    3    3    0  502 -0.28007720334E+02  0.55323823606E+01 -0.81034734460E+02  0.86018255283E+02  0.41800000000E+01 0. -1.
        -11    1    1    2    0    0 -0.16151803750E+02 -0.45588114687E+02 -0.12961880557E+02  0.50071621830E+02  0.00000000000E+00 0. -1.
         11    1    1    2    0    0  0.20731044283E+01 -0.15653703529E+03 -0.23836112803E+03  0.28517392681E+03  0.00000000000E+00 0.  1.
</event>
<event>
 7    1  0.2384639E-009  0.1152732E+03  0.7561462E-02  0.1251105E+00
          3   -1    0    0  501    0  0.00000000000E+00  0.00000000000E+00  0.33738657742E+03  0.33738657742E+03  0.00000000000E+00 0. -1.
         -3   -1    0    0    0  501 -0.00000000000E+00 -0.00000000000E+00 -0.80255765453E+02  0.80255765453E+02  0.00000000000E+00 0.  1.
         25    2    1    2    0    0 -0.10403620320E+03  0.18830022580E+02  0.21640546874E+03  0.27139758197E+03  0.12508884552E+03 0.  0.
          5    1    3    3  502    0 -0.15714802562E+02  0.25301855934E+02  0.16743540677E+03  0.17011533374E+03  0.41800000000E+01 0.  1.
         -5    1    3    3    0  502 -0.88321400638E+02 -0.64718333540E+01  0.48970061964E+02  0.10128224823E+03  0.41800000000E+01 0.  1.
        -11    1    1    2    0    0  0.44721395647E+02  0.10056160625E+02 -0.25760169570E+02  0.52580566100E+02  0.00000000000E+00 0.  1.
         11    1    1    2    0    0  0.59314807553E+02 -0.28886183205E+02  0.66485512798E+02  0.93664194799E+02  0.00000000000E+00 0. -1.
</event>
<event>
 7    1  0.2384639E-009  0.9815339E+02  0.7561462E-02  0.1284228E+00
          2   -1    0    0  501    0  0.00000000000E+00  0.00000000000E+00  0.26984061661E+03  0.26984061661E+03  0.00000000000E+00 0. -1.
         -2   -1    0    0    0  501 -0.00000000000E+00 -0.00000000000E+00 -0.48512087795E+02  0.48512087795E+02  0.00000000000E+00 0.  1.
         25    2    1    2    0    0  0.22776772410E+02 -0.21462752193E+02  0.99279525841E+02  0.16273802042E+03  0.12509119851E+03 0.  0.
          5    1    3    3  502    0 -0.49752784256E+02  0.75770229517E+01  0.34466048000E+02  0.61140262371E+02  0.41800000000E+01 0.  1.
         -5    1    3    3    0  502  0.72529556666E+02 -0.29039775145E+02  0.64813477841E+02  0.10159775805E+03  0.41800000000E+01 0.  1.
        -11    1    1    2    0    0 -0.17685442888E+02  0.42442355031E+02  0.12558587736E+03  0.13373833027E+03  0.00000000000E+00 0. -1.
         11    1    1    2    0    0 -0.50913295222E+01 -0.20979602838E+02 -0.35368743861E+01  0.21876353717E+02  0.00000000000E+00 0.  1.
</event>
<event>
 7    1  0.2384639E-009  0.7930918E+02  0.7561462E-02  0.1331023E+00
         -1   -1    0    0    0  501 -0.00000000000E+00  0.00000000000E+00  0.13647271847E+02  0.13647271847E+02  0.00000000000E+00 0.  1.
          1   -1    0    0  501    0  0.00000000000E+00 -0.00000000000E+00 -0.12617144751E+04  0.12617144751E+04  0.00000000000E+00 0. -1.
         25    2    1    2    0    0  0.27759456413E+02 -0.22031905825E+02 -0.99417569765E+03  0.10026416842E+04  0.12509611013E+03 0.  0.
          5    1    3    3  502    0  0.69863603861E+01 -0.35482754530E+02 -0.77521723764E+02  0.85644177594E+02  0.41800000000E+01 0.  1.
         -5    1    3    3    0  502  0.20773096027E+02  0.13450848705E+02 -0.91665397389E+03  0.91699750659E+03  0.41800000000E+01 0.  1.
        -11    1    1    2    0    0 -0.61144791430E+02  0.15802950958E+02 -0.19204407517E+03  0.20216168180E+03  0.00000000000E+00 0.  1.
         11    1    1    2    0    0  0.33385335017E+02  0.62289548672E+01 -0.61847430383E+02  0.70558380920E+02  0.00000000000E+00 0. -1.
</event>
<event>
 7    1  0.2384639E-009  0.1984058E+03  0.7561462E-02  0.1151091E+00
          2   -1    0    0  501    0  0.00000000000E+00  0.00000000000E+00  0.35699394597E+03  0.35699394597E+03  0.00000000000E+00 0. -1.
         -2   -1    0    0    0  501 -0.00000000000E+00 -0.00000000000E+00 -0.13162963529E+03  0.13162963529E+03  0.00000000000E+00 0.  1.
         25    2    1    2    0    0  0.13531274435E+03 -0.11727293037E+03  0.17984292463E+03  0.28293807567E+03  0.12509195875E+03 0.  0.
          5    1    3    3  502    0  0.71125634208E+02 -0.13271100857E+03  0.10842917889E+03  0.18559479215E+03  0.41800000000E+01 0.  1.
         -5    1    3    3    0  502  0.64187110141E+02  0.15438078198E+02  0.71413745740E+02  0.97343283525E+02  0.41800000000E+01 0.  1.
        -11    1    1    2    0    0 -0.76975619260E+02  0.78774578037E+02 -0.17563698697E+02  0.11153099846E+03  0.00000000000E+00 0. -1.
         11    1    1    2    0    0 -0.58337125089E+02  0.38498352332E+02  0.63085084747E+02  0.94154507133E+02  0.00000000000E+00 0.  1.
</event>
<event>
 7    1  0.2384639E-009  0.1754456E+03  0.7561462E-02  0.1172285E+00
         -2   -1    0    0    0  501 -0.00000000000E+00  0.00000000000E+00  0.31401279837E+02  0.31401279837E+02  0.00000000000E+00 0.  1.
          2   -1    0    0  501    0  0.00000000000E+00 -0.00000000000E+00 -0.10344369042E+04  0.10344369042E+04  0.00000000000E+00 0. -1.
         25    2    1    2    0    0 -0.91001342314E+01 -0.15403399542E+03 -0.64376261048E+03  0.67371160901E+03  0.12509096398E+03 0.  0.
          5    1    3    3  502    0  0.17834749469E+02 -0.16392584754E+03 -0.59005534675E+03  0.61267654306E+03  0.41800000000E+01 0. -1.
         -5    1    3    3    0  502 -0.26934883700E+02  0.98918521217E+01 -0.53707263726E+02  0.61035065948E+02  0.41800000000E+01 0. -1.
        -11    1    1    2    0    0 -0.38515906290E+00  0.14005177663E+03 -0.31462908211E+03  0.34439237476E+03  0.00000000000E+00 0.  1.
         11    1    1    2    0    0  0.94852932943E+01  0.13982218793E+02 -0.44643931822E+02  0.47734200316E+02  0.00000000000E+00 0. -1.
</event>
<event>
 7    1  0.2384639E-009  0.1105015E+03  0.7561462E-02  0.1259644E+00
         -1   -1    0    0    0  501 -0.00000000000E+00  0.00000000000E+00  0.19872929471E+02  0.19872929471E+02  0.00000000000E+00 0.  1.
          1   -1    0    0  501    0  0.00000000000E+00 -0.00000000000E+00 -0.10366235956E+04  0.10366235956E+04  0.00000000000E+00 0. -1.
         25    2    1    2    0    0  0.28426589219E+02  0.94878488938E+01 -0.88189613573E+03  0.89122729662E+03  0.12508880752E+03 0.  0.
          5    1    3    3  502    0 -0.46727064372E+02  0.17823141684E+02 -0.44445842924E+03  0.44728274128E+03  0.41800000000E+01 0.  1.
         -5    1    3    3    0  502  0.75153653591E+02 -0.83352927902E+01 -0.43743770649E+03  0.44394455534E+03  0.41800000000E+01 0.  1.
        -11    1    1    2    0    0  0.18381523852E+01 -0.46917455232E+02 -0.74639139663E+02  0.88179519047E+02  0.00000000000E+00 0.  1.
         11    1    1    2    0    0 -0.30264741605E+02  0.37429606338E+02 -0.60215390739E+02  0.77089709409E+02  0.00000000000E+00 0. -1.
</event>
<event>
 7    1  0.2384639E-009  0.1884273E+03  0.7561462E-02  0.1159888E+00
         -1   -1    0    0    0  501 -0.00000000000E+00  0.00000000000E+00  0.11113680225E+03  0.11113680225E+03  0.00000000000E+00 0.  1.
          1   -1    0    0  501    0  0.00000000000E+00 -0.00000000000E+00 -0.38215078453E+03  0.38215078453E+03  0.00000000000E+00 0. -1.
         25    2    1    2    0    0  0.10787057204E+03  0.13254344003E+03 -0.19035818567E+03  0.28475873774E+03  0.12508987193E+03 0.  0.
          5    1    3    3  502    0  0.55370901740E+02  0.16422922315E+02 -0.13277639291E+03  0.14485403706E+03  0.41800000000E+01 0.  1.
         -5    1    3    3    0  502  0.52499670301E+02  0.11612051771E+03 -0.57581792762E+02  0.13990470068E+03  0.41800000000E+01 0.  1.
        -11    1    1    2    0    0 -0.63187881496E+02 -0.13947749892E+02 -0.36681047913E+02  0.74382439937E+02  0.00000000000E+00 0.  1.
         11    1    1    2    0    0 -0.44682690544E+02 -0.11859569013E+03 -0.43974748688E+02  0.13414640910E+03  0.00000000000E+00 0. -1.
</event>
<event>
 7    1  0.2384639E-009  0.1583658E+03  0.7561462E-02  0.1190554E+00
          2   -1    0    0  501    0  0.00000000000E+00  0.00000000000E+00  0.16638566628E+03  0.16638566628E+03  0.00000000000E+00 0. -1.
         -2   -1    0    0    0  501 -0.00000000000E+00 -0.00000000000E+00 -0.16130906424E+03  0.16130906424E+03  0.00000000000E+00 0.  1.
         25    2    1    2    0    0  0.93076423406E+02  0.83306710094E+02  0.21319502564E+02  0.17806116101E+03  0.12509207540E+03 0.  0.
          5    1    3    3  502    0  0.45159274622E+02  0.11158243464E+03  0.21009982764E+02  0.12226565986E+03  0.41800000000E+01 0.  1.
         -5    1    3    3    0  502  0.47917148784E+02 -0.28275724544E+02  0.30951979941E+00  0.55795501150E+02  0.41800000000E+01 0.  1.
        -11    1    1    2    0    0 -0.32623476238E+02 -0.71921077921E+02  0.15391938710E+02  0.80460204005E+02  0.00000000000E+00 0. -1.
         11    1    1    2    0    0 -0.60452947168E+02 -0.11385632173E+02 -0.31634839234E+02  0.69173365500E+02  0.00000000000E+00 0.  1.
</event>
<event>
 7    1  0.2384639E-009  0.8855568E+02  0.7561462E-02  0.1306387E+00
          1   -1    0    0  501    0  0.00000000000E+00  0.00000000000E+00  0.29110768621E+02  0.29110768621E+02  0.00000000000E+00 0. -1.
         -1   -1    0    0    0  501 -0.00000000000E+00 -0.00000000000E+00 -0.47678185654E+03  0.47678185654E+03  0.00000000000E+00 0.  1.
         25    2    1    2    0    0  0.77778538538E+01  0.40049282839E+02 -0.21790214465E+03  0.25454160098E+03  0.12508254043E+03 0.  0.
          5    1    3    3  502    0 -0.12008169521E+01 -0.21656908726E+02  0.53325682522E+01  0.22723827606E+02  0.41800000000E+01 0. -1.
         -5    1    3    3    0  502  0.89786708059E+01  0.61706191565E+02 -0.22323471291E+03  0.23181777338E+03  0.41800000000E+01 0. -1.
        -11    1    1    2    0    0  0.37615921792E+02 -0.22670714291E+02 -0.16268166099E+03  0.16850590993E+03  0.00000000000E+00 0.  1.
         11    1    1    2    0    0 -0.45393775645E+02 -0.17378568548E+02 -0.67087282279E+02  0.82845114253E+02  0.00000000000E+00 0. -1.
</event>
<event>
 7    1  0.2384639E-009  0.3174729E+03  0.7561462E-02  0.1076818E+00
         -2   -1    0    0    0  501 -0.00000000000E+00  0.00000000000E+00  0.50636071529E+02  0.50636071529E+02  0.00000000000E+00 0. -1.
          2   -1    0    0  501    0  0.00000000000E+00 -0.00000000000E+00 -0.21672449747E+04  0.21672449747E+04  0.00000000000E+00 0.  1.
         25    2    1    2    0    0 -0.38698521476E+02  0.30991603084E+03 -0.10618476324E+04  0.11138732234E+04  0.12509053356E+03 0.  0.
          5    1    3    3  502    0 -0.32827393661E+02  0.20205411205E+03 -0.86898808451E+03  0.89278287696E+03  0.41800000000E+01 0.  1.
         -5    1    3    3    0  502 -0.58711278156E+01  0.10786191880E+03 -0.19285954791E+03  0.22109034644E+03  0.41800000000E+01 0.  1.
        -11    1    1    2    0    0 -0.23799700448E+02 -0.11385402105E+03 -0.30197097556E+03  0.32359795106E+03  0.00000000000E+00 0. -1.
         11    1    1    2    0    0  0.62498221924E+02 -0.19606200980E+03 -0.75279029523E+03  0.78040987181E+03  0.00000000000E+00 0.  1.
</event>
<event>
 7    1  0.2384639E-009  0.1170036E+03  0.7561462E-02  0.1248124E+00
         -2   -1    0    0    0  501 -0.00000000000E+00  0.00000000000E+00  0.72392847269E+02  0.72392847269E+02  0.00000000000E+00 0.  1.
          2   -1    0    0  501    0  0.00000000000E+00 -0.00000000000E+00 -0.28600216627E+03  0.28600216627E+03  0.00000000000E+00 0. -1.
         25    2    1    2    0    0  0.88814725970E+02  0.95796042826E+01 -0.17599133029E+03  0.23366746556E+03  0.12509081404E+03 0.  0.
          5    1    3    3  502    0  0.10204513007E+03  0.36441621154E+02 -0.17177836485E+03  0.20314152543E+03  0.41800000000E+01 0. -1.
         -5    1    3    3    0  502 -0.13230404101E+02 -0.26862016871E+02 -0.42129654411E+01  0.30525940131E+02  0.41800000000E+01 0. -1.
        -11    1    1    2    0    0 -0.68785691749E+02 -0.21451347279E+02  0.90056543195E+01  0.72613590320E+02  0.00000000000E+00 0.  1.
         11    1    1    2    0    0 -0.20029034221E+02  0.11871742996E+02 -0.46623643027E+02  0.52113957657E+02  0.00000000000E+00 0. -1.
</event>
<event>
 7    1  0.2384639E-009  0.1747902E+03  0.7561462E-02  0.1172942E+00
          2   -1    0    0  501    0  0.00000000000E+00  0.00000000000E+00  0.44974291079E+03  0.44974291079E+03  0.00000000000E+00 0. -1.
         -2   -1    0    0    0  501 -0.00000000000E+00 -0.00000000000E+00 -0.10361416661E+03  0.10361416661E+03  0.00000000000E+00 0.  1.
         25    2    1    2    0    0 -0.80102822578E+02  0.12711704273E+03  0.40574661469E+02  0.19967231664E+03  0.12509007212E+03 0.  0.
          5    1    3    3  502    0  0.25506550797E+01  0.81700015136E+02  0.62230751491E+02  0.10281798065E+03  0.41800000000E+01 0. -1.
         -5    1    3    3    0  502 -0.82653477658E+02  0.45417027597E+02 -0.21656090022E+02  0.96854335988E+02  0.41800000000E+01 0. -1.
        -11    1    1    2    0    0  0.74616661074E+02 -0.14038010687E+03  0.29727506961E+03  0.33711524369E+03  0.00000000000E+00 0. -1.
         11    1    1    2    0    0  0.54861615043E+01  0.13263064132E+02  0.82790130884E+01  0.16569517070E+02  0.00000000000E+00 0.  1.
</event>
<event>
 7    1  0.2384639E-009  0.1040310E+03  0.7561462E-02  0.1272041E+00
         -4   -1    0    0    0  501 -0.00000000000E+00  0.00000000000E+00  0.92150634994E+02  0.92150634994E+02  0.00000000000E+00 0. -1.
          4   -1    0    0  501    0  0.00000000000E+00 -0.00000000000E+00 -0.16812964568E+03  0.16812964568E+03  0.00000000000E+00 0.  1.
         25    2    1    2    0    0 -0.16658346349E+02  0.33672596919E+02 -0.91970304481E+02  0.15974499997E+03  0.12509429972E+03 0.  0.
          5    1    3    3  502    0 -0.63540206953E+02  0.19375387520E+02 -0.14729616981E+02  0.68170356884E+02  0.41800000000E+01 0. -1.
         -5    1    3    3    0  502  0.46881860604E+02  0.14297209399E+02 -0.77240687500E+02  0.91574643083E+02  0.41800000000E+01 0. -1.
        -11    1    1    2    0    0 -0.95320636330E+01 -0.56664160338E+02 -0.82969628987E+01  0.58056239090E+02  0.00000000000E+00 0.  1.
         11    1    1    2    0    0  0.26190409982E+02  0.22991563419E+02  0.24288256694E+02  0.42479041617E+02  0.00000000000E+00 0. -1.
</event>
<event>
 7    1  0.2384639E-009  0.6240378E+02  0.7561462E-02  0.1388012E+00
          2   -1    0    0  501    0  0.00000000000E+00  0.00000000000E+00  0.26559288227E+03  0.26559288227E+03  0.00000000000E+00 0. -1.
         -2   -1    0    0    0  501 -0.00000000000E+00 -0.00000000000E+00 -0.38408086931E+02  0.38408086931E+02  0.00000000000E+00 0.  1.
         25    2    1    2    0    0  0.24642509126E+02  0.38531379088E+02  0.20175109280E+03  0.24174813614E+03  0.12508691958E+03 0.  0.
          5    1    3    3  502    0  0.11534019153E+02 -0.15429935977E+02 -0.10485095671E+02  0.22327699239E+02  0.41800000000E+01 0. -1.
         -5    1    3    3    0  502  0.13108489973E+02  0.53961315065E+02  0.21223618847E+03  0.21942043690E+03  0.41800000000E+01 0. -1.
        -11    1    1    2    0    0 -0.25169685587E+02 -0.23716959940E+02  0.21491916526E+01  0.34650054633E+02  0.00000000000E+00 0.  1.
         11    1    1    2    0    0  0.52717646035E+00 -0.14814419148E+02  0.23284510881E+02  0.27602778423E+02  0.00000000000E+00 0. -1.
</event>
<event>
 7    1  0.2384639E-009  0.1456179E+03  0.7561462E-02  0.1205964E+00
         -1   -1    0    0    0  501 -0.00000000000E+00  0.00000000000E+00  0.32959087041E+02  0.32959087041E+02  0.00000000000E+00 0.  1.
          1   -1    0    0  501    0  0.00000000000E+00 -0.00000000000E+00 -0.70806398086E+03  0.70806398086E+03  0.00000000000E+00 0. -1.
         25    2    1    2    0    0  0.98573759903E+02  0.11717088730E+01 -0.26366144226E+03  0.30803137530E+03  0.12509121869E+03 0.  0.
          5    1    3    3  502    0  0.71608596280E+02  0.59880213679E+02 -0.17309787760E+03  0.19670734272E+03  0.41800000000E+01 0. -1.
         -5    1    3    3    0  502  0.26965163623E+02 -0.58708504806E+02 -0.90563564663E+02  0.11132403258E+03  0.41800000000E+01 0. -1.
        -11    1    1    2    0    0  0.17064452136E+02 -0.33849499625E+01 -0.33512624788E+02  0.37759097356E+02  0.00000000000E+00 0. -1.
         11    1    1    2    0    0 -0.11563821204E+03  0.22132410895E+01 -0.37793082676E+03  0.39523259524E+03  0.00000000000E+00 0.  1.
</event>
<event>
 7    1  0.2384639E-009  0.8749626E+02  0.7561462E-02  0.1309031E+00
          2   -1    0    0  501    0  0.00000000000E+00  0.00000000000E+00  0.23003119649E+03  0.23003119649E+03  0.00000000000E+00 0. -1.
         -2   -1    0    0    0  501 -0.00000000000E+00 -0.00000000000E+00 -0.63484335184E+02  0.63484335184E+02  0.00000000000E+00 0.  1.
         25    2    1    2    0    0 -0.14667478244E+02 -0.52311657870E+02  0.10501783752E+03  0.17212998561E+03  0.12509333028E+03 0.  0.
          5    1    3    3  502    0  0.20068954026E+02 -0.31527838102E+02 -0.18622513873E+02  0.41964722257E+02  0.41800000000E+01 0. -1.
         -5    1    3    3    0  502 -0.34736432270E+02 -0.20783819768E+02  0.12364035140E+03  0.13016526336E+03  0.41800000000E+01 0. -1.
        -11    1    1    2    0    0  0.43127162770E+02  0.52866634279E+02  0.20110250245E+02  0.71128442647E+02  0.00000000000E+00 0.  1.
         11    1    1    2    0    0 -0.28459684525E+02 -0.55497640896E+00  0.41418773535E+02  0.50257103410E+02  0.00000000000E+00 0. -1.
</event>
<event>
 7    1  0.2384639E-009  0.8153453E+02  0.7561462E-02  0.1324752E+00
          3   -1    0    0  501    0  0.00000000000E+00  0.00000000000E+00  0.57445209199E+02  0.57445209199E+02  0.00000000000E+00 0. -1.
         -3   -1    0    0    0  501 -0.00000000000E+00 -0.00000000000E+00 -0.24277320718E+03  0.24277320718E+03  0.00000000000E+00 0.  1.
         25    2    1    2    0    0 -0.14546079941E+02 -0.39261245948E+02 -0.79736188018E+02  0.15413695386E+03  0.12508919614E+03 0.  0.
          5    1    3    3  502    0  0.13780262163E+02 -0.30704507672E+02  0.26966670093E+02  0.43328236896E+02  0.41800000000E+01 0. -1.
         -5    1    3    3    0  502 -0.28326342104E+02 -0.85567382763E+01 -0.10670285811E+03  0.11080871697E+03  0.41800000000E+01 0. -1.
        -11    1    1    2    0    0  0.35309855090E+02 -0.17081222674E+02 -0.29119957493E+02  0.48852082442E+02  0.00000000000E+00 0. -1.
         11    1    1    2    0    0 -0.20763775150E+02  0.56342468622E+02 -0.76471852468E+02  0.97229380070E+02  0.00000000000E+00 0.  1.
</event>
<event>
 7    1  0.2384639E-009  0.9190205E+02  0.7561462E-02  0.1298310E+00
         -2   -1    0    0    0  501 -0.00000000000E+00  0.00000000000E+00  0.21086211473E+03  0.21086211473E+03  0.00000000000E+00 0.  1.
          2   -1    0    0  501    0  0.00000000000E+00 -0.00000000000E+00 -0.78700169342E+02  0.78700169342E+02  0.00000000000E+00 0. -1.
         25    2    1    2    0    0 -0.24242962222E+02 -0.15620365696E+02  0.22648528174E+01  0.12839528856E+03  0.12509397877E+03 0.  0.
          5    1    3    3  502    0  0.20239376149E+02  0.45829478455E+02 -0.10491065641E+02  0.51356677274E+02  0.41800000000E+01 0.  1.
         -5    1    3    3    0  502 -0.44482338370E+02 -0.61449844151E+02  0.12755918458E+02  0.77038611286E+02  0.41800000000E+01 0.  1.
        -11    1    1    2    0    0 -0.12213104522E+02  0.17164885053E+02 -0.48073740713E+01  0.21607962570E+02  0.00000000000E+00 0. -1.
         11    1    1    2    0    0  0.36456066744E+02 -0.15445193574E+01  0.13470446664E+03  0.13955903294E+03  0.00000000000E+00 0.  1.
</event>
<event>
 7    1  0.2384639E-009  0.3390303E+03  0.7561462E-02  0.1067210E+00
          4   -1    0    0  501    0  0.00000000000E+00  0.00000000000E+00  0.10574220585E+04  0.10574220585E+04  0.00000000000E+00 0. -1.
         -4   -1    0    0    0  501 -0.00000000000E+00 -0.00000000000E+00 -0.14351855279E+03  0.14351855279E+03  0.00000000000E+00 0.  1.
         25    2    1    2    0    0  0.15983450308E+03  0.29435367673E+03  0.71911157457E+03  0.80309431252E+03  0.12509141753E+03 0.  0.
          5    1    3    3  502    0  0.41762424505E+02  0.97095032605E+02  0.37190084826E+03  0.38665134009E+03  0.41800000000E+01 0.  1.
         -5    1    3    3    0  502  0.11807207857E+03  0.19725864413E+03  0.34721072631E+03  0.41644297243E+03  0.41800000000E+01 0.  1.
        -11    1    1    2    0    0 -0.40896875585E+02 -0.14913048015E+03  0.56270221242E+02  0.16455635005E+03  0.00000000000E+00 0.  1.
         11    1    1    2    0    0 -0.11893762749E+03 -0.14522319658E+03  0.13852170987E+03  0.23328994870E+03  0.00000000000E+00 0. -1.
</event>
<event>
 7    1  0.2384639E-009  0.1261608E+03  0.7561462E-02  0.1233266E+00
          2   -1    0    0  501    0  0.00000000000E+00  0.00000000000E+00  0.88270676749E+03  0.88270676749E+03  0.00000000000E+00 0. -1.
         -2   -1    0    0    0  501 -0.00000000000E+00 -0.00000000000E+00 -0.20999997014E+02  0.20999997014E+02  0.00000000000E+00 0.  1.
         25    2    1    2    0    0 -0.76913154050E+02 -0.24737413431E+02  0.53990591070E+03  0.56006590312E+03  0.12509136874E+03 0.  0.
          5    1    3    3  502    0 -0.11227543177E+02 -0.58757319473E+02  0.36828370901E+03  0.37313381385E+03  0.41800000000E+01 0.  1.
         -5    1    3    3    0  502 -0.65685610874E+02  0.34019906043E+02  0.17162220169E+03  0.18693208927E+03  0.41800000000E+01 0.  1.
        -11    1    1    2    0    0  0.51886627816E+01  0.43755207438E+02  0.15370205462E+03  0.15989297043E+03  0.00000000000E+00 0.  1.
         11    1    1    2    0    0  0.71724491269E+02 -0.19017794007E+02  0.16809880516E+03  0.18374789096E+03  0.00000000000E+00 0. -1.
</event>
<event>
 7    1  0.2511703E-009  0.1056615E+03  0.7561462E-02  0.1268822E+00
         -1   -1    0    0    0  501 -0.00000000000E+00  0.00000000000E+00  0.26037690565E+03  0.26037690565E+03  0.00000000000E+00 0.  1.
          1   -1    0    0  501    0  0.00000000000E+00 -0.00000000000E+00 -0.77609065668E+02  0.77609065668E+02  0.00000000000E+00 0. -1.
         25    2    1    2    0    0  0.10682445945E+02 -0.12182421907E+02  0.20713390308E+03  0.24251757597E+03  0.12509114595E+03 0.  0.
          5    1    3    3  502    0 -0.19739948068E+01 -0.66510332998E+02  0.14050032364E+03  0.15551634767E+03  0.41800000000E+01 0.  1.
         -5    1    3    3    0  502  0.12656440752E+02  0.54327911092E+02  0.66633579442E+02  0.87001228298E+02  0.41800000000E+01 0.  1.
        -11    1    1    2    0    0 -0.12286713512E+01  0.49856185622E+02 -0.48742298088E+00  0.49873705089E+02  0.00000000000E+00 0.  1.
         11    1    1    2    0    0 -0.94537745937E+01 -0.37673763716E+02 -0.23878640112E+02  0.45594690263E+02  0.00000000000E+00 0. -1.
</event>
<event>
 7    1  0.2384639E-009  0.1081250E+03  0.7561462E-02  0.1264082E+00
         -2   -1    0    0    0  501 -0.00000000000E+00  0.00000000000E+00  0.22724061480E+02  0.22724061480E+02  0.00000000000E+00 0.  1.
          2   -1    0    0  501    0  0.00000000000E+00 -0.00000000000E+00 -0.60087731194E+03  0.60087731194E+03  0.00000000000E+00 0. -1.
         25    2    1    2    0    0 -0.37503466122E+02 -0.21611125981E+02 -0.32167436808E+03  0.34784394725E+03  0.12508981502E+03 0.  0.
          5    1    3    3  502    0  0.41046415643E+02 -0.31487155701E+02 -0.15060966613E+03  0.15930157922E+03  0.41800000000E+01 0. -1.
         -5    1    3    3    0  502 -0.78549881765E+02  0.98760297195E+01 -0.17106470196E+03  0.18854236803E+03  0.41800000000E+01 0. -1.
        -11    1    1    2    0    0  0.29521726720E+02  0.48634257427E+02 -0.86992656879E+02  0.10394491664E+03  0.00000000000E+00 0.  1.
         11    1    1    2    0    0  0.79817394021E+01 -0.27023131445E+02 -0.16948622550E+03  0.17181250953E+03  0.00000000000E+00 0. -1.
</event>
<event>
 7    1  0.2384639E-009  0.6592963E+02  0.7561462E-02  0.1374508E+00
          1   -1    0    0  501    0  0.00000000000E+00  0.00000000000E+00  0.12223680558E+03  0.12223680558E+03  0.00000000000E+00 0. -1.
         -1   -1    0    0    0  501 -0.00000000000E+00 -0.00000000000E+00 -0.12738932850E+03  0.12738932850E+03  0.00000000000E+00 0.  1.
         25    2    1    2    0    0 -0.68661916208E+01  0.14504357891E+02 -0.61048059781E+02  0.14011512700E+03  0.12509141548E+03 0.  0.
          5    1    3    3  502    0  0.41025375306E+02  0.59556207831E+01 -0.77997889681E+02  0.88429033878E+02  0.41800000000E+01 0.  1.
         -5    1    3    3    0  502 -0.47891566927E+02  0.85487371075E+01  0.16949829899E+02  0.51686093124E+02  0.41800000000E+01 0.  1.
        -11    1    1    2    0    0  0.22797660149E+02 -0.90100707451E+01 -0.20080637063E+02  0.31688273351E+02  0.00000000000E+00 0.  1.
         11    1    1    2    0    0 -0.15931468528E+02 -0.54942871455E+01  0.75976173924E+02  0.77822733727E+02  0.00000000000E+00 0. -1.
</event>
<event>
 7    1  0.2384639E-009  0.9929189E+02  0.7561462E-02  0.1281792E+00
          2   -1    0    0  501    0  0.00000000000E+00  0.00000000000E+00  0.20710710374E+03  0.20710710374E+03  0.00000000000E+00 0.  1.
         -2   -1    0    0    0  501 -0.00000000000E+00 -0.00000000000E+00 -0.69207065107E+02  0.69207065107E+02  0.00000000000E+00 0. -1.
         25    2    1    2    0    0  0.46862398118E+02 -0.20712351835E+02  0.69020091622E+02  0.15178316602E+03  0.12509704458E+03 0.  0.
          5    1    3    3  502    0 -0.26764221502E+02 -0.48328659288E+02  0.19370576117E+02  0.58691349280E+02  0.41800000000E+01 0.  1.
         -5    1    3    3    0  502  0.73626619620E+02  0.27616307453E+02  0.49649515505E+02  0.93091816740E+02  0.41800000000E+01 0.  1.
        -11    1    1    2    0    0 -0.13343514480E+02 -0.11745070744E+02  0.75356974700E+02  0.77425252350E+02  0.00000000000E+00 0.  1.
         11    1    1    2    0    0 -0.33518883638E+02  0.32457422579E+02 -0.64770276841E+01  0.47105750482E+02  0.00000000000E+00 0. -1.
</event>
<event>
 7    1  0.2384639E-009  0.1161001E+03  0.7561462E-02  0.1249673E+00
         -2   -1    0    0    0  501 -0.00000000000E+00  0.00000000000E+00  0.68165336700E+03  0.68165336700E+03  0.00000000000E+00 0. -1.
          2   -1    0    0  501    0  0.00000000000E+00 -0.00000000000E+00 -0.32257312894E+02  0.32257312894E+02  0.00000000000E+00 0.  1.
         25    2    1    2    0    0  0.85466043370E+02 -0.42432263556E+02  0.43307920366E+03  0.46077176960E+03  0.12509230775E+03 0.  0.
          5    1    3    3  502    0  0.91116279790E+02 -0.38241815720E+02  0.16363099610E+03  0.19119934152E+03  0.41800000000E+01 0.  1.
         -5    1    3    3    0  502 -0.56502364195E+01 -0.41904478364E+01  0.26944820756E+03  0.26957242809E+03  0.41800000000E+01 0.  1.
        -11    1    1    2    0    0 -0.82467332233E+02  0.63344141503E+02  0.14281947377E+03  0.17666562551E+03  0.00000000000E+00 0.  1.
         11    1    1    2    0    0 -0.29987111367E+01 -0.20911877947E+02  0.73497376671E+02  0.76473284781E+02  0.00000000000E+00 0. -1.
</event>
<event>
 7    1  0.2384639E-009  0.1602283E+03  0.7561462E-02  0.1188439E+00
          2   -1    0    0  501    0  0.00000000000E+00  0.00000000000E+00  0.17721848507E+04  0.17721848507E+04  0.00000000000E+00 0. -1.
         -2   -1    0    0    0  501 -0.00000000000E+00 -0.00000000000E+00 -0.24948837927E+02  0.24948837927E+02  0.00000000000E+00 0.  1.
         25    2    1    2    0    0  0.15320828529E+03 -0.24968204544E+02  0.13005122137E+04  0.13157034004E+04  0.12508888809E+03 0.  0.
          5    1    3    3  502    0  0.11690907250E+03 -0.15830272275E+02  0.47914701671E+03  0.49347509033E+03  0.41800000000E+01 0. -1.
         -5    1    3    3    0  502  0.36299212784E+02 -0.91379322688E+01  0.82136519701E+03  0.82222831009E+03  0.41800000000E+01 0. -1.
        -11    1    1    2    0    0 -0.12296916976E+03  0.42113640144E+02  0.41310507473E+03  0.43307133150E+03  0.00000000000E+00 0. -1.
         11    1    1    2    0    0 -0.30239115522E+02 -0.17145435600E+02  0.33618724346E+02  0.48358956731E+02  0.00000000000E+00 0.  1.
</event>
<event>
 7    1  0.2384639E-009  0.1095803E+03  0.7561462E-02  0.1261349E+00
          2   -1    0    0  501    0  0.00000000000E+00  0.00000000000E+00  0.62576883560E+02  0.62576883560E+02  0.00000000000E+00 0.  1.
         -2   -1    0    0    0  501 -0.00000000000E+00 -0.00000000000E+00 -0.28059329341E+03  0.28059329341E+03  0.00000000000E+00 0. -1.
         25    2    1    2    0    0 -0.87005467348E+02 -0.26753264024E+02 -0.88579740584E+02  0.17826853599E+03  0.12509041530E+03 0.  0.
          5    1    3    3  502    0 -0.10130454338E+03 -0.27738334798E+02 -0.11000577370E+03  0.15215376556E+03  0.41800000000E+01 0. -1.
         -5    1    3    3    0  502  0.14299076034E+02  0.98507077356E+00  0.21426033114E+02  0.26114770435E+02  0.41800000000E+01 0. -1.
        -11    1    1    2    0    0  0.35428142677E+02 -0.87570861848E+01 -0.68014302444E+02  0.77186690490E+02  0.00000000000E+00 0. -1.
         11    1    1    2    0    0  0.51577324672E+02  0.35510350209E+02 -0.61422366818E+02  0.87714950480E+02  0.00000000000E+00 0.  1.
</event>
<event>
 7    1  0.2384639E-009  0.2085104E+03  0.7561462E-02  0.1142751E+00
         -2   -1    0    0    0  501 -0.00000000000E+00  0.00000000000E+00  0.57113538136E+02  0.57113538136E+02  0.00000000000E+00 0.  1.
          2   -1    0    0  501    0  0.00000000000E+00 -0.00000000000E+00 -0.91234922984E+03  0.91234922984E+03  0.00000000000E+00 0. -1.
         25    2    1    2    0    0 -0.15411956555E+03  0.11534275723E+03 -0.56457782391E+03  0.60946991555E+03  0.12509463048E+03 0.  0.
          5    1    3    3  502    0 -0.65404784776E+02 -0.19506781332E+01 -0.29660679305E+03  0.30376743259E+03  0.41800000000E+01 0. -1.
         -5    1    3    3    0  502 -0.88714780772E+02  0.11729343537E+03 -0.26797103086E+03  0.30570248296E+03  0.41800000000E+01 0. -1.
        -11    1    1    2    0    0  0.31154399141E+02 -0.63796901737E+02 -0.15127415894E+03  0.16710629078E+03  0.00000000000E+00 0.  1.
         11    1    1    2    0    0  0.12296516641E+03 -0.51545855497E+02 -0.13938370885E+03  0.19288656164E+03  0.00000000000E+00 0. -1.
</event>
<event>
 7    1  0.2384639E-009  0.1050397E+03  0.7561462E-02  0.1270041E+00
         -2   -1    0    0    0  501 -0.00000000000E+00  0.00000000000E+00  0.52383695966E+02  0.52383695966E+02  0.00000000000E+00 0.  1.
          2   -1    0    0  501    0  0.00000000000E+00 -0.00000000000E+00 -0.22523266866E+03  0.22523266866E+03  0.00000000000E+00 0. -1.
         25    2    1    2    0    0 -0.18644439150E+01  0.23423195187E+01 -0.11295192679E+03  0.16857986442E+03  0.12510823439E+03 0.  0.
          5    1    3    3  502    0  0.57484102242E+02 -0.14571026524E+02 -0.76145958785E+02  0.96604431906E+02  0.41800000000E+01 0. -1.
         -5    1    3    3    0  502 -0.59348546157E+02  0.16913346043E+02 -0.36805968000E+02  0.71975432515E+02  0.41800000000E+01 0. -1.
        -11    1    1    2    0    0 -0.20199483213E+02  0.37863882309E+02 -0.16749597389E+02  0.46067794806E+02  0.00000000000E+00 0.  1.
         11    1    1    2    0    0  0.22063927128E+02 -0.40206201828E+02 -0.43147448516E+02  0.62968705395E+02  0.00000000000E+00 0. -1.
</event>
<event>
 7    1  0.2384639E-009  0.1011288E+03  0.7561462E-02  0.1277940E+00
          3   -1    0    0  501    0  0.00000000000E+00  0.00000000000E+00  0.17403129890E+03  0.17403129890E+03  0.00000000000E+00 0. -1.
         -3   -1    0    0    0  501 -0.00000000000E+00 -0.00000000000E+00 -0.73863956648E+02  0.73863956648E+02  0.00000000000E+00 0.  1.
         25    2    1    2    0    0  0.78356472860E+01 -0.18529291125E+02  0.27675197472E+02  0.12968232394E+03  0.12508739580E+03 0.  0.
          5    1    3    3  502    0 -0.57441993672E+02 -0.43631845684E+01  0.13831140045E+01  0.57775474216E+02  0.41800000000E+01 0. -1.
         -5    1    3    3    0  502  0.65277640958E+02 -0.14166106557E+02  0.26292083467E+02  0.71906849723E+02  0.41800000000E+01 0. -1.
        -11    1    1    2    0    0  0.33126688691E+02  0.15277166479E+02  0.18962409096E+01  0.36528961782E+02  0.00000000000E+00 0.  1.
         11    1    1    2    0    0 -0.40962335977E+02  0.32521246460E+01  0.70595903867E+02  0.81683969825E+02  0.00000000000E+00 0. -1.
</event>
<event>
 7    1  0.2384639E-009  0.1845707E+03  0.7561462E-02  0.1163451E+00
          2   -1    0    0  501    0  0.00000000000E+00  0.00000000000E+00  0.88647106826E+03  0.88647106826E+03  0.00000000000E+00 0. -1.
         -2   -1    0    0    0  501 -0.00000000000E+00 -0.00000000000E+00 -0.45295651434E+02  0.45295651434E+02  0.00000000000E+00 0.  1.
         25    2    1    2    0    0  0.16504427540E+03 -0.34160831076E+02  0.43672010854E+03  0.48454148511E+03  0.12509765133E+03 0.  0.
          5    1    3    3  502    0  0.57056498547E+02  0.29935345126E+02  0.62784115250E+02  0.90060459926E+02  0.41800000000E+01 0.  1.
         -5    1    3    3    0  502  0.10798777685E+03 -0.64096176202E+02  0.37393599329E+03  0.39448102519E+03  0.41800000000E+01 0.  1.
        -11    1    1    2    0    0 -0.14698083588E+03  0.80821913234E+01  0.25497982565E+03  0.29442044667E+03  0.00000000000E+00 0.  1.
         11    1    1    2    0    0 -0.18063439520E+02  0.26078639753E+02  0.14947548264E+03  0.15280478791E+03  0.00000000000E+00 0. -1.
</event>
<event>
 7    1  0.2384639E-009  0.9261695E+02  0.7561462E-02  0.1296635E+00
         -1   -1    0    0    0  501 -0.00000000000E+00  0.00000000000E+00  0.68514316464E+02  0.68514316464E+02  0.00000000000E+00 0.  1.
          1   -1    0    0  501    0  0.00000000000E+00 -0.00000000000E+00 -0.25640050517E+03  0.25640050517E+03  0.00000000000E+00 0. -1.
         25    2    1    2    0    0 -0.30438958076E+01  0.12335341601E+02 -0.96719578413E+01  0.12610174081E+03  0.12508667520E+03 0.  0.
          5    1    3    3  502    0 -0.30154502930E+02  0.60913220719E+02 -0.16014545986E+02  0.69954646654E+02  0.41800000000E+01 0. -1.
         -5    1    3    3    0  502  0.27110607123E+02 -0.48577879117E+02  0.63425881447E+01  0.56147094159E+02  0.41800000000E+01 0. -1.
        -11    1    1    2    0    0 -0.21926789508E+02 -0.25080639559E+02 -0.21587122103E+02  0.39696680208E+02  0.00000000000E+00 0.  1.
         11    1    1    2    0    0  0.24970685316E+02  0.12745297958E+02 -0.15662710877E+03  0.15911640062E+03  0.00000000000E+00 0. -1.
</event>
<event>
 7    1  0.2384639E-009  0.1093196E+03  0.7561462E-02  0.1261835E+00
         -2   -1    0    0    0  501 -0.00000000000E+00  0.00000000000E+00  0.39699096912E+02  0.39699096912E+02  0.00000000000E+00 0. -1.
          2   -1    0    0  501    0  0.00000000000E+00 -0.00000000000E+00 -0.47239494418E+03  0.47239494418E+03  0.00000000000E+00 0.  1.
         25    2    1    2    0    0  0.61105275537E+02 -0.23160043744E+02 -0.33550432968E+03  0.36397959566E+03  0.12509096090E+03 0.  0.
          5    1    3    3  502    0  0.37883289038E+02 -0.62159954006E+02 -0.29201056212E+03  0.30097615231E+03  0.41800000000E+01 0. -1.
         -5    1    3    3    0  502  0.23221986499E+02  0.38999910263E+02 -0.43493767566E+02  0.63003443354E+02  0.41800000000E+01 0. -1.
        -11    1    1    2    0    0 -0.68740900148E+02 -0.69391514942E+01 -0.32492508930E+02  0.76349370090E+02  0.00000000000E+00 0. -1.
         11    1    1    2    0    0  0.76356246110E+01  0.30099195238E+02 -0.64699008651E+02  0.71765075333E+02  0.00000000000E+00 0.  1.
</event>
<event>
 7    1  0.2384639E-009  0.9412290E+02  0.7561462E-02  0.1293164E+00
         -4   -1    0    0    0  501 -0.00000000000E+00  0.00000000000E+00  0.69000981113E+02  0.69000981113E+02  0.00000000000E+00 0.  1.
          4   -1    0    0  501    0  0.00000000000E+00 -0.00000000000E+00 -0.19372130035E+03  0.19372130035E+03  0.00000000000E+00 0. -1.
         25    2    1    2    0    0 -0.24762646045E+02 -0.27378487733E+02 -0.83378026787E+02  0.15479832112E+03  0.12509138516E+03 0.  0.
          5    1    3    3  502    0 -0.18874569797E+02  0.27582799127E+02  0.18783630605E+02  0.38566272459E+02  0.41800000000E+01 0. -1.
         -5    1    3    3    0  502 -0.58880762484E+01 -0.54961286860E+02 -0.10216165739E+03  0.11623204866E+03  0.41800000000E+01 0. -1.
        -11    1    1    2    0    0  0.32843685747E+02  0.58438376407E+02 -0.33234871497E+02  0.74821843161E+02  0.00000000000E+00 0.  1.
         11    1    1    2    0    0 -0.80810397023E+01 -0.31059888674E+02 -0.81074209485E+01  0.33102117176E+02  0.00000000000E+00 0. -1.
</event>
<event>
 7    1  0.3109921E-009  0.1894696E+03  0.7561462E-02  0.1158941E+00
         -2   -1    0    0    0  501 -0.00000000000E+00  0.00000000000E+00  0.65869418866E+02  0.65869418866E+02  0.00000000000E+00 0. -1.
          2   -1    0    0  501    0  0.00000000000E+00 -0.00000000000E+00 -0.71728737111E+03  0.71728737111E+03  0.00000000000E+00 0.  1.
         25    2    1    2    0    0  0.11967875536E+03 -0.13677628699E+03 -0.25173284488E+03  0.33473542601E+03  0.12509045955E+03 0.  0.
          5    1    3    3  502    0  0.58015982288E+02 -0.11899936190E+03 -0.23254877505E+03  0.26762493814E+03  0.41800000000E+01 0. -1.
         -5    1    3    3    0  502  0.61662773068E+02 -0.17776925083E+02 -0.19184069828E+02  0.67110487877E+02  0.41800000000E+01 0. -1.
        -11    1    1    2    0    0 -0.69962423011E+02  0.89176987162E+02 -0.14193330181E+03  0.18163793061E+03  0.00000000000E+00 0. -1.
         11    1    1    2    0    0 -0.49716332346E+02  0.47599299824E+02 -0.25775180555E+03  0.26678343335E+03  0.00000000000E+00 0.  1.
</event>
<event>
 7    1  0.2384639E-009  0.9606450E+02  0.7561462E-02  0.1288796E+00
         -1   -1    0    0    0  501 -0.00000000000E+00  0.00000000000E+00  0.53597902975E+02  0.53597902975E+02  0.00000000000E+00 0.  1.
          1   -1    0    0  501    0  0.00000000000E+00 -0.00000000000E+00 -0.25548067551E+03  0.25548067551E+03  0.00000000000E+00 0. -1.
         25    2    1    2    0    0 -0.38211286920E+02  0.37252375635E+02 -0.13395695528E+03  0.19089234623E+03  0.12509028757E+03 0.  0.
          5    1    3    3  502    0  0.27143806584E+02 -0.29877865805E+02 -0.27522931817E+02  0.49035265643E+02  0.41800000000E+01 0. -1.
         -5    1    3    3    0  502 -0.65355093504E+02  0.67130241440E+02 -0.10643402346E+03  0.14185708059E+03  0.41800000000E+01 0. -1.
        -11    1    1    2    0    0  0.37565030192E+01 -0.17809702482E+02  0.16742704874E+02  0.24730850853E+02  0.00000000000E+00 0.  1.
         11    1    1    2    0    0  0.34454783901E+02 -0.19442673153E+02 -0.84668522129E+02  0.93455381400E+02  0.00000000000E+00 0. -1.
</event>
<event>
 7    1  0.2384639E-009  0.1092941E+03  0.7561462E-02  0.1261883E+00
          2   -1    0    0  501    0  0.00000000000E+00  0.00000000000E+00  0.18194432611E+03  0.18194432611E+03  0.00000000000E+00 0. -1.
         -2   -1    0    0    0  501 -0.00000000000E+00 -0.00000000000E+00 -0.12146799631E+03  0.12146799631E+03  0.00000000000E+00 0.  1.
         25    2    1    2    0    0 -0.98323009640E+02 -0.14611564764E+02  0.10308607490E+02  0.16010705228E+03  0.12508832380E+03 0.  0.
          5    1    3    3  502    0 -0.14007326699E+02  0.76314869525E+01 -0.50888497756E+02  0.53493517348E+02  0.41800000000E+01 0. -1.
         -5    1    3    3    0  502 -0.84315682940E+02 -0.22243051717E+02  0.61197105246E+02  0.10661353493E+03  0.41800000000E+01 0. -1.
        -11    1    1    2    0    0  0.56383790543E+02  0.36820228086E+02 -0.84676495834E+01  0.67871659194E+02  0.00000000000E+00 0. -1.
         11    1    1    2    0    0  0.41939219096E+02 -0.22208663322E+02  0.58635371885E+02  0.75433610950E+02  0.00000000000E+00 0.  1.
</event>
<event>
 7    1  0.2384639E-009  0.6054348E+02  0.7561462E-02  0.1395565E+00
         -2   -1    0    0    0  501 -0.00000000000E+00  0.00000000000E+00  0.28961618891E+02  0.28961618891E+02  0.00000000000E+00 0. -1.
          2   -1    0    0  501    0  0.00000000000E+00 -0.00000000000E+00 -0.43332413200E+03  0.43332413200E+03  0.00000000000E+00 0.  1.
         25    2    1    2    0    0 -0.17385964820E+01 -0.30203963639E+02 -0.18349975093E+03  0.22413100002E+03  0.12508894611E+03 0.  0.
          5    1    3    3  502    0  0.12059664636E+02 -0.23975713452E+02 -0.19971697614E+03  0.20155548443E+03  0.41800000000E+01 0.  1.
         -5    1    3    3    0  502 -0.13798261118E+02 -0.62282501870E+01  0.16217225210E+02  0.22575515582E+02  0.41800000000E+01 0.  1.
        -11    1    1    2    0    0 -0.33099322925E+02  0.15896619952E+01 -0.40943239650E+02  0.52672963429E+02  0.00000000000E+00 0. -1.
         11    1    1    2    0    0  0.34837919407E+02  0.28614301644E+02 -0.17991952253E+03  0.18548178745E+03  0.00000000000E+00 0.  1.
</event>
<event>
 7    1  0.2384639E-009  0.1222102E+03  0.7561462E-02  0.1239495E+00
          1   -1    0    0  501    0  0.00000000000E+00  0.00000000000E+00  0.37775702591E+02  0.37775702591E+02  0.00000000000E+00 0. -1.
         -1   -1    0    0    0  501 -0.00000000000E+00 -0.00000000000E+00 -0.49575740300E+03  0.49575740300E+03  0.00000000000E+00 0.  1.
         25    2    1    2    0    0  0.34688968960E+02 -0.75832963886E+02 -0.24646915831E+03  0.28869995824E+03  0.12508659765E+03 0.  0.
          5    1    3    3  502    0  0.62067050983E+02 -0.74489903202E+02 -0.24184287893E+03  0.26058878523E+03  0.41800000000E+01 0. -1.
         -5    1    3    3    0  502 -0.27378082022E+02 -0.13430606837E+01 -0.46262793726E+01  0.28111173011E+02  0.41800000000E+01 0. -1.
        -11    1    1    2    0    0  0.20282555180E+02  0.58635905228E+02 -0.79839488705E+02  0.10111327995E+03  0.00000000000E+00 0.  1.
         11    1    1    2    0    0 -0.54971524140E+02  0.17197058658E+02 -0.13167305339E+03  0.14371986739E+03  0.00000000000E+00 0. -1.
</event>
<event>
 7    1  0.2384639E-009  0.7121660E+02  0.7561462E-02  0.1356004E+00
         -1   -1    0    0    0  501 -0.00000000000E+00  0.00000000000E+00  0.17735902125E+02  0.17735902125E+02  0.00000000000E+00 0. -1.
          1   -1    0    0  501    0  0.00000000000E+00 -0.00000000000E+00 -0.70986575741E+03  0.70986575741E+03  0.00000000000E+00 0.  1.
         25    2    1    2    0    0  0.27716755882E+02 -0.14645067070E+02 -0.41577909563E+03  0.43531876216E+03  0.12508985482E+03 0.  0.
          5    1    3    3  502    0  0.26869118168E+02 -0.26088765704E+02 -0.27023754071E+02  0.46371638866E+02  0.41800000000E+01 0.  1.
         -5    1    3    3    0  502  0.84763771423E+00  0.11443698634E+02 -0.38875534156E+03  0.38894712330E+03  0.41800000000E+01 0.  1.
        -11    1    1    2    0    0  0.96676441727E+01  0.43971970224E+02 -0.16885586257E+03  0.17475497084E+03  0.00000000000E+00 0. -1.
         11    1    1    2    0    0 -0.37384400054E+02 -0.29326903153E+02 -0.10749489708E+03  0.11752792653E+03  0.00000000000E+00 0.  1.
</event>
<event>
 7    1  0.2384639E-009  0.1257317E+03  0.7561462E-02  0.1233930E+00
          1   -1    0    0  501    0  0.00000000000E+00  0.00000000000E+00  0.10254074760E+03  0.10254074760E+03  0.00000000000E+00 0. -1.
         -1   -1    0    0    0  501 -0.00000000000E+00 -0.00000000000E+00 -0.23693339224E+03  0.23693339224E+03  0.00000000000E+00 0.  1.
         25    2    1    2    0    0 -0.59560305616E+02  0.73392203990E+02 -0.83369275229E+01  0.15700882513E+03  0.12509364970E+03 0.  0.
          5    1    3    3  502    0  0.39338787573E+02  0.21272726492E+02 -0.23200680040E+01  0.44976929815E+02  0.41800000000E+01 0. -1.
         -5    1    3    3    0  502 -0.98899093189E+02  0.52119477498E+02 -0.60168595189E+01  0.11203189531E+03  0.41800000000E+01 0. -1.
        -11    1    1    2    0    0  0.46640205832E+02 -0.53734839105E+02 -0.13860688726E+03  0.15580311592E+03  0.00000000000E+00 0.  1.
         11    1    1    2    0    0  0.12920099784E+02 -0.19657364885E+02  0.12551170146E+02  0.26662198797E+02  0.00000000000E+00 0. -1.
</event>
<event>
 7    1  0.2384639E-009  0.2155621E+03  0.7561462E-02  0.1137236E+00
          2   -1    0    0  501    0  0.00000000000E+00  0.00000000000E+00  0.71232357226E+03  0.71232357226E+03  0.00000000000E+00 0. -1.
         -2   -1    0    0    0  501 -0.00000000000E+00 -0.00000000000E+00 -0.11029380728E+03  0.11029380728E+03  0.00000000000E+00 0.  1.
         25    2    1    2    0    0 -0.10514730653E+03 -0.18154309690E+03  0.87748883837E+02  0.25954056616E+03  0.12509031443E+03 0.  0.
          5    1    3    3  502    0  0.72823569153E+01 -0.26895661852E+02  0.60011741230E+02  0.66296989631E+02  0.41800000000E+01 0. -1.
         -5    1    3    3    0  502 -0.11242966345E+03 -0.15464743505E+03  0.27737142607E+02  0.19324357653E+03  0.41800000000E+01 0. -1.
        -11    1    1    2    0    0  0.38834607853E+02  0.95353094128E+02  0.14307227641E+03  0.17626688743E+03  0.00000000000E+00 0.  1.
         11    1    1    2    0    0  0.66312698678E+02  0.86190002773E+02  0.37120860474E+03  0.38680992595E+03  0.00000000000E+00 0. -1.
</event>
<event>
 7    1  0.2384639E-009  0.1209002E+03  0.7561462E-02  0.1241619E+00
          1   -1    0    0  501    0  0.00000000000E+00  0.00000000000E+00  0.70945194849E+03  0.70945194849E+03  0.00000000000E+00 0. -1.
         -1   -1    0    0    0  501 -0.00000000000E+00 -0.00000000000E+00 -0.31456949151E+02  0.31456949151E+02  0.00000000000E+00 0.  1.
         25    2    1    2    0    0  0.10156541320E+03 -0.14426788446E+02  0.29798728224E+03  0.33906889152E+03  0.12509047699E+03 0.  0.
          5    1    3    3  502    0 -0.44616343319E+01  0.11845399641E+02  0.17097297234E+03  0.17149183463E+03  0.41800000000E+01 0.  1.
         -5    1    3    3    0  502  0.10602704754E+03 -0.26272188087E+02  0.12701430990E+03  0.16757705689E+03  0.41800000000E+01 0.  1.
        -11    1    1    2    0    0 -0.32778723725E+02 -0.23757076154E+02  0.21815229458E+03  0.22187669330E+03  0.00000000000E+00 0. -1.
         11    1    1    2    0    0 -0.68786689480E+02  0.38183864600E+02  0.16185542251E+03  0.17996331282E+03  0.00000000000E+00 0.  1.
</event>
<event>
 7    1  0.2408403E-009  0.1032508E+03  0.7561462E-02  0.1273605E+00
         -1   -1    0    0    0  501 -0.00000000000E+00  0.00000000000E+00  0.12986590274E+03  0.12986590274E+03  0.00000000000E+00 0.  1.
          1   -1    0    0  501    0  0.00000000000E+00 -0.00000000000E+00 -0.14469558234E+03  0.14469558234E+03  0.00000000000E+00 0. -1.
         25    2    1    2    0    0 -0.57381881304E+02 -0.44783985138E+02  0.33765063343E+02  0.14861756220E+03  0.12509522240E+03 0.  0.
          5    1    3    3  502    0  0.10354717845E+02 -0.48355844370E+02 -0.27829420984E+02  0.56898654982E+02  0.41800000000E+01 0.  1.
         -5    1    3    3    0  502 -0.67736599149E+02  0.35718592322E+01  0.61594484327E+02  0.91718907223E+02  0.41800000000E+01 0.  1.
        -11    1    1    2    0    0  0.46455610723E+02  0.56331668351E+02  0.18639820987E+01  0.73040092115E+02  0.00000000000E+00 0.  1.
         11    1    1    2    0    0  0.10926270581E+02 -0.11547683213E+02 -0.50458725046E+02  0.52903830766E+02  0.00000000000E+00 0. -1.
</event>
<event>
 7    1  0.2384639E-009  0.2767991E+03  0.7561462E-02  0.1097450E+00
          1   -1    0    0  501    0  0.00000000000E+00  0.00000000000E+00  0.14349963364E+04  0.14349963364E+04  0.00000000000E+00 0. -1.
         -1   -1    0    0    0  501 -0.00000000000E+00 -0.00000000000E+00 -0.71474315644E+02  0.71474315644E+02  0.00000000000E+00 0.  1.
         25    2    1    2    0    0 -0.26980935876E+03 -0.14829190448E+02  0.38393874012E+03  0.48587345842E+03  0.12508823475E+03 0.  0.
          5    1    3    3  502    0 -0.80022082740E+01 -0.13955843691E+02  0.92932320813E+02  0.94407041909E+02  0.41800000000E+01 0.  1.
         -5    1    3    3    0  502 -0.26180715049E+03 -0.87334675710E+00  0.29100641931E+03  0.39146641652E+03  0.41800000000E+01 0.  1.
        -11    1    1    2    0    0  0.16856035155E+03 -0.15943147230E+02  0.73237869875E+03  0.75169497433E+03  0.00000000000E+00 0. -1.
         11    1    1    2    0    0  0.10124900721E+03  0.30772337678E+02  0.24720458186E+03  0.26890221925E+03  0.00000000000E+00 0.  1.
</event>
<event>
 7    1  0.2384639E-009  0.1559277E+03  0.7561462E-02  0.1193373E+00
         -2   -1    0    0    0  501 -0.00000000000E+00  0.00000000000E+00  0.30336286807E+02  0.30336286807E+02  0.00000000000E+00 0.  1.
          2   -1    0    0  501    0  0.00000000000E+00 -0.00000000000E+00 -0.97289382607E+03  0.97289382607E+03  0.00000000000E+00 0. -1.
         25    2    1    2    0    0 -0.40056316767E+02  0.11590937311E+03 -0.34934376532E+03  0.39080384244E+03  0.12508831125E+03 0.  0.
          5    1    3    3  502    0 -0.19578886291E+02  0.13206806022E+03 -0.33520698331E+03  0.36084137703E+03  0.41800000000E+01 0.  1.
         -5    1    3    3    0  502 -0.20477430476E+02 -0.16158687107E+02 -0.14136782015E+02  0.29962465413E+02  0.41800000000E+01 0.  1.
        -11    1    1    2    0    0 -0.20534271370E+02  0.59444858913E+00 -0.67283169548E+02  0.70349375081E+02  0.00000000000E+00 0.  1.
         11    1    1    2    0    0  0.60590588137E+02 -0.11650382170E+03 -0.52593060439E+03  0.54207689535E+03  0.00000000000E+00 0. -1.
</event>
<event>
 7    1  0.2384639E-009  0.6239311E+02  0.7561462E-02  0.1388055E+00
         -2   -1    0    0    0  501 -0.00000000000E+00  0.00000000000E+00  0.18187141274E+03  0.18187141274E+03  0.00000000000E+00 0.  1.
          2   -1    0    0  501    0  0.00000000000E+00 -0.00000000000E+00 -0.10327806596E+03  0.10327806596E+03  0.00000000000E+00 0. -1.
         25    2    1    2    0    0 -0.97513279081E+01 -0.11792349455E+02  0.12852885849E+03  0.18001010253E+03  0.12509924719E+03 0.  0.
          5    1    3    3  502    0 -0.23400295818E+02 -0.13843453352E+02  0.15090371440E+03  0.15339041190E+03  0.41800000000E+01 0. -1.
         -5    1    3    3    0  502  0.13648967910E+02  0.20511038969E+01 -0.22374855907E+02  0.26619690627E+02  0.41800000000E+01 0. -1.
        -11    1    1    2    0    0 -0.36096153056E+02  0.68936772241E+01 -0.45980854122E+02  0.58861651326E+02  0.00000000000E+00 0. -1.
         11    1    1    2    0    0  0.45847480964E+02  0.48986722306E+01 -0.39546575890E+01  0.46277724847E+02  0.00000000000E+00 0.  1.
</event>
<event>
 7    1  0.2384639E-009  0.1250071E+03  0.7561462E-02  0.1235058E+00
         -2   -1    0    0    0  501 -0.00000000000E+00  0.00000000000E+00  0.17287467967E+02  0.17287467967E+02  0.00000000000E+00 0.  1.
          2   -1    0    0  501    0  0.00000000000E+00 -0.00000000000E+00 -0.15514970343E+04  0.15514970343E+04  0.00000000000E+00 0. -1.
         25    2    1    2    0    0  0.10673413186E+03 -0.13639724280E+02 -0.11026887655E+04  0.11149652767E+04  0.12508732079E+03 0.  0.
          5    1    3    3  502    0  0.33609114565E+02 -0.22688810392E+02 -0.81631508767E+02  0.91244344058E+02  0.41800000000E+01 0. -1.
         -5    1    3    3    0  502  0.73125017297E+02  0.90490861116E+01 -0.10210572567E+04  0.10237209327E+04  0.41800000000E+01 0. -1.
        -11    1    1    2    0    0 -0.27069125091E+02 -0.33352811069E+02 -0.19888817864E+03  0.20347396675E+03  0.00000000000E+00 0. -1.
         11    1    1    2    0    0 -0.79665006772E+02  0.46992535349E+02 -0.23263262225E+03  0.25034525883E+03  0.00000000000E+00 0.  1.
</event>
<event>
 7    1  0.2384639E-009  0.1135199E+03  0.7561462E-02  0.1254187E+00
         -1   -1    0    0    0  501 -0.00000000000E+00  0.00000000000E+00  0.11210639841E+03  0.11210639841E+03  0.00000000000E+00 0.  1.
          1   -1    0    0  501    0  0.00000000000E+00 -0.00000000000E+00 -0.33356881952E+03  0.33356881952E+03  0.00000000000E+00 0. -1.
         25    2    1    2    0    0  0.98782020528E+02  0.46291272760E+02 -0.25135670102E+03  0.30121994938E+03  0.12510994063E+03 0.  0.
          5    1    3    3  502    0  0.44098608257E+02 -0.27387922685E+01 -0.21430407400E+03  0.21885131201E+03  0.41800000000E+01 0.  1.
         -5    1    3    3    0  502  0.54683412270E+02  0.49030065028E+02 -0.37052627022E+02  0.82368637377E+02  0.41800000000E+01 0.  1.
        -11    1    1    2    0    0 -0.45120709177E+02 -0.21667438417E+02  0.60036511280E+02  0.78164819265E+02  0.00000000000E+00 0.  1.
         11    1    1    2    0    0 -0.53661311351E+02 -0.24623834343E+02 -0.30142231363E+02  0.66290449276E+02  0.00000000000E+00 0. -1.
</event>
<event>
 7    1  0.2384639E-009  0.9727781E+02  0.7561462E-02  0.1286127E+00
          1   -1    0    0  501    0  0.00000000000E+00  0.00000000000E+00  0.94849706107E+02  0.94849706107E+02  0.00000000000E+00 0. -1.
         -1   -1    0    0    0  501 -0.00000000000E+00 -0.00000000000E+00 -0.16747396733E+03  0.16747396733E+03  0.00000000000E+00 0.  1.
         25    2    1    2    0    0 -0.21315804632E+01  0.64232255959E+02 -0.36496450348E+02  0.14529251794E+03  0.12509036150E+03 0.  0.
          5    1    3    3  502    0  0.17062255171E+02  0.16263902682E+01 -0.69598913320E+02  0.71800047578E+02  0.41800000000E+01 0. -1.
         -5    1    3    3    0  502 -0.19193835634E+02  0.62605865691E+02  0.33102462972E+02  0.73492470363E+02  0.41800000000E+01 0. -1.
        -11    1    1    2    0    0  0.41205646879E+02 -0.58870009778E+02 -0.22350420735E+02  0.75253735409E+02  0.00000000000E+00 0.  1.
         11    1    1    2    0    0 -0.39074066416E+02 -0.53622461806E+01 -0.13777390144E+02  0.41777420092E+02  0.00000000000E+00 0. -1.
</event>
<event>
 7    1  0.2384639E-009  0.7378241E+02  0.7561462E-02  0.1347684E+00
          2   -1    0    0  501    0  0.00000000000E+00  0.00000000000E+00  0.95334737465E+03  0.95334737465E+03  0.00000000000E+00 0. -1.
         -2   -1    0    0    0  501 -0.00000000000E+00 -0.00000000000E+00 -0.13175790255E+02  0.13175790255E+02  0.00000000000E+00 0.  1.
         25    2    1    2    0    0 -0.17804780492E+02 -0.80966464331E+01  0.64215200448E+03  0.65451407698E+03  0.12508762613E+03 0.  0.
          5    1    3    3  502    0  0.10831816035E+02  0.15760520926E+02  0.58974001012E+03  0.59006480509E+03  0.41800000000E+01 0.  1.
         -5    1    3    3    0  502 -0.28636596527E+02 -0.23857167359E+02  0.52411994357E+02  0.64449271893E+02  0.41800000000E+01 0.  1.
        -11    1    1    2    0    0  0.50488847575E+02  0.21862279998E+02  0.21063630778E+03  0.21770332375E+03  0.00000000000E+00 0.  1.
         11    1    1    2    0    0 -0.32684067083E+02 -0.13765633565E+02  0.87383272133E+02  0.94305764178E+02  0.00000000000E+00 0. -1.
</event>
<event>
 7    1  0.2384639E-009  0.1138037E+03  0.7561462E-02  0.1253684E+00
         -2   -1    0    0    0  501 -0.00000000000E+00  0.00000000000E+00  0.77602013986E+02  0.77602013986E+02  0.00000000000E+00 0. -1.
          2   -1    0    0  501    0  0.00000000000E+00 -0.00000000000E+00 -0.21125681925E+03  0.21125681925E+03  0.00000000000E+00 0.  1.
         25    2    1    2    0    0 -0.32336759446E+02 -0.43782894610E+02 -0.11627647650E+03  0.17924733543E+03  0.12508709126E+03 0.  0.
          5    1    3    3  502    0 -0.55144733756E+01  0.40958014451E+02 -0.14357190136E+02  0.43949626540E+02  0.41800000000E+01 0.  1.
         -5    1    3    3    0  502 -0.26822286071E+02 -0.84740909061E+02 -0.10191928637E+03  0.13529770889E+03  0.41800000000E+01 0.  1.
        -11    1    1    2    0    0 -0.25406333841E+02  0.13751501343E+01  0.16538155088E+02  0.30346060878E+02  0.00000000000E+00 0. -1.
         11    1    1    2    0    0  0.57743093287E+02  0.42407744476E+02 -0.33916483849E+02  0.79265436923E+02  0.00000000000E+00 0.  1.
</event>
<event>
 7    1  0.2384639E-009  0.1423020E+03  0.7561462E-02  0.1210265E+00
          1   -1    0    0  501    0  0.00000000000E+00  0.00000000000E+00  0.92574745260E+03  0.92574745260E+03  0.00000000000E+00 0. -1.
         -1   -1    0    0    0  501 -0.00000000000E+00 -0.00000000000E+00 -0.31057647340E+02  0.31057647340E+02  0.00000000000E+00 0.  1.
         25    2    1    2    0    0  0.10727471622E+03 -0.64804188762E+02  0.56301696407E+03  0.59020590629E+03  0.12508981723E+03 0.  0.
          5    1    3    3  502    0  0.35686252391E+02 -0.31616934848E+01  0.40094380763E+03  0.40256293197E+03  0.41800000000E+01 0. -1.
         -5    1    3    3    0  502  0.71588463826E+02 -0.61642495278E+02  0.16207315644E+03  0.18764297433E+03  0.41800000000E+01 0. -1.
        -11    1    1    2    0    0 -0.95200979494E+02  0.75961401918E+01  0.17486070799E+03  0.19924154949E+03  0.00000000000E+00 0.  1.
         11    1    1    2    0    0 -0.12073736724E+02  0.57208048571E+02  0.15681213320E+03  0.16735764416E+03  0.00000000000E+00 0. -1.
</event>
<event>
 7    1  0.2384639E-009  0.1338073E+03  0.7561462E-02  0.1221913E+00
         -1   -1    0    0    0  501 -0.00000000000E+00  0.00000000000E+00  0.34241892346E+02  0.34241892346E+02  0.00000000000E+00 0.  1.
          1   -1    0    0  501    0  0.00000000000E+00 -0.00000000000E+00 -0.81252296165E+03  0.81252296165E+03  0.00000000000E+00 0. -1.
         25    2    1    2    0    0 -0.83939980750E+01 -0.12322317521E+03 -0.49163311413E+03  0.52211561974E+03  0.12508873391E+03 0.  0.
          5    1    3    3  502    0 -0.24285428164E+02 -0.47840170638E+02 -0.39409444306E+03  0.39775163909E+03  0.41800000000E+01 0.  1.
         -5    1    3    3    0  502  0.15891430089E+02 -0.75383004569E+02 -0.97538671067E+02  0.12436398064E+03  0.41800000000E+01 0.  1.
        -11    1    1    2    0    0  0.32931732905E+02  0.85742088561E+02 -0.11460362349E+03  0.14686795191E+03  0.00000000000E+00 0.  1.
         11    1    1    2    0    0 -0.24537734830E+02  0.37481086646E+02 -0.17204433168E+03  0.17778128234E+03  0.00000000000E+00 0. -1.
</event>
<event>
 7    1  0.2384639E-009  0.1163997E+03  0.7561462E-02  0.1249157E+00
          2   -1    0    0  501    0  0.00000000000E+00  0.00000000000E+00  0.90221483239E+03  0.90221483239E+03  0.00000000000E+00 0.  1.
         -2   -1    0    0    0  501 -0.00000000000E+00 -0.00000000000E+00 -0.16871910809E+02  0.16871910809E+02  0.00000000000E+00 0. -1.
         25    2    1    2    0    0 -0.68885559340E+01  0.54152322904E+02  0.42925510455E+03  0.45042987895E+03  0.12508878762E+03 0.  0.
          5    1    3    3  502    0 -0.55391966811E+02  0.37436574183E+01  0.10672666907E+03  0.12037582502E+03  0.41800000000E+01 0.  1.
         -5    1    3    3    0  502  0.48503410877E+02  0.50408665486E+02  0.32252843548E+03  0.33005405393E+03  0.41800000000E+01 0.  1.
        -11    1    1    2    0    0  0.84730111430E+01 -0.80351856869E+02  0.31855848486E+03  0.32864528157E+03  0.00000000000E+00 0. -1.
         11    1    1    2    0    0 -0.15844552090E+01  0.26199533965E+02  0.13752933217E+03  0.14001158268E+03  0.00000000000E+00 0.  1.
</event>
<event>
 7    1  0.2384639E-009  0.1462444E+03  0.7561462E-02  0.1205165E+00
          1   -1    0    0  501    0  0.00000000000E+00  0.00000000000E+00  0.76112038589E+03  0.76112038589E+03  0.00000000000E+00 0. -1.
         -1   -1    0    0    0  501 -0.00000000000E+00 -0.00000000000E+00 -0.35050549384E+02  0.35050549384E+02  0.00000000000E+00 0.  1.
         25    2    1    2    0    0 -0.12155073998E+03 -0.16248720906E+01  0.40350854080E+03  0.43959932246E+03  0.12510475292E+03 0.  0.
          5    1    3    3  502    0 -0.96879878980E+02  0.32905673747E+02  0.37393956774E+03  0.38770706343E+03  0.41800000000E+01 0. -1.
         -5    1    3    3    0  502 -0.24670860998E+02 -0.34530545838E+02  0.29568973064E+02  0.51892259022E+02  0.41800000000E+01 0. -1.
        -11    1    1    2    0    0  0.35698689452E+02  0.39819822517E+02  0.16126255497E+03  0.16989887089E+03  0.00000000000E+00 0.  1.
         11    1    1    2    0    0  0.85852050527E+02 -0.38194950426E+02  0.16129874074E+03  0.18667274194E+03  0.00000000000E+00 0. -1.
</event>
<event>
 7    1  0.2384639E-009  0.8598474E+02  0.7561462E-02  0.1312877E+00
         -1   -1    0    0    0  501 -0.00000000000E+00  0.00000000000E+00  0.10765404423E+03  0.10765404423E+03  0.00000000000E+00 0.  1.
          1   -1    0    0  501    0  0.00000000000E+00 -0.00000000000E+00 -0.16926740252E+03  0.16926740252E+03  0.00000000000E+00 0. -1.
         25    2    1    2    0    0  0.61238362540E+02  0.16994476489E+02 -0.81847709912E+02  0.16243517067E+03  0.12508871961E+03 0.  0.
          5    1    3    3  502    0  0.43435310529E+02 -0.22375060177E+02  0.19040006714E+02  0.52604788511E+02  0.41800000000E+01 0. -1.
         -5    1    3    3    0  502  0.17803052012E+02  0.39369536667E+02 -0.10088771663E+03  0.10983038215E+03  0.41800000000E+01 0. -1.
        -11    1    1    2    0    0 -0.52477261216E+02 -0.32490147251E+02  0.50249545526E+02  0.79589505833E+02  0.00000000000E+00 0.  1.
         11    1    1    2    0    0 -0.87611013243E+01  0.15495670762E+02 -0.30015193904E+02  0.34896770250E+02  0.00000000000E+00 0. -1.
</event>
<event>
 7    1  0.2384639E-009  0.1067671E+03  0.7561462E-02  0.1266677E+00
         -1   -1    0    0    0  501 -0.00000000000E+00  0.00000000000E+00  0.15311121687E+02  0.15311121687E+02  0.00000000000E+00 0.  1.
          1   -1    0    0  501    0  0.00000000000E+00 -0.00000000000E+00 -0.85857814808E+03  0.85857814808E+03  0.00000000000E+00 0. -1.
         25    2    1    2    0    0  0.19876359907E+02  0.59121116517E+01 -0.59322700575E+03  0.60662654204E+03  0.12508980138E+03 0.  0.
          5    1    3    3  502    0  0.41814548445E+02 -0.46269840468E+02 -0.41213080886E+03  0.41684365247E+03  0.41800000000E+01 0.  1.
         -5    1    3    3    0  502 -0.21938188538E+02  0.52181952120E+02 -0.18109619689E+03  0.18978288957E+03  0.41800000000E+01 0.  1.
        -11    1    1    2    0    0 -0.38401372686E+02 -0.40014598906E+02 -0.15367566918E+03  0.16337700220E+03  0.00000000000E+00 0. -1.
         11    1    1    2    0    0  0.18525012779E+02  0.34102487255E+02 -0.96364351463E+02  0.10388572553E+03  0.00000000000E+00 0.  1.
</event>
<event>
 7    1  0.2384639E-009  0.1010683E+03  0.7561462E-02  0.1278065E+00
          1   -1    0    0  501    0  0.00000000000E+00  0.00000000000E+00  0.25152067561E+02  0.25152067561E+02  0.00000000000E+00 0. -1.
         -1   -1    0    0    0  501 -0.00000000000E+00 -0.00000000000E+00 -0.51283048788E+03  0.51283048788E+03  0.00000000000E+00 0.  1.
         25    2    1    2    0    0 -0.16454505646E+02 -0.24926816440E+02 -0.21030205342E+03  0.24650931962E+03  0.12509114299E+03 0.  0.
          5    1    3    3  502    0  0.36896773761E+02 -0.55489215891E+02 -0.11643181005E+03  0.13421722612E+03  0.41800000000E+01 0.  1.
         -5    1    3    3    0  502 -0.53351279407E+02  0.30562399451E+02 -0.93870243362E+02  0.11229209350E+03  0.41800000000E+01 0.  1.
        -11    1    1    2    0    0  0.25050418799E+02 -0.17432684795E+02 -0.40640511997E+02  0.50823943142E+02  0.00000000000E+00 0. -1.
         11    1    1    2    0    0 -0.85959131529E+01  0.42359501235E+02 -0.23673585491E+03  0.24064929268E+03  0.00000000000E+00 0.  1.
</event>
<event>
 7    1  0.2384639E-009  0.1033535E+03  0.7561462E-02  0.1273398E+00
          1   -1    0    0  501    0  0.00000000000E+00  0.00000000000E+00  0.44921234935E+02  0.44921234935E+02  0.00000000000E+00 0. -1.
         -1   -1    0    0    0  501 -0.00000000000E+00 -0.00000000000E+00 -0.31233373162E+03  0.31233373162E+03  0.00000000000E+00 0.  1.
         25    2    1    2    0    0  0.13464599651E+02  0.28030121028E+02 -0.20379992041E+03  0.24115075052E+03  0.12510912751E+03 0.  0.
          5    1    3    3  502    0  0.80923332357E+01  0.77830909932E+02 -0.13194743097E+03  0.15346248186E+03  0.41800000000E+01 0. -1.
         -5    1    3    3    0  502  0.53722664157E+01 -0.49800788904E+02 -0.71852489441E+02  0.87688268661E+02  0.41800000000E+01 0. -1.
        -11    1    1    2    0    0  0.26653481158E+01  0.23723215743E+02  0.89792567400E+01  0.25505334684E+02  0.00000000000E+00 0. -1.
         11    1    1    2    0    0 -0.16129947767E+02 -0.51753336771E+02 -0.72591833015E+02  0.90598881352E+02  0.00000000000E+00 0.  1.
</event>
<event>
 7    1  0.2384639E-009  0.1630082E+03  0.7561462E-02  0.1185342E+00
         -1   -1    0    0    0  501 -0.00000000000E+00  0.00000000000E+00  0.56627416193E+03  0.56627416193E+03  0.00000000000E+00 0.  1.
          1   -1    0    0  501    0  0.00000000000E+00 -0.00000000000E+00 -0.99851337807E+02  0.99851337807E+02  0.00000000000E+00 0. -1.
         25    2    1    2    0    0 -0.23426177316E+02 -0.12260403166E+03  0.13380490414E+01  0.17671386372E+03  0.12508183279E+03 0.  0.
          5    1    3    3  502    0  0.23180101995E+01 -0.14248581115E+03  0.96167711114E+01  0.14288993749E+03  0.41800000000E+01 0. -1.
         -5    1    3    3    0  502 -0.25744187515E+02  0.19881779490E+02 -0.82787220700E+01  0.33823926230E+02  0.41800000000E+01 0. -1.
        -11    1    1    2    0    0 -0.31730984388E+02  0.36106696305E+02  0.18457665770E+03  0.19073303714E+03  0.00000000000E+00 0. -1.
         11    1    1    2    0    0  0.55157161703E+02  0.86497335353E+02  0.28050811738E+03  0.29867859887E+03  0.00000000000E+00 0.  1.
</event>
<event>
 7    1  0.2384639E-009  0.8095330E+02  0.7561462E-02  0.1326368E+00
          3   -1    0    0  501    0  0.00000000000E+00  0.00000000000E+00  0.28466615304E+03  0.28466615304E+03  0.00000000000E+00 0. -1.
         -3   -1    0    0    0  501 -0.00000000000E+00 -0.00000000000E+00 -0.92446581634E+02  0.92446581634E+02  0.00000000000E+00 0.  1.
         25    2    1    2    0    0  0.29758435355E+02 -0.17716498476E+02 -0.31066240918E+02  0.13345092971E+03  0.12507837752E+03 0.  0.
          5    1    3    3  502    0 -0.30737125589E+02 -0.54636327334E+01 -0.57981357301E+02  0.65984334252E+02  0.41800000000E+01 0.  1.
         -5    1    3    3    0  502  0.60495560944E+02 -0.12252865742E+02  0.26915116383E+02  0.67466595458E+02  0.41800000000E+01 0.  1.
        -11    1    1    2    0    0  0.18036002481E+02  0.81933009939E+01  0.55979075148E+01  0.20585532182E+02  0.00000000000E+00 0.  1.
         11    1    1    2    0    0 -0.47794437835E+02  0.95231974820E+01  0.21768790481E+03  0.22307627278E+03  0.00000000000E+00 0. -1.
</event>
<event>
 7    1  0.2384639E-009  0.2470195E+03  0.7561462E-02  0.1115203E+00
          1   -1    0    0  501    0  0.00000000000E+00  0.00000000000E+00  0.18597217444E+04  0.18597217444E+04  0.00000000000E+00 0. -1.
         -1   -1    0    0    0  501 -0.00000000000E+00 -0.00000000000E+00 -0.66710072622E+02  0.66710072622E+02  0.00000000000E+00 0.  1.
         25    2    1    2    0    0  0.22539839361E+03 -0.29432491989E+02  0.15814709739E+04  0.16026128039E+04  0.12508657249E+03 0.  0.
          5    1    3    3  502    0  0.21407406969E+03 -0.56695833593E+02  0.14908251573E+04  0.15071891875E+04  0.41800000000E+01 0. -1.
         -5    1    3    3    0  502  0.11324323924E+02  0.27263341605E+02  0.90645816637E+02  0.95423616477E+02  0.41800000000E+01 0. -1.
        -11    1    1    2    0    0 -0.16657682611E+03 -0.17479073510E+02  0.12404859039E+03  0.20842602953E+03  0.00000000000E+00 0.  1.
         11    1    1    2    0    0 -0.58821567502E+02  0.46911565499E+02  0.87492107475E+02  0.11539298354E+03  0.00000000000E+00 0. -1.
</event>
<event>
 7    1  0.2384639E-009  0.1239092E+03  0.7561462E-02  0.1236784E+00
          3   -1    0    0  501    0  0.00000000000E+00  0.00000000000E+00  0.37895661660E+03  0.37895661660E+03  0.00000000000E+00 0. -1.
         -3   -1    0    0    0  501 -0.00000000000E+00 -0.00000000000E+00 -0.62083591297E+02  0.62083591297E+02  0.00000000000E+00 0.  1.
         25    2    1    2    0    0 -0.52187439611E+02  0.83190358740E+02  0.98794905880E+02  0.18722135144E+03  0.12508891384E+03 0.  0.
          5    1    3    3  502    0  0.66977910873E+01  0.67019950668E+02 -0.39800346582E+01  0.67600645477E+02  0.41800000000E+01 0.  1.
         -5    1    3    3    0  502 -0.58885230699E+02  0.16170408072E+02  0.10277494054E+03  0.11962070596E+03  0.41800000000E+01 0.  1.
        -11    1    1    2    0    0  0.68588868044E+02 -0.63173745670E+02  0.11771849894E+03  0.15017656260E+03  0.00000000000E+00 0.  1.
         11    1    1    2    0    0 -0.16401428433E+02 -0.20016613070E+02  0.10035962048E+03  0.10364229386E+03  0.00000000000E+00 0. -1.
</event>
<event>
 7    1  0.2384639E-009  0.2863206E+03  0.7561462E-02  0.1092286E+00
         -2   -1    0    0    0  501 -0.00000000000E+00  0.00000000000E+00  0.47428579162E+02  0.47428579162E+02  0.00000000000E+00 0.  1.
          2   -1    0    0  501    0  0.00000000000E+00 -0.00000000000E+00 -0.19040917308E+04  0.19040917308E+04  0.00000000000E+00 0. -1.
         25    2    1    2    0    0 -0.17885154573E+03  0.20979260146E+03 -0.78781648251E+03  0.84398351153E+03  0.12511013783E+03 0.  0.
          5    1    3    3  502    0 -0.11353914164E+03  0.68428053886E+02 -0.49314594602E+03  0.51067008109E+03  0.41800000000E+01 0. -1.
         -5    1    3    3    0  502 -0.65312404082E+02  0.14136454757E+03 -0.29467053649E+03  0.33331343044E+03  0.41800000000E+01 0. -1.
        -11    1    1    2    0    0  0.12126952628E+03 -0.89025810407E+02 -0.67582768034E+03  0.69236908252E+03  0.00000000000E+00 0.  1.
         11    1    1    2    0    0  0.57582019443E+02 -0.12076679105E+03 -0.39301898884E+03  0.41516771596E+03  0.00000000000E+00 0. -1.
</event>
<event>
 7    1  0.2384639E-009  0.3479696E+03  0.7561462E-02  0.1063452E+00
          2   -1    0    0  501    0  0.00000000000E+00  0.00000000000E+00  0.16713978601E+04  0.16713978601E+04  0.00000000000E+00 0. -1.
         -2   -1    0    0    0  501 -0.00000000000E+00 -0.00000000000E+00 -0.82173039067E+02  0.82173039067E+02  0.00000000000E+00 0.  1.
         25    2    1    2    0    0 -0.21270133103E+03  0.26089983974E+03  0.10656178173E+04  0.11244995827E+04  0.12508955341E+03 0.  0.
          5    1    3    3  502    0 -0.18626993500E+03  0.27227988905E+03  0.98641195872E+03  0.10401244403E+04  0.41800000000E+01 0. -1.
         -5    1    3    3    0  502 -0.26431396035E+02 -0.11380049310E+02  0.79205858555E+02  0.84375142359E+02  0.41800000000E+01 0. -1.
        -11    1    1    2    0    0  0.10859946060E+03 -0.14477371461E+03  0.19927401667E+03  0.26919027658E+03  0.00000000000E+00 0. -1.
         11    1    1    2    0    0  0.10410187043E+03 -0.11612612513E+03  0.32433298709E+03  0.35988103990E+03  0.00000000000E+00 0.  1.
</event>
<event>
 7    1  0.2384639E-009  0.1796805E+03  0.7561462E-02  0.1168113E+00
          2   -1    0    0  501    0  0.00000000000E+00  0.00000000000E+00  0.65766844878E+03  0.65766844878E+03  0.00000000000E+00 0. -1.
         -2   -1    0    0    0  501 -0.00000000000E+00 -0.00000000000E+00 -0.72255975488E+02  0.72255975488E+02  0.00000000000E+00 0.  1.
         25    2    1    2    0    0  0.17463703246E+03  0.37349954662E+02  0.20690156062E+03  0.30057951201E+03  0.12508667010E+03 0.  0.
          5    1    3    3  502    0  0.91928167814E+02  0.22148548401E+02  0.19338183968E+03  0.21530293670E+03  0.41800000000E+01 0.  1.
         -5    1    3    3    0  502  0.82708864646E+02  0.15201406261E+02  0.13519720941E+02  0.85276575316E+02  0.41800000000E+01 0.  1.
        -11    1    1    2    0    0 -0.10817577892E+03 -0.36094767485E+02  0.32366151902E+03  0.34316411567E+03  0.00000000000E+00 0. -1.
         11    1    1    2    0    0 -0.66461253539E+02 -0.12551871767E+01  0.54849393653E+02  0.86180796590E+02  0.00000000000E+00 0.  1.
</event>
<event>
 7    1  0.2384639E-009  0.1169802E+03  0.7561462E-02  0.1248164E+00
         -2   -1    0    0    0  501 -0.00000000000E+00  0.00000000000E+00  0.56821176228E+02  0.56821176228E+02  0.00000000000E+00 0.  1.
          2   -1    0    0  501    0  0.00000000000E+00 -0.00000000000E+00 -0.47595327046E+03  0.47595327046E+03  0.00000000000E+00 0. -1.
         25    2    1    2    0    0  0.88452196723E+01 -0.91615009755E+02 -0.35704521507E+03  0.38935880320E+03  0.12508974418E+03 0.  0.
          5    1    3    3  502    0 -0.32092053544E+02 -0.18163181440E+02 -0.20407864964E+02  0.42352737964E+02  0.41800000000E+01 0. -1.
         -5    1    3    3    0  502  0.40937273216E+02 -0.73451828315E+02 -0.33663735011E+03  0.34700606523E+03  0.41800000000E+01 0. -1.
        -11    1    1    2    0    0  0.26630628836E+02  0.57825620207E+02  0.83633046283E+00  0.63668612307E+02  0.00000000000E+00 0.  1.
         11    1    1    2    0    0 -0.35475848508E+02  0.33789389548E+02 -0.62923209629E+02  0.79747031189E+02  0.00000000000E+00 0. -1.
</event>
<event>
 7    1  0.2384639E-009  0.1354863E+03  0.7561462E-02  0.1219535E+00
         -2   -1    0    0    0  501 -0.00000000000E+00  0.00000000000E+00  0.35395100919E+02  0.35395100919E+02  0.00000000000E+00 0.  1.
          2   -1    0    0  501    0  0.00000000000E+00 -0.00000000000E+00 -0.69455114777E+03  0.69455114777E+03  0.00000000000E+00 0. -1.
         25    2    1    2    0    0 -0.98454856461E+02  0.31085863476E+02 -0.24395322629E+03  0.29295127650E+03  0.12509030384E+03 0.  0.
          5    1    3    3  502    0 -0.81366121117E+02  0.63965083555E+02 -0.23153291331E+03  0.25364727463E+03  0.41800000000E+01 0. -1.
         -5    1    3    3    0  502 -0.17088735343E+02 -0.32879220078E+02 -0.12420312980E+02  0.39304001871E+02  0.41800000000E+01 0. -1.
        -11    1    1    2    0    0  0.11191200482E+03 -0.22543394492E+02 -0.39553017565E+03  0.41167538341E+03  0.00000000000E+00 0. -1.
         11    1    1    2    0    0 -0.13457148356E+02 -0.85424689849E+01 -0.19672644918E+02  0.25319588786E+02  0.00000000000E+00 0.  1.
</event>
<event>
 7    1  0.2384639E-009  0.1120613E+03  0.7561462E-02  0.1256800E+00
         -2   -1    0    0    0  501 -0.00000000000E+00  0.00000000000E+00  0.30692053934E+02  0.30692053934E+02  0.00000000000E+00 0.  1.
          2   -1    0    0  501    0  0.00000000000E+00 -0.00000000000E+00 -0.56942681275E+03  0.56942681275E+03  0.00000000000E+00 0. -1.
         25    2    1    2    0    0  0.16547508678E+02 -0.73012446982E+02 -0.27013833577E+03  0.30696387372E+03  0.12508981517E+03 0.  0.
          5    1    3    3  502    0  0.14425198191E+02  0.18339846471E+02 -0.16876516873E+03  0.17042180285E+03  0.41800000000E+01 0.  1.
         -5    1    3    3    0  502  0.21223104874E+01 -0.91352293453E+02 -0.10137316704E+03  0.13654207087E+03  0.41800000000E+01 0.  1.
        -11    1    1    2    0    0  0.32149608085E+02  0.29993415004E+02 -0.58123119149E+02  0.72880033090E+02  0.00000000000E+00 0. -1.
         11    1    1    2    0    0 -0.48697116764E+02  0.43019031978E+02 -0.21047330389E+03  0.22027495987E+03  0.00000000000E+00 0.  1.
</event>
<event>
 7    1  0.2384639E-009  0.1242420E+03  0.7561462E-02  0.1236259E+00
          1   -1    0    0  501    0  0.00000000000E+00  0.00000000000E+00  0.11169217779E+03  0.11169217779E+03  0.00000000000E+00 0. -1.
         -1   -1    0    0    0  501 -0.00000000000E+00 -0.00000000000E+00 -0.29825675708E+03  0.29825675708E+03  0.00000000000E+00 0.  1.
         25    2    1    2    0    0  0.10064081879E+03  0.39483737371E+01  0.21459522839E+02  0.16202535399E+03  0.12509012812E+03 0.  0.
          5    1    3    3  502    0  0.24457946189E+02 -0.22908191207E+02  0.62712206195E+02  0.71226887915E+02  0.41800000000E+01 0. -1.
         -5    1    3    3    0  502  0.76182872597E+02  0.26856564944E+02 -0.41252683357E+02  0.90798466077E+02  0.41800000000E+01 0. -1.
        -11    1    1    2    0    0 -0.83478785121E+01  0.33278265347E+02 -0.40599229761E+02  0.53154750280E+02  0.00000000000E+00 0. -1.
         11    1    1    2    0    0 -0.92292940275E+02 -0.37226639084E+02 -0.16742487237E+03  0.19476883059E+03  0.00000000000E+00 0.  1.
</event>
<event>
 7    1  0.2384639E-009  0.1223645E+03  0.7561462E-02  0.1239247E+00
         -2   -1    0    0    0  501 -0.00000000000E+00  0.00000000000E+00  0.29735443734E+02  0.29735443734E+02  0.00000000000E+00 0.  1.
          2   -1    0    0  501    0  0.00000000000E+00 -0.00000000000E+00 -0.83598603434E+03  0.83598603434E+03  0.00000000000E+00 0. -1.
         25    2    1    2    0    0 -0.91685233803E+02  0.15420141567E+02 -0.61248534488E+03  0.63200485469E+03  0.12509146971E+03 0.  0.
          5    1    3    3  502    0 -0.75025997982E+02  0.42630100878E+02 -0.57957278395E+03  0.58597637339E+03  0.41800000000E+01 0.  1.
         -5    1    3    3    0  502 -0.16659235821E+02 -0.27209959311E+02 -0.32912560932E+02  0.46028481302E+02  0.41800000000E+01 0.  1.
        -11    1    1    2    0    0  0.64223149828E+02 -0.50434802652E+02 -0.94248523815E+02  0.12470391547E+03  0.00000000000E+00 0.  1.
         11    1    1    2    0    0  0.27462083975E+02  0.35014661085E+02 -0.99516721914E+02  0.10901270792E+03  0.00000000000E+00 0. -1.
</event>
<event>
 7    1  0.2384639E-009  0.1089352E+03  0.7561462E-02  0.1262554E+00
         -2   -1    0    0    0  501 -0.00000000000E+00  0.00000000000E+00  0.12615226699E+03  0.12615226699E+03  0.00000000000E+00 0.  1.
          2   -1    0    0  501    0  0.00000000000E+00 -0.00000000000E+00 -0.15895149192E+03  0.15895149192E+03  0.00000000000E+00 0. -1.
         25    2    1    2    0    0 -0.31002017318E+02 -0.34688032333E+02 -0.96863633221E+02  0.16491029612E+03  0.12509379546E+03 0.  0.
          5    1    3    3  502    0 -0.72221074710E+02 -0.63532640879E+01 -0.87739950688E+02  0.11389477136E+03  0.41800000000E+01 0. -1.
         -5    1    3    3    0  502  0.41219057392E+02 -0.28334768245E+02 -0.91236825329E+01  0.51015524762E+02  0.41800000000E+01 0. -1.
        -11    1    1    2    0    0  0.58695008101E+02  0.32946068834E+02  0.63356105620E+02  0.92436700216E+02  0.00000000000E+00 0.  1.
         11    1    1    2    0    0 -0.27692990783E+02  0.17419634991E+01  0.70830267076E+00  0.27756762564E+02  0.00000000000E+00 0. -1.
</event>
<event>
 7    1  0.2384639E-009  0.1275770E+03  0.7561462E-02  0.1231096E+00
         -2   -1    0    0    0  501 -0.00000000000E+00  0.00000000000E+00  0.20261773177E+02  0.20261773177E+02  0.00000000000E+00 0.  1.
          2   -1    0    0  501    0  0.00000000000E+00 -0.00000000000E+00 -0.92680371384E+03  0.92680371384E+03  0.00000000000E+00 0. -1.
         25    2    1    2    0    0  0.19536799076E+02  0.79965021715E+02 -0.54900623143E+03  0.56906194637E+03  0.12509022920E+03 0.  0.
          5    1    3    3  502    0  0.62802473973E+02  0.63727736217E+02 -0.46049846089E+03  0.46912863905E+03  0.41800000000E+01 0. -1.
         -5    1    3    3    0  502 -0.43265674897E+02  0.16237285498E+02 -0.88507770542E+02  0.99933307316E+02  0.41800000000E+01 0. -1.
        -11    1    1    2    0    0 -0.52996432368E+02 -0.36584780542E+02 -0.23715330333E+03  0.24574124052E+03  0.00000000000E+00 0. -1.
         11    1    1    2    0    0  0.33459633292E+02 -0.43380241172E+02 -0.12038240590E+03  0.13226230012E+03  0.00000000000E+00 0.  1.
</event>
<event>
 7    1  0.2384639E-009  0.1263034E+03  0.7561462E-02  0.1233046E+00
          2   -1    0    0  501    0  0.00000000000E+00  0.00000000000E+00  0.29655783084E+03  0.29655783084E+03  0.00000000000E+00 0. -1.
         -2   -1    0    0    0  501 -0.00000000000E+00 -0.00000000000E+00 -0.70322148786E+02  0.70322148786E+02  0.00000000000E+00 0.  1.
         25    2    1    2    0    0  0.37590429308E+02  0.85440213119E+02  0.14412047811E+03  0.21244517319E+03  0.12509663868E+03 0.  0.
          5    1    3    3  502    0 -0.11245087210E+02 -0.18295924747E+02 -0.67582544016E+01  0.22898455215E+02  0.41800000000E+01 0. -1.
         -5    1    3    3    0  502  0.48835516518E+02  0.10373613787E+03  0.15087873251E+03  0.18954671798E+03  0.41800000000E+01 0. -1.
        -11    1    1    2    0    0  0.18092551669E+02 -0.40788283544E+02  0.68533085511E+02  0.81779021210E+02  0.00000000000E+00 0. -1.
         11    1    1    2    0    0 -0.55682980978E+02 -0.44651929575E+02  0.13582118437E+02  0.72655785224E+02  0.00000000000E+00 0.  1.
</event>
<event>
 7    1  0.2384639E-009  0.1638581E+03  0.7561462E-02  0.1184409E+00
          1   -1    0    0  501    0  0.00000000000E+00  0.00000000000E+00  0.81478459120E+03  0.81478459120E+03  0.00000000000E+00 0. -1.
         -1   -1    0    0    0  501 -0.00000000000E+00 -0.00000000000E+00 -0.42987578179E+02  0.42987578179E+02  0.00000000000E+00 0.  1.
         25    2    1    2    0    0  0.68101062866E+02 -0.13427009668E+03  0.46177852545E+03  0.50155054457E+03  0.12508928237E+03 0.  0.
          5    1    3    3  502    0  0.78871561441E+02 -0.63422577814E+02  0.37745587588E+03  0.39081140876E+03  0.41800000000E+01 0. -1.
         -5    1    3    3    0  502 -0.10770498575E+02 -0.70847518866E+02  0.84322649573E+02  0.11073913581E+03  0.41800000000E+01 0. -1.
        -11    1    1    2    0    0 -0.68990149391E+02  0.10674576294E+03  0.30181779712E+03  0.32748783378E+03  0.00000000000E+00 0. -1.
         11    1    1    2    0    0  0.88908652519E+00  0.27524333741E+02  0.82006904487E+01  0.28733791024E+02  0.00000000000E+00 0.  1.
</event>
<event>
 7    1  0.2384639E-009  0.1750053E+03  0.7561462E-02  0.1172726E+00
          2   -1    0    0  501    0  0.00000000000E+00  0.00000000000E+00  0.97848086391E+03  0.97848086391E+03  0.00000000000E+00 0. -1.
         -2   -1    0    0    0  501 -0.00000000000E+00 -0.00000000000E+00 -0.48537412146E+02  0.48537412146E+02  0.00000000000E+00 0.  1.
         25    2    1    2    0    0 -0.93884132402E+02 -0.14021257996E+03  0.67968185997E+03  0.71139993361E+03  0.12509451176E+03 0.  0.
          5    1    3    3  502    0 -0.36542533425E+02 -0.92659318943E+02  0.57059166340E+03  0.57923520687E+03  0.41800000000E+01 0.  1.
         -5    1    3    3    0  502 -0.57341598977E+02 -0.47553261017E+02  0.10909019657E+03  0.13216472674E+03  0.41800000000E+01 0.  1.
        -11    1    1    2    0    0  0.43311679169E+02  0.10638545882E+03  0.21881105341E+03  0.24712758748E+03  0.00000000000E+00 0. -1.
         11    1    1    2    0    0  0.50572453233E+02  0.33827121141E+02  0.31450538380E+02  0.68490754961E+02  0.00000000000E+00 0.  1.
</event>
<event>
 7    1  0.2384639E-009  0.1106157E+03  0.7561462E-02  0.1259434E+00
         -3   -1    0    0    0  501 -0.00000000000E+00  0.00000000000E+00  0.21996630794E+03  0.21996630794E+03  0.00000000000E+00 0.  1.
          3   -1    0    0  501    0  0.00000000000E+00 -0.00000000000E+00 -0.67273552682E+02  0.67273552682E+02  0.00000000000E+00 0. -1.
         25    2    1    2    0    0  0.33259465128E+02 -0.28102207553E+02  0.99104654729E+02  0.16542654033E+03  0.12509309160E+03 0.  0.
          5    1    3    3  502    0  0.19700024728E+02 -0.71627751270E+02  0.25323186501E+02  0.78596195206E+02  0.41800000000E+01 0. -1.
         -5    1    3    3    0  502  0.13559440400E+02  0.43525543718E+02  0.73781468229E+02  0.86830345121E+02  0.41800000000E+01 0. -1.
        -11    1    1    2    0    0 -0.54376090252E+02  0.47628356418E+02  0.58048912949E+02  0.92708660980E+02  0.00000000000E+00 0.  1.
         11    1    1    2    0    0  0.21116625124E+02 -0.19526148866E+02 -0.44608124227E+01  0.29104659311E+02  0.00000000000E+00 0. -1.
</event>
<event>
 7    1  0.2552495E-009  0.2040971E+03  0.7561462E-02  0.1146328E+00
         -1   -1    0    0    0  501 -0.00000000000E+00  0.00000000000E+00  0.18538474094E+03  0.18538474094E+03  0.00000000000E+00 0.  1.
          1   -1    0    0  501    0  0.00000000000E+00 -0.00000000000E+00 -0.31107324000E+03  0.31107324000E+03  0.00000000000E+00 0. -1.
         25    2    1    2    0    0  0.37578279040E+02 -0.16904035979E+03  0.65172775729E+02  0.22334268977E+03  0.12509075139E+03 0.  0.
          5    1    3    3  502    0  0.14706459802E+02 -0.18443018162E+03  0.50471685988E+02  0.19182188441E+03  0.41800000000E+01 0.  1.
         -5    1    3    3    0  502  0.22871819237E+02  0.15389821828E+02  0.14701089741E+02  0.31520805362E+02  0.41800000000E+01 0.  1.
        -11    1    1    2    0    0  0.29590514646E+02  0.64878615126E+02 -0.65379231817E+02  0.96743357450E+02  0.00000000000E+00 0.  1.
         11    1    1    2    0    0 -0.67168793686E+02  0.10416174466E+03 -0.12548204298E+03  0.17637193372E+03  0.00000000000E+00 0. -1.
</event>
<event>
 7    1  0.2384639E-009  0.6283446E+02  0.7561462E-02  0.1386308E+00
         -3   -1    0    0    0  501 -0.00000000000E+00  0.00000000000E+00  0.46333652934E+03  0.46333652934E+03  0.00000000000E+00 0.  1.
          3   -1    0    0  501    0  0.00000000000E+00 -0.00000000000E+00 -0.28301675836E+02  0.28301675836E+02  0.00000000000E+00 0. -1.
         25    2    1    2    0    0 -0.34341920626E+02  0.14405915972E+02  0.25584060207E+03  0.28720956679E+03  0.12509206074E+03 0.  0.
          5    1    3    3  502    0 -0.23210474743E+02 -0.10159008064E+02  0.25851524552E+03  0.25978748266E+03  0.41800000000E+01 0.  1.
         -5    1    3    3    0  502 -0.11131445883E+02  0.24564924035E+02 -0.26746434498E+01  0.27422084127E+02  0.41800000000E+01 0.  1.
        -11    1    1    2    0    0  0.19548937950E+02  0.24343718065E+02  0.15119615463E+03  0.15438605753E+03  0.00000000000E+00 0.  1.
         11    1    1    2    0    0  0.14792982675E+02 -0.38749634036E+02  0.27998096810E+02  0.50042580862E+02  0.00000000000E+00 0. -1.
</event>
<event>
 7    1  0.2384639E-009  0.1033680E+03  0.7561462E-02  0.1273369E+00
          2   -1    0    0  501    0  0.00000000000E+00  0.00000000000E+00  0.10286086993E+04  0.10286086993E+04  0.00000000000E+00 0. -1.
         -2   -1    0    0    0  501 -0.00000000000E+00 -0.00000000000E+00 -0.14039970452E+02  0.14039970452E+02  0.00000000000E+00 0.  1.
         25    2    1    2    0    0  0.29416998542E+02 -0.20745838265E+02  0.48254364317E+03  0.49979148002E+03  0.12508959323E+03 0.  0.
          5    1    3    3  502    0 -0.20309750458E+02 -0.41390060196E+02  0.38926317972E+03  0.39200627359E+03  0.41800000000E+01 0. -1.
         -5    1    3    3    0  502  0.49726749000E+02  0.20644221932E+02  0.93280463450E+02  0.10778520644E+03  0.41800000000E+01 0. -1.
        -11    1    1    2    0    0 -0.53920281013E+02 -0.21136530614E+02  0.33325895043E+03  0.33825386572E+03  0.00000000000E+00 0. -1.
         11    1    1    2    0    0  0.24503282471E+02  0.41882368878E+02  0.19876613526E+03  0.20460332403E+03  0.00000000000E+00 0.  1.
</event>
<event>
 7    1  0.2384639E-009  0.7115093E+02  0.7561462E-02  0.1356222E+00
         -2   -1    0    0    0  501 -0.00000000000E+00  0.00000000000E+00  0.16241957873E+03  0.16241957873E+03  0.00000000000E+00 0. -1.
          2   -1    0    0  501    0  0.00000000000E+00 -0.00000000000E+00 -0.10843421277E+03  0.10843421277E+03  0.00000000000E+00 0.  1.
         25    2    1    2    0    0 -0.26521584748E+02  0.24176442210E+02  0.95354470152E+02  0.16133191703E+03  0.12509043792E+03 0.  0.
          5    1    3    3  502    0 -0.59517151519E+01 -0.10972292846E+02 -0.28227134446E+02  0.31145748387E+02  0.41800000000E+01 0. -1.
         -5    1    3    3    0  502 -0.20569869596E+02  0.35148735056E+02  0.12358160460E+03  0.13018616864E+03  0.41800000000E+01 0. -1.
        -11    1    1    2    0    0 -0.27230500152E+02 -0.20937127904E+02 -0.43745897366E+02  0.55619843579E+02  0.00000000000E+00 0.  1.
         11    1    1    2    0    0  0.53752084900E+02 -0.32393143068E+01  0.23767931817E+01  0.53902030890E+02  0.00000000000E+00 0. -1.
</event>
<event>
 7    1  0.2384639E-009  0.1239115E+03  0.7561462E-02  0.1236780E+00
          2   -1    0    0  501    0  0.00000000000E+00  0.00000000000E+00  0.54281330737E+02  0.54281330737E+02  0.00000000000E+00 0. -1.
         -2   -1    0    0    0  501 -0.00000000000E+00 -0.00000000000E+00 -0.35934027462E+03  0.35934027462E+03  0.00000000000E+00 0.  1.
         25    2    1    2    0    0 -0.54275456919E+02 -0.64492067816E+02 -0.14267727279E+03  0.20762874704E+03  0.12509132821E+03 0.  0.
          5    1    3    3  502    0  0.34248483324E+02  0.68998508410E+01 -0.20768583991E+02  0.40857961680E+02  0.41800000000E+01 0.  1.
         -5    1    3    3    0  502 -0.88523940243E+02 -0.71391918657E+02 -0.12190868880E+03  0.16677078536E+03  0.41800000000E+01 0.  1.
        -11    1    1    2    0    0  0.31593642911E+01  0.43439377976E+02 -0.13953788770E+03  0.14617723231E+03  0.00000000000E+00 0.  1.
         11    1    1    2    0    0  0.51116092628E+02  0.21052689840E+02 -0.22843783396E+02  0.59815626009E+02  0.00000000000E+00 0. -1.
</event>
<event>
 7    1  0.2384639E-009  0.2480792E+03  0.7561462E-02  0.1114525E+00
         -2   -1    0    0    0  501 -0.00000000000E+00  0.00000000000E+00  0.18781366745E+03  0.18781366745E+03  0.00000000000E+00 0. -1.
          2   -1    0    0  501    0  0.00000000000E+00 -0.00000000000E+00 -0.60717972964E+03  0.60717972964E+03  0.00000000000E+00 0.  1.
         25    2    1    2    0    0  0.92639902800E+02  0.21953857179E+03 -0.46385929359E+03  0.53627678321E+03  0.12509199758E+03 0.  0.
          5    1    3    3  502    0  0.81770177116E+02  0.10198092606E+03 -0.14018285270E+03  0.19171639402E+03  0.41800000000E+01 0. -1.
         -5    1    3    3    0  502  0.10869725684E+02  0.11755764573E+03 -0.32367644089E+03  0.34456038918E+03  0.41800000000E+01 0. -1.
        -11    1    1    2    0    0  0.10485369340E+02 -0.23562979781E+02  0.25794154361E+02  0.36475956266E+02  0.00000000000E+00 0. -1.
         11    1    1    2    0    0 -0.10312527214E+03 -0.19597559201E+03  0.18699077046E+02  0.22224065762E+03  0.00000000000E+00 0.  1.
</event>
<event>
 7    1  0.2384639E-009  0.9570065E+02  0.7561462E-02  0.1289606E+00
         -2   -1    0    0    0  501 -0.00000000000E+00  0.00000000000E+00  0.28382382903E+02  0.28382382903E+02  0.00000000000E+00 0.  1.
          2   -1    0    0  501    0  0.00000000000E+00 -0.00000000000E+00 -0.70022137536E+03  0.70022137536E+03  0.00000000000E+00 0. -1.
         25    2    1    2    0    0 -0.33363350623E+02  0.88936405394E+02 -0.43480152033E+03  0.46230098666E+03  0.12508814019E+03 0.  0.
          5    1    3    3  502    0 -0.24921083406E+02  0.64717935956E+02 -0.77606472927E+02  0.10416193486E+03  0.41800000000E+01 0.  1.
         -5    1    3    3    0  502 -0.84422672170E+01  0.24218469438E+02 -0.35719504741E+03  0.35813905181E+03  0.41800000000E+01 0.  1.
        -11    1    1    2    0    0  0.16829187701E+02 -0.62766305897E+02 -0.66501359812E+02  0.92979898749E+02  0.00000000000E+00 0.  1.
         11    1    1    2    0    0  0.16534162922E+02 -0.26170099497E+02 -0.17053611231E+03  0.17332287285E+03  0.00000000000E+00 0. -1.
</event>
<event>
 7    1  0.3313170E-009  0.1416304E+03  0.7561462E-02  0.1211152E+00
          2   -1    0    0  501    0  0.00000000000E+00  0.00000000000E+00  0.96355728366E+03  0.96355728366E+03  0.00000000000E+00 0. -1.
         -2   -1    0    0    0  501 -0.00000000000E+00 -0.00000000000E+00 -0.26685701149E+02  0.26685701149E+02  0.00000000000E+00 0.  1.
         25    2    1    2    0    0  0.72219458380E+02  0.58493407413E+02  0.72388408548E+03  0.74046804988E+03  0.12509050644E+03 0.  0.
          5    1    3    3  502    0  0.10728214969E+03  0.52001227974E+02  0.52653982949E+03  0.53988448005E+03  0.41800000000E+01 0. -1.
         -5    1    3    3    0  502 -0.35062691311E+02  0.64921794396E+01  0.19734425599E+03  0.20058356983E+03  0.41800000000E+01 0. -1.
        -11    1    1    2    0    0 -0.21576284431E+02 -0.72399552436E+02  0.14846693319E+03  0.16658229646E+03  0.00000000000E+00 0. -1.
         11    1    1    2    0    0 -0.50643173949E+02  0.13906145022E+02  0.64520563831E+02  0.83192638461E+02  0.00000000000E+00 0.  1.
</event>
<event>
 7    1  0.2384639E-009  0.1282913E+03  0.7561462E-02  0.1230013E+00
         -2   -1    0    0    0  501 -0.00000000000E+00  0.00000000000E+00  0.41062905180E+02  0.41062905180E+02  0.00000000000E+00 0.  1.
          2   -1    0    0  501    0  0.00000000000E+00 -0.00000000000E+00 -0.89694135700E+03  0.89694135700E+03  0.00000000000E+00 0. -1.
         25    2    1    2    0    0  0.75200440393E+02  0.98786020801E+02 -0.68604763559E+03  0.70832214841E+03  0.12508046803E+03 0.  0.
          5    1    3    3  502    0 -0.32284655612E+01  0.47721708188E+01  0.35315279930E+01  0.79461118900E+01  0.41800000000E+01 0. -1.
         -5    1    3    3    0  502  0.78428905954E+02  0.94013849982E+02 -0.68957916359E+03  0.70037603652E+03  0.41800000000E+01 0. -1.
        -11    1    1    2    0    0 -0.39060711814E+01 -0.21343133701E+02  0.79228065364E+01  0.23098866026E+02  0.00000000000E+00 0.  1.
         11    1    1    2    0    0 -0.71294369212E+02 -0.77442887100E+02 -0.17775362276E+03  0.20658324774E+03  0.00000000000E+00 0. -1.
</event>
<event>
 7    1  0.2384639E-009  0.1014014E+03  0.7561462E-02  0.1277376E+00
          3   -1    0    0  501    0  0.00000000000E+00  0.00000000000E+00  0.21505971291E+03  0.21505971291E+03  0.00000000000E+00 0. -1.
         -3   -1    0    0    0  501 -0.00000000000E+00 -0.00000000000E+00 -0.65111581554E+02  0.65111581554E+02  0.00000000000E+00 0.  1.
         25    2    1    2    0    0 -0.72515515297E+01 -0.46831941581E+02  0.98962421406E+02  0.16639460452E+03  0.12509111803E+03 0.  0.
          5    1    3    3  502    0  0.57516943873E+02 -0.35910078748E+02  0.51547320539E+02  0.85277964580E+02  0.41800000000E+01 0.  1.
         -5    1    3    3    0  502 -0.64768495403E+02 -0.10921862833E+02  0.47415100867E+02  0.81116639938E+02  0.41800000000E+01 0.  1.
        -11    1    1    2    0    0  0.25590087175E+02  0.92077603494E+01 -0.18335272638E+02  0.32799659068E+02  0.00000000000E+00 0.  1.
         11    1    1    2    0    0 -0.18338535645E+02  0.37624181231E+02  0.69320982593E+02  0.80977030883E+02  0.00000000000E+00 0. -1.
</event>
<event>
 7    1  0.2384639E-009  0.1263829E+03  0.7561462E-02  0.1232924E+00
         -2   -1    0    0    0  501 -0.00000000000E+00  0.00000000000E+00  0.53565027913E+03  0.53565027913E+03  0.00000000000E+00 0. -1.
          2   -1    0    0  501    0  0.00000000000E+00 -0.00000000000E+00 -0.35606757540E+02  0.35606757540E+02  0.00000000000E+00 0.  1.
         25    2    1    2    0    0 -0.31755474726E+02  0.77625865554E+02  0.31582221508E+03  0.34989044651E+03  0.12508184457E+03 0.  0.
          5    1    3    3  502    0  0.41307677078E+02  0.19264252924E+02  0.48653335669E+02  0.66798615989E+02  0.41800000000E+01 0. -1.
         -5    1    3    3    0  502 -0.73063151803E+02  0.58361612630E+02  0.26716887941E+03  0.28309183052E+03  0.41800000000E+01 0. -1.
        -11    1    1    2    0    0 -0.25207126531E+02 -0.29651009526E+02  0.26903924055E+02  0.47311760942E+02  0.00000000000E+00 0.  1.
         11    1    1    2    0    0  0.56962601257E+02 -0.47974856028E+02  0.15731738245E+03  0.17405482922E+03  0.00000000000E+00 0. -1.
</event>
<event>
 7    1  0.2384639E-009  0.2283342E+03  0.7561462E-02  0.1127818E+00
         -2   -1    0    0    0  501 -0.00000000000E+00  0.00000000000E+00  0.54991257225E+02  0.54991257225E+02  0.00000000000E+00 0.  1.
          2   -1    0    0  501    0  0.00000000000E+00 -0.00000000000E+00 -0.10756472021E+04  0.10756472021E+04  0.00000000000E+00 0. -1.
         25    2    1    2    0    0 -0.23346487321E+02 -0.20480499292E+03 -0.36678938728E+03  0.43894422422E+03  0.12508970285E+03 0.  0.
          5    1    3    3  502    0 -0.18366990783E+02 -0.21988843174E+03 -0.35733417589E+03  0.41999220757E+03  0.41800000000E+01 0.  1.
         -5    1    3    3    0  502 -0.49794965381E+01  0.15083438824E+02 -0.94552113995E+01  0.18952016651E+02  0.41800000000E+01 0.  1.
        -11    1    1    2    0    0 -0.27403137439E+02  0.56349402815E+02 -0.12171050782E+03  0.13689278598E+03  0.00000000000E+00 0.  1.
         11    1    1    2    0    0  0.50749624760E+02  0.14845559010E+03 -0.53215604977E+03  0.55480144912E+03  0.00000000000E+00 0. -1.
</event>
<event>
 7    1  0.2384639E-009  0.6676636E+02  0.7561462E-02  0.1371448E+00
          2   -1    0    0  501    0  0.00000000000E+00  0.00000000000E+00  0.15987829343E+03  0.15987829343E+03  0.00000000000E+00 0. -1.
         -2   -1    0    0    0  501 -0.00000000000E+00 -0.00000000000E+00 -0.84573513006E+02  0.84573513006E+02  0.00000000000E+00 0.  1.
         25    2    1    2    0    0  0.16806872115E+02  0.40403480881E+02  0.25692176753E+02  0.13498651263E+03  0.12508540454E+03 0.  0.
          5    1    3    3  502    0  0.29638365604E+02  0.20024172992E+02 -0.46473787989E+02  0.58793584597E+02  0.41800000000E+01 0.  1.
         -5    1    3    3    0  502 -0.12831493489E+02  0.20379307889E+02  0.72165964742E+02  0.76192928034E+02  0.41800000000E+01 0.  1.
        -11    1    1    2    0    0 -0.21482188010E+02 -0.54311290265E+02  0.71090048120E+00  0.58409811089E+02  0.00000000000E+00 0.  1.
         11    1    1    2    0    0  0.46753158946E+01  0.13907809383E+02  0.48901703188E+02  0.51055482715E+02  0.00000000000E+00 0. -1.
</event>
<event>
 7    1  0.2384639E-009  0.9462099E+02  0.7561462E-02  0.1292032E+00
          2   -1    0    0  501    0  0.00000000000E+00  0.00000000000E+00  0.51162620151E+03  0.51162620151E+03  0.00000000000E+00 0. -1.
         -2   -1    0    0    0  501 -0.00000000000E+00 -0.00000000000E+00 -0.26106993642E+02  0.26106993642E+02  0.00000000000E+00 0.  1.
         25    2    1    2    0    0 -0.15632969859E+02 -0.33704948131E+02  0.27390873066E+03  0.30340341456E+03  0.12508887227E+03 0.  0.
          5    1    3    3  502    0 -0.52089562585E+02 -0.22238938581E+01  0.23665724155E+03  0.24236829540E+03  0.41800000000E+01 0. -1.
         -5    1    3    3    0  502  0.36456592726E+02 -0.31481054273E+02  0.37251489101E+02  0.61035119166E+02  0.41800000000E+01 0. -1.
        -11    1    1    2    0    0  0.19383567215E+02 -0.23950493101E+02  0.27267289077E+02  0.41144305212E+02  0.00000000000E+00 0.  1.
         11    1    1    2    0    0 -0.37505973552E+01  0.57655441232E+02  0.18434318814E+03  0.19318547538E+03  0.00000000000E+00 0. -1.
</event>
<event>
 7    1  0.2384639E-009  0.1043525E+03  0.7561462E-02  0.1271401E+00
          2   -1    0    0  501    0  0.00000000000E+00  0.00000000000E+00  0.12086433291E+04  0.12086433291E+04  0.00000000000E+00 0. -1.
         -2   -1    0    0    0  501 -0.00000000000E+00 -0.00000000000E+00 -0.21313052627E+02  0.21313052627E+02  0.00000000000E+00 0.  1.
         25    2    1    2    0    0  0.95172434349E+01  0.45389962344E+02  0.10507105258E+04  0.10591458686E+04  0.12508611105E+03 0.  0.
          5    1    3    3  502    0  0.27449762081E+02  0.84806378781E+02  0.65491753410E+03  0.66096903119E+03  0.41800000000E+01 0. -1.
         -5    1    3    3    0  502 -0.17932518647E+02 -0.39416416437E+02  0.39579299175E+03  0.39817683738E+03  0.41800000000E+01 0. -1.
        -11    1    1    2    0    0 -0.26800235205E+02 -0.51150365040E+02  0.34901820017E+02  0.67474065323E+02  0.00000000000E+00 0.  1.
         11    1    1    2    0    0  0.17282991770E+02  0.57604026958E+01  0.10171793062E+03  0.10333644784E+03  0.00000000000E+00 0. -1.
</event>
<event>
 7    1  0.2384639E-009  0.1559864E+03  0.7561462E-02  0.1193304E+00
          4   -1    0    0  501    0  0.00000000000E+00  0.00000000000E+00  0.42315678857E+02  0.42315678857E+02  0.00000000000E+00 0. -1.
         -4   -1    0    0    0  501 -0.00000000000E+00 -0.00000000000E+00 -0.70404119771E+03  0.70404119771E+03  0.00000000000E+00 0.  1.
         25    2    1    2    0    0  0.75065837142E+02  0.84850763290E+02 -0.19757324769E+03  0.25984897123E+03  0.12510702502E+03 0.  0.
          5    1    3    3  502    0  0.64039607545E+02  0.11623149352E+03 -0.17398529175E+03  0.21885882565E+03  0.41800000000E+01 0. -1.
         -5    1    3    3    0  502  0.11026229597E+02 -0.31380730228E+02 -0.23587955935E+02  0.40990145571E+02  0.41800000000E+01 0. -1.
        -11    1    1    2    0    0 -0.94218737534E+02 -0.51906323869E+02 -0.33446977927E+03  0.35134238316E+03  0.00000000000E+00 0.  1.
         11    1    1    2    0    0  0.19152900392E+02 -0.32944439421E+02 -0.12968249190E+03  0.13516552219E+03  0.00000000000E+00 0. -1.
</event>
<event>
 7    1  0.2384639E-009  0.3248684E+03  0.7561462E-02  0.1073430E+00
          2   -1    0    0  501    0  0.00000000000E+00  0.00000000000E+00  0.18024223112E+04  0.18024223112E+04  0.00000000000E+00 0. -1.
         -2   -1    0    0    0  501 -0.00000000000E+00 -0.00000000000E+00 -0.60945233611E+02  0.60945233611E+02  0.00000000000E+00 0.  1.
         25    2    1    2    0    0 -0.28293585691E+03 -0.12170208713E+03  0.10126720709E+04  0.10658409430E+04  0.12509234811E+03 0.  0.
          5    1    3    3  502    0 -0.23660845809E+03 -0.48127785097E+02  0.81087700729E+03  0.84607259706E+03  0.41800000000E+01 0. -1.
         -5    1    3    3    0  502 -0.46327398823E+02 -0.73574302035E+02  0.20179506357E+03  0.21976834595E+03  0.41800000000E+01 0. -1.
        -11    1    1    2    0    0  0.20395783818E+03  0.40526052598E+02  0.51891479849E+03  0.55902927364E+03  0.00000000000E+00 0.  1.
         11    1    1    2    0    0  0.78978018729E+02  0.81176034534E+02  0.20989020822E+03  0.23849732815E+03  0.00000000000E+00 0. -1.
</event>
<event>
 7    1  0.2384639E-009  0.1049273E+03  0.7561462E-02  0.1270263E+00
          4   -1    0    0  501    0  0.00000000000E+00  0.00000000000E+00  0.21562172277E+03  0.21562172277E+03  0.00000000000E+00 0. -1.
         -4   -1    0    0    0  501 -0.00000000000E+00 -0.00000000000E+00 -0.69537121799E+02  0.69537121799E+02  0.00000000000E+00 0.  1.
         25    2    1    2    0    0 -0.15892898791E+02 -0.11243873781E+02  0.14361136459E+03  0.19144220845E+03  0.12508751420E+03 0.  0.
          5    1    3    3  502    0 -0.48885512954E+02 -0.49187898862E+02  0.11232442413E+03  0.13207381053E+03  0.41800000000E+01 0.  1.
         -5    1    3    3    0  502  0.32992614162E+02  0.37944025081E+02  0.31286940461E+02  0.59368397923E+02  0.41800000000E+01 0.  1.
        -11    1    1    2    0    0  0.52048773587E+02 -0.40698864458E-01  0.14405631006E+02  0.54005543169E+02  0.00000000000E+00 0.  1.
         11    1    1    2    0    0 -0.36155874795E+02  0.11284572645E+02 -0.11932394623E+02  0.39711092952E+02  0.00000000000E+00 0. -1.
</event>
<event>
 7    1  0.2384639E-009  0.1656145E+03  0.7561462E-02  0.1182500E+00
         -2   -1    0    0    0  501 -0.00000000000E+00  0.00000000000E+00  0.23352461820E+02  0.23352461820E+02  0.00000000000E+00 0. -1.
          2   -1    0    0  501    0  0.00000000000E+00 -0.00000000000E+00 -0.12960913489E+04  0.12960913489E+04  0.00000000000E+00 0.  1.
         25    2    1    2    0    0  0.11781001949E+03  0.63745677239E+02 -0.63882915761E+03  0.66459988953E+03  0.12509040127E+03 0.  0.
          5    1    3    3  502    0  0.55222088478E+01 -0.26027177461E+02 -0.22258890233E+03  0.22421240064E+03  0.41800000000E+01 0.  1.
         -5    1    3    3    0  502  0.11228781064E+03  0.89772854700E+02 -0.41624025528E+03  0.44038748889E+03  0.41800000000E+01 0.  1.
        -11    1    1    2    0    0 -0.56063065213E+02 -0.78998089178E+02 -0.44806563961E+03  0.45841747652E+03  0.00000000000E+00 0.  1.
         11    1    1    2    0    0 -0.61746954273E+02  0.15252411939E+02 -0.18584408981E+03  0.19642644463E+03  0.00000000000E+00 0. -1.
</event>
<event>
 7    1  0.2384639E-009  0.1160364E+03  0.7561462E-02  0.1249783E+00
          3   -1    0    0  501    0  0.00000000000E+00  0.00000000000E+00  0.34443362899E+02  0.34443362899E+02  0.00000000000E+00 0. -1.
         -3   -1    0    0    0  501 -0.00000000000E+00 -0.00000000000E+00 -0.47663131161E+03  0.47663131161E+03  0.00000000000E+00 0.  1.
         25    2    1    2    0    0 -0.32379569341E+02  0.43879392672E+02 -0.30635305063E+03  0.33537332296E+03  0.12509690848E+03 0.  0.
          5    1    3    3  502    0  0.44221310216E+02  0.36768808368E+02 -0.10512735881E+03  0.11990289202E+03  0.41800000000E+01 0. -1.
         -5    1    3    3    0  502 -0.76600879557E+02  0.71105843047E+01 -0.20122569182E+03  0.21547043094E+03  0.41800000000E+01 0. -1.
        -11    1    1    2    0    0  0.11586069964E+02 -0.65999001104E+02 -0.47069440959E+02  0.81887956600E+02  0.00000000000E+00 0. -1.
         11    1    1    2    0    0  0.20793499377E+02  0.22119608432E+02 -0.88765457119E+02  0.93813394945E+02  0.00000000000E+00 0.  1.
</event>
<event>
 7    1  0.2384639E-009  0.1298061E+03  0.7561462E-02  0.1227744E+00
          1   -1    0    0  501    0  0.00000000000E+00  0.00000000000E+00  0.15963554179E+03  0.15963554179E+03  0.00000000000E+00 0. -1.
         -1   -1    0    0    0  501 -0.00000000000E+00 -0.00000000000E+00 -0.21467405285E+03  0.21467405285E+03  0.00000000000E+00 0.  1.
         25    2    1    2    0    0 -0.19508648824E+02 -0.11987896323E+03  0.55457931120E+02  0.18296042027E+03  0.12508948820E+03 0.  0.
          5    1    3    3  502    0 -0.12868774354E+02 -0.71424844047E+01  0.67591675419E+02  0.69301712986E+02  0.41800000000E+01 0.  1.
         -5    1    3    3    0  502 -0.66398744691E+01 -0.11273647883E+03 -0.12133744300E+02  0.11365870728E+03  0.41800000000E+01 0.  1.
        -11    1    1    2    0    0 -0.15366358128E+02  0.60676261671E+02 -0.16306228113E+01  0.62613038764E+02  0.00000000000E+00 0. -1.
         11    1    1    2    0    0  0.34875006952E+02  0.59202701559E+02 -0.10886581937E+03  0.12873613560E+03  0.00000000000E+00 0.  1.
</event>
<event>
 7    1  0.2384639E-009  0.1614783E+03  0.7561462E-02  0.1187038E+00
         -1   -1    0    0    0  501 -0.00000000000E+00  0.00000000000E+00  0.32003319434E+02  0.32003319434E+02  0.00000000000E+00 0.  1.
          1   -1    0    0  501    0  0.00000000000E+00 -0.00000000000E+00 -0.97042602386E+03  0.97042602386E+03  0.00000000000E+00 0. -1.
         25    2    1    2    0    0  0.41428689024E+02 -0.12946390044E+03 -0.40920855961E+03  0.44897195290E+03  0.12508769501E+03 0.  0.
          5    1    3    3  502    0 -0.64384319495E+01  0.13352512341E+02 -0.29667873328E+01  0.15684936049E+02  0.41800000000E+01 0.  1.
         -5    1    3    3    0  502  0.47867120974E+02 -0.14281641278E+03 -0.40624177228E+03  0.43328701685E+03  0.41800000000E+01 0.  1.
        -11    1    1    2    0    0 -0.56541315634E+02  0.48448234486E+02 -0.32108684888E+03  0.32960721522E+03  0.00000000000E+00 0.  1.
         11    1    1    2    0    0  0.15112626610E+02  0.81015665956E+02 -0.20812729593E+03  0.22385017517E+03  0.00000000000E+00 0. -1.
</event>
<event>
 7    1  0.2384639E-009  0.1403767E+03  0.7561462E-02  0.1212823E+00
         -2   -1    0    0    0  501 -0.00000000000E+00  0.00000000000E+00  0.19677050682E+03  0.19677050682E+03  0.00000000000E+00 0.  1.
          2   -1    0    0  501    0  0.00000000000E+00 -0.00000000000E+00 -0.11291637939E+03  0.11291637939E+03  0.00000000000E+00 0. -1.
         25    2    1    2    0    0  0.51978283361E+02  0.84329586733E+02  0.36077711949E+02  0.16359380555E+03  0.12509240894E+03 0.  0.
          5    1    3    3  502    0  0.60387079566E+02 -0.81928259056E+01  0.35387147920E+02  0.70593515373E+02  0.41800000000E+01 0.  1.
         -5    1    3    3    0  502 -0.84087962044E+01  0.92522412638E+02  0.69056402878E+00  0.93000290175E+02  0.41800000000E+01 0.  1.
        -11    1    1    2    0    0 -0.53192863574E+02 -0.12253744580E+02  0.49926524017E+02  0.73974947056E+02  0.00000000000E+00 0.  1.
         11    1    1    2    0    0  0.12145802131E+01 -0.72075842152E+02 -0.21501085351E+01  0.72118133599E+02  0.00000000000E+00 0. -1.
</event>
<event>
 7    1  0.2384639E-009  0.1091086E+03  0.7561462E-02  0.1262230E+00
          2   -1    0    0  501    0  0.00000000000E+00  0.00000000000E+00  0.61155261298E+03  0.61155261298E+03  0.00000000000E+00 0. -1.
         -2   -1    0    0    0  501 -0.00000000000E+00 -0.00000000000E+00 -0.23178033050E+02  0.23178033050E+02  0.00000000000E+00 0.  1.
         25    2    1    2    0    0  0.50684928245E+02 -0.90395738208E+01  0.30109408144E+03  0.33008445738E+03  0.12508967697E+03 0.  0.
          5    1    3    3  502    0  0.31321574536E+02  0.55247244183E+02  0.18817061291E+03  0.19864277230E+03  0.41800000000E+01 0.  1.
         -5    1    3    3    0  502  0.19363353709E+02 -0.64286818003E+02  0.11292346852E+03  0.13144168509E+03  0.41800000000E+01 0.  1.
        -11    1    1    2    0    0  0.64484513334E+01  0.26726492624E+02  0.30805582492E+02  0.41290093791E+02  0.00000000000E+00 0.  1.
         11    1    1    2    0    0 -0.57133379578E+02 -0.17686918804E+02  0.25647491600E+03  0.26335609485E+03  0.00000000000E+00 0. -1.
</event>
<event>
 7    1  0.2384639E-009  0.1707623E+03  0.7561462E-02  0.1177055E+00
         -1   -1    0    0    0  501 -0.00000000000E+00  0.00000000000E+00  0.91039412746E+02  0.91039412746E+02  0.00000000000E+00 0.  1.
          1   -1    0    0  501    0  0.00000000000E+00 -0.00000000000E+00 -0.41120627048E+03  0.41120627048E+03  0.00000000000E+00 0. -1.
         25    2    1    2    0    0 -0.75578155969E+00  0.15085012915E+03 -0.23822473762E+03  0.30847171250E+03  0.12508972432E+03 0.  0.
          5    1    3    3  502    0 -0.54652129014E+02  0.65214685757E+02 -0.62512068764E+02  0.10566476038E+03  0.41800000000E+01 0. -1.
         -5    1    3    3    0  502  0.53896347454E+02  0.85635443391E+02 -0.17571266885E+03  0.20280695212E+03  0.41800000000E+01 0. -1.
        -11    1    1    2    0    0  0.18208399193E+02 -0.86030107172E+02 -0.90400258632E+02  0.12611475688E+03  0.00000000000E+00 0. -1.
         11    1    1    2    0    0 -0.17452617634E+02 -0.64820021976E+02  0.84581385192E+01  0.67659213848E+02  0.00000000000E+00 0.  1.
</event>
<event>
 7    1  0.2384639E-009  0.1196829E+03  0.7561462E-02  0.1243621E+00
          2   -1    0    0  501    0  0.00000000000E+00  0.00000000000E+00  0.14418162179E+03  0.14418162179E+03  0.00000000000E+00 0. -1.
         -2   -1    0    0    0  501 -0.00000000000E+00 -0.00000000000E+00 -0.11041271215E+03  0.11041271215E+03  0.00000000000E+00 0.  1.
         25    2    1    2    0    0 -0.15216519513E+02  0.60127017027E+02  0.44131797323E+02  0.14643135388E+03  0.12509086786E+03 0.  0.
          5    1    3    3  502    0 -0.54908372063E+02  0.75311175044E+02  0.45301737854E+02  0.10371317304E+03  0.41800000000E+01 0.  1.
         -5    1    3    3    0  502  0.39691852550E+02 -0.15184158017E+02 -0.11699405305E+01  0.42718180841E+02  0.41800000000E+01 0.  1.
        -11    1    1    2    0    0 -0.28235461374E+02  0.11373028877E+01  0.10603618008E+02  0.30182303618E+02  0.00000000000E+00 0. -1.
         11    1    1    2    0    0  0.43451980887E+02 -0.61264319915E+02 -0.20966505691E+02  0.77980676443E+02  0.00000000000E+00 0.  1.
</event>
<event>
 7    1  0.2384639E-009  0.8658246E+02  0.7561462E-02  0.1311345E+00
         -2   -1    0    0    0  501 -0.00000000000E+00  0.00000000000E+00  0.52198856792E+02  0.52198856792E+02  0.00000000000E+00 0.  1.
          2   -1    0    0  501    0  0.00000000000E+00 -0.00000000000E+00 -0.31651600459E+03  0.31651600459E+03  0.00000000000E+00 0. -1.
         25    2    1    2    0    0  0.16867529778E+02 -0.41540090126E+02 -0.67702168678E+02  0.14913614320E+03  0.12509161810E+03 0.  0.
          5    1    3    3  502    0 -0.70035537969E+01 -0.51582087325E+02 -0.96781983088E+02  0.10997266092E+03  0.41800000000E+01 0.  1.
         -5    1    3    3    0  502  0.23871083575E+02  0.10041997199E+02  0.29079814411E+02  0.39163482288E+02  0.41800000000E+01 0.  1.
        -11    1    1    2    0    0  0.33897074534E+02  0.21452142753E+02 -0.57282009994E+02  0.69931643479E+02  0.00000000000E+00 0.  1.
         11    1    1    2    0    0 -0.50764604311E+02  0.20087947373E+02 -0.13933296913E+03  0.14964707470E+03  0.00000000000E+00 0. -1.
</event>
<event>
 7    1  0.2384639E-009  0.1156717E+03  0.7561462E-02  0.1250413E+00
          2   -1    0    0  501    0  0.00000000000E+00  0.00000000000E+00  0.58702768360E+03  0.58702768360E+03  0.00000000000E+00 0. -1.
         -2   -1    0    0    0  501 -0.00000000000E+00 -0.00000000000E+00 -0.34688107546E+02  0.34688107546E+02  0.00000000000E+00 0.  1.
         25    2    1    2    0    0  0.41371585103E+02  0.35497239200E+02  0.13941736198E+03  0.19508152942E+03  0.12509172737E+03 0.  0.
          5    1    3    3  502    0  0.68893614284E+02 -0.11007182404E+02  0.36700803897E+02  0.78942444606E+02  0.41800000000E+01 0. -1.
         -5    1    3    3    0  502 -0.27522029182E+02  0.46504421604E+02  0.10271655808E+03  0.11613908482E+03  0.41800000000E+01 0. -1.
        -11    1    1    2    0    0 -0.22990915828E+02 -0.66968816853E+02  0.27825774625E+03  0.28712502153E+03  0.00000000000E+00 0.  1.
         11    1    1    2    0    0 -0.18380669275E+02  0.31471577652E+02  0.13466446782E+03  0.13950924018E+03  0.00000000000E+00 0. -1.
</event>
<event>
 7    1  0.2384639E-009  0.1685888E+03  0.7561462E-02  0.1179328E+00
          2   -1    0    0  501    0  0.00000000000E+00  0.00000000000E+00  0.16143287535E+04  0.16143287535E+04  0.00000000000E+00 0.  1.
         -2   -1    0    0    0  501 -0.00000000000E+00 -0.00000000000E+00 -0.23387221170E+02  0.23387221170E+02  0.00000000000E+00 0. -1.
         25    2    1    2    0    0 -0.97678430641E+02  0.12685520657E+03  0.77957935926E+03  0.80562035854E+03  0.12508743133E+03 0.  0.
          5    1    3    3  502    0 -0.60538336669E+01 -0.91705438551E+00 -0.25446985057E+01  0.78382256472E+01  0.41800000000E+01 0. -1.
         -5    1    3    3    0  502 -0.91624596974E+02  0.12777226096E+03  0.78212405776E+03  0.79778213290E+03  0.41800000000E+01 0. -1.
        -11    1    1    2    0    0  0.57562123490E+02 -0.11815553769E+03  0.72052579888E+03  0.73241487970E+03  0.00000000000E+00 0.  1.
         11    1    1    2    0    0  0.40116307151E+02 -0.86996688858E+01  0.90836374171E+02  0.99680736407E+02  0.00000000000E+00 0. -1.
</event>
<event>
 7    1  0.2384639E-009  0.7714893E+02  0.7561462E-02  0.1337343E+00
          2   -1    0    0  501    0  0.00000000000E+00  0.00000000000E+00  0.40617144134E+03  0.40617144134E+03  0.00000000000E+00 0.  1.
         -2   -1    0    0    0  501 -0.00000000000E+00 -0.00000000000E+00 -0.29531828770E+02  0.29531828770E+02  0.00000000000E+00 0. -1.
         25    2    1    2    0    0  0.10458428824E+02 -0.13772082595E+02  0.22237240613E+03  0.25572675090E+03  0.12509050774E+03 0.  0.
          5    1    3    3  502    0  0.87402710396E+01  0.27792224719E+02 -0.26027584813E-01  0.29432518922E+02  0.41800000000E+01 0. -1.
         -5    1    3    3    0  502  0.17181577847E+01 -0.41564307314E+02  0.22239843371E+03  0.22629423198E+03  0.41800000000E+01 0. -1.
        -11    1    1    2    0    0 -0.96843821013E+01 -0.33961961306E+02  0.28266678246E+02  0.45235021515E+02  0.00000000000E+00 0. -1.
         11    1    1    2    0    0 -0.77404672302E+00  0.47734043901E+02  0.12600052820E+03  0.13474149770E+03  0.00000000000E+00 0.  1.
</event>
<event>
 7    1  0.2384639E-009  0.1736595E+03  0.7561462E-02  0.1174084E+00
         -2   -1    0    0    0  501 -0.00000000000E+00  0.00000000000E+00  0.26939566982E+03  0.26939566982E+03  0.00000000000E+00 0.  1.
          2   -1    0    0  501    0  0.00000000000E+00 -0.00000000000E+00 -0.14145231470E+03  0.14145231470E+03  0.00000000000E+00 0. -1.
         25    2    1    2    0    0 -0.11055330022E+03 -0.95224268970E+02 -0.71797476597E+01  0.19232491565E+03  0.12509049049E+03 0.  0.
          5    1    3    3  502    0 -0.63742171985E+02 -0.12228039360E+03 -0.55034594143E+01  0.13806998086E+03  0.41800000000E+01 0.  1.
         -5    1    3    3    0  502 -0.46811128240E+02  0.27056124631E+02 -0.16762882454E+01  0.54254934793E+02  0.41800000000E+01 0.  1.
        -11    1    1    2    0    0  0.75642943078E+02  0.93375931357E+02  0.13854093643E+03  0.18339713864E+03  0.00000000000E+00 0.  1.
         11    1    1    2    0    0  0.34910357146E+02  0.18483376130E+01 -0.34178336547E+01  0.35125930235E+02  0.00000000000E+00 0. -1.
</event>
<event>
 7    1  0.2384639E-009  0.6542381E+02  0.7561462E-02  0.1376384E+00
         -2   -1    0    0    0  501 -0.00000000000E+00  0.00000000000E+00  0.31576149934E+02  0.31576149934E+02  0.00000000000E+00 0. -1.
          2   -1    0    0  501    0  0.00000000000E+00 -0.00000000000E+00 -0.51476203013E+03  0.51476203013E+03  0.00000000000E+00 0.  1.
         25    2    1    2    0    0  0.13275111047E+01  0.32263005285E+02 -0.40396883416E+03  0.42412150252E+03  0.12508223746E+03 0.  0.
          5    1    3    3  502    0  0.57938751548E+00  0.34157337512E+02 -0.19367721723E+02  0.39492283304E+02  0.41800000000E+01 0.  1.
         -5    1    3    3    0  502  0.74812358920E+00 -0.18943322265E+01 -0.38460111244E+03  0.38462921922E+03  0.41800000000E+01 0.  1.
        -11    1    1    2    0    0 -0.38989994962E+02  0.43784006501E+01 -0.44044428264E+02  0.58985606384E+02  0.00000000000E+00 0.  1.
         11    1    1    2    0    0  0.37662483858E+02 -0.36641405935E+02 -0.35172617763E+02  0.63231071156E+02  0.00000000000E+00 0. -1.
</event>
<event>
 7    1  0.2384639E-009  0.1370940E+03  0.7561462E-02  0.1217293E+00
         -2   -1    0    0    0  501 -0.00000000000E+00  0.00000000000E+00  0.32481984449E+02  0.32481984449E+02  0.00000000000E+00 0.  1.
          2   -1    0    0  501    0  0.00000000000E+00 -0.00000000000E+00 -0.90139467319E+03  0.90139467319E+03  0.00000000000E+00 0. -1.
         25    2    1    2    0    0 -0.66255119708E+02  0.79582613449E+02 -0.23808195662E+03  0.28819002225E+03  0.12508931850E+03 0.  0.
          5    1    3    3  502    0 -0.12027738896E+01  0.70534369178E+02 -0.43983675318E+02  0.83238092211E+02  0.41800000000E+01 0. -1.
         -5    1    3    3    0  502 -0.65052345818E+02  0.90482442714E+01 -0.19409828130E+03  0.20495193003E+03  0.41800000000E+01 0. -1.
        -11    1    1    2    0    0  0.43629574125E+02  0.10460493182E+02 -0.20664002657E+03  0.21145463399E+03  0.00000000000E+00 0.  1.
         11    1    1    2    0    0  0.22625545583E+02 -0.90043106631E+02 -0.42419070556E+03  0.43423200141E+03  0.00000000000E+00 0. -1.
</event>
<event>
 7    1  0.2384639E-009  0.1107439E+03  0.7561462E-02  0.1259199E+00
          2   -1    0    0  501    0  0.00000000000E+00  0.00000000000E+00  0.36257895486E+03  0.36257895486E+03  0.00000000000E+00 0. -1.
         -2   -1    0    0    0  501 -0.00000000000E+00 -0.00000000000E+00 -0.74959978749E+02  0.74959978749E+02  0.00000000000E+00 0.  1.
         25    2    1    2    0    0  0.19075097986E+02  0.90028987742E+02  0.26425491121E+03  0.30650708832E+03  0.12508740584E+03 0.  0.
          5    1    3    3  502    0  0.40877894182E+02  0.48893577614E+01  0.17996536786E+03  0.18466162048E+03  0.41800000000E+01 0. -1.
         -5    1    3    3    0  502 -0.21802796195E+02  0.85139629981E+02  0.84289543349E+02  0.12184546784E+03  0.41800000000E+01 0. -1.
        -11    1    1    2    0    0 -0.13399901244E+02 -0.53462226772E+02  0.58238020160E+02  0.80183751702E+02  0.00000000000E+00 0. -1.
         11    1    1    2    0    0 -0.56751967421E+01 -0.36566760970E+02 -0.34873955255E+02  0.50848093583E+02  0.00000000000E+00 0.  1.
</event>
<event>
 7    1  0.2384639E-009  0.5690189E+02  0.7561462E-02  0.1411313E+00
         -1   -1    0    0    0  501 -0.00000000000E+00  0.00000000000E+00  0.18537860988E+02  0.18537860988E+02  0.00000000000E+00 0.  1.
          1   -1    0    0  501    0  0.00000000000E+00 -0.00000000000E+00 -0.69156530686E+03  0.69156530686E+03  0.00000000000E+00 0. -1.
         25    2    1    2    0    0  0.76691251940E+01 -0.11367033538E+02 -0.48502764603E+03  0.50109027919E+03  0.12510645685E+03 0.  0.
          5    1    3    3  502    0 -0.38653088424E+01  0.48601711862E+00  0.68480805072E+01  0.89188245705E+01  0.41800000000E+01 0.  1.
         -5    1    3    3    0  502  0.11534434036E+02 -0.11853050656E+02 -0.49187572654E+03  0.49217145462E+03  0.41800000000E+01 0.  1.
        -11    1    1    2    0    0 -0.40947595112E+02  0.31918258272E+02 -0.98667391375E+02  0.11149320552E+03  0.00000000000E+00 0.  1.
         11    1    1    2    0    0  0.33278469918E+02 -0.20551224734E+02 -0.89332408460E+02  0.97519683138E+02  0.00000000000E+00 0. -1.
</event>
<event>
 7    1  0.2384639E-009  0.1357115E+03  0.7561462E-02  0.1219219E+00
          2   -1    0    0  501    0  0.00000000000E+00  0.00000000000E+00  0.45454853862E+03  0.45454853862E+03  0.00000000000E+00 0. -1.
         -2   -1    0    0    0  501 -0.00000000000E+00 -0.00000000000E+00 -0.57003483878E+02  0.57003483878E+02  0.00000000000E+00 0.  1.
         25    2    1    2    0    0  0.64970007704E+02  0.90061444911E+02  0.14462612088E+03  0.22112480848E+03  0.12508916950E+03 0.  0.
          5    1    3    3  502    0 -0.21397752776E+02  0.36543997679E+02 -0.20989951565E+01  0.42605231732E+02  0.41800000000E+01 0. -1.
         -5    1    3    3    0  502  0.86367760480E+02  0.53517447231E+02  0.14672511603E+03  0.17851957675E+03  0.41800000000E+01 0. -1.
        -11    1    1    2    0    0 -0.43727593433E+02 -0.95686266585E+02  0.13854650171E+03  0.17396291897E+03  0.00000000000E+00 0.  1.
         11    1    1    2    0    0 -0.21242414271E+02  0.56248216748E+01  0.11437243216E+03  0.11646429504E+03  0.00000000000E+00 0. -1.
</event>
<event>
 7    1  0.2384639E-009  0.6799431E+02  0.7561462E-02  0.1367049E+00
         -4   -1    0    0    0  501 -0.00000000000E+00  0.00000000000E+00  0.17790393393E+03  0.17790393393E+03  0.00000000000E+00 0.  1.
          4   -1    0    0  501    0  0.00000000000E+00 -0.00000000000E+00 -0.87316040510E+02  0.87316040510E+02  0.00000000000E+00 0. -1.
         25    2    1    2    0    0  0.25295215863E+02  0.12998734127E+02  0.11425071855E+03  0.17178230094E+03  0.12508843749E+03 0.  0.
          5    1    3    3  502    0  0.25414975932E+02 -0.26939590528E+02  0.12481361693E+03  0.13025964037E+03  0.41800000000E+01 0.  1.
         -5    1    3    3    0  502 -0.11976006913E+00  0.39938324655E+02 -0.10562898380E+02  0.41522660571E+02  0.41800000000E+01 0.  1.
        -11    1    1    2    0    0 -0.41182405490E+02 -0.10233488320E+02  0.19985566895E+02  0.46905625348E+02  0.00000000000E+00 0.  1.
         11    1    1    2    0    0  0.15887189627E+02 -0.27652458077E+01 -0.43648392023E+02  0.46532048148E+02  0.00000000000E+00 0. -1.
</event>
<event>
 7    1  0.2384639E-009  0.8797108E+02  0.7561462E-02  0.1307841E+00
         -1   -1    0    0    0  501 -0.00000000000E+00  0.00000000000E+00  0.62416672113E+02  0.62416672113E+02  0.00000000000E+00 0.  1.
          1   -1    0    0  501    0  0.00000000000E+00 -0.00000000000E+00 -0.29315646125E+03  0.29315646125E+03  0.00000000000E+00 0. -1.
         25    2    1    2    0    0 -0.68790377144E+01 -0.28879816269E+02 -0.28809567040E+02  0.13175152811E+03  0.12508840497E+03 0.  0.
          5    1    3    3  502    0 -0.47962502031E+02 -0.27229464771E+02  0.27605991752E+02  0.61817542279E+02  0.41800000000E+01 0. -1.
         -5    1    3    3    0  502  0.41083464317E+02 -0.16503514985E+01 -0.56415558792E+02  0.69933985830E+02  0.41800000000E+01 0. -1.
        -11    1    1    2    0    0  0.40141365282E+02  0.11409559802E+02 -0.16830301252E+03  0.17339957117E+03  0.00000000000E+00 0. -1.
         11    1    1    2    0    0 -0.33262327568E+02  0.17470256467E+02 -0.33627209578E+02  0.50422034075E+02  0.00000000000E+00 0.  1.
</event>
<event>
 7    1  0.2384639E-009  0.1730893E+03  0.7561462E-02  0.1174664E+00
          2   -1    0    0  501    0  0.00000000000E+00  0.00000000000E+00  0.43699624551E+03  0.43699624551E+03  0.00000000000E+00 0. -1.
         -2   -1    0    0    0  501 -0.00000000000E+00 -0.00000000000E+00 -0.98911244915E+02  0.98911244915E+02  0.00000000000E+00 0.  1.
         25    2    1    2    0    0  0.88718714546E+02 -0.10406301189E+03  0.32139132113E+03  0.37099888276E+03  0.12509064295E+03 0.  0.
          5    1    3    3  502    0 -0.14653997671E+02  0.18006398213E+02  0.60620053984E+02  0.65047931323E+02  0.41800000000E+01 0. -1.
         -5    1    3    3    0  502  0.10337271222E+03 -0.12206941011E+03  0.26077126714E+03  0.30595095143E+03  0.41800000000E+01 0. -1.
        -11    1    1    2    0    0 -0.28896042269E+02  0.98319917246E+02  0.21178594237E+02  0.10464377784E+03  0.00000000000E+00 0. -1.
         11    1    1    2    0    0 -0.59822672277E+02  0.57430946471E+01 -0.44849147696E+01  0.60264829834E+02  0.00000000000E+00 0.  1.
</event>
<event>
 7    1  0.2384639E-009  0.1099120E+03  0.7561462E-02  0.1260733E+00
         -1   -1    0    0    0  501 -0.00000000000E+00  0.00000000000E+00  0.40871437592E+02  0.40871437592E+02  0.00000000000E+00 0.  1.
          1   -1    0    0  501    0  0.00000000000E+00 -0.00000000000E+00 -0.51319547672E+03  0.51319547672E+03  0.00000000000E+00 0. -1.
         25    2    1    2    0    0 -0.54941188928E+02  0.73599253267E+02 -0.21539614976E+03  0.26547429025E+03  0.12508282509E+03 0.  0.
          5    1    3    3  502    0 -0.38927125559E+02 -0.58949191359E+01 -0.49425242325E+01  0.39899525332E+02  0.41800000000E+01 0. -1.
         -5    1    3    3    0  502 -0.16014063369E+02  0.79494172403E+02 -0.21045362552E+03  0.22557476492E+03  0.41800000000E+01 0. -1.
        -11    1    1    2    0    0  0.40044124852E+02 -0.22769213434E+02 -0.28644136199E+02  0.54244405740E+02  0.00000000000E+00 0.  1.
         11    1    1    2    0    0  0.14897064077E+02 -0.50830039833E+02 -0.22828375317E+03  0.23434821832E+03  0.00000000000E+00 0. -1.
</event>
<event>
 7    1  0.2384639E-009  0.4526338E+03  0.7561462E-02  0.1026940E+00
         -2   -1    0    0    0  501 -0.00000000000E+00  0.00000000000E+00  0.92007262643E+02  0.92007262643E+02  0.00000000000E+00 0.  1.
          2   -1    0    0  501    0  0.00000000000E+00 -0.00000000000E+00 -0.23405977600E+04  0.23405977600E+04  0.00000000000E+00 0. -1.
         25    2    1    2    0    0  0.32288047607E+03  0.30794090934E+03 -0.96251245416E+03  0.10682493682E+04  0.12508829949E+03 0.  0.
          5    1    3    3  502    0  0.29926130476E+03  0.22986262905E+03 -0.84158251720E+03  0.92231923021E+03  0.41800000000E+01 0.  1.
         -5    1    3    3    0  502  0.23619171314E+02  0.78078280289E+02 -0.12092993696E+03  0.14593013794E+03  0.41800000000E+01 0.  1.
        -11    1    1    2    0    0 -0.98060249586E+02 -0.90235396421E+02 -0.26866602800E+03  0.29989943967E+03  0.00000000000E+00 0. -1.
         11    1    1    2    0    0 -0.22482022649E+03 -0.21770551292E+03 -0.10174120152E+04  0.10644562148E+04  0.00000000000E+00 0.  1.
</event>
<event>
 7    1  0.2384639E-009  0.1221210E+03  0.7561462E-02  0.1239638E+00
          2   -1    0    0  501    0  0.00000000000E+00  0.00000000000E+00  0.12909301088E+03  0.12909301088E+03  0.00000000000E+00 0.  1.
         -2   -1    0    0    0  501 -0.00000000000E+00 -0.00000000000E+00 -0.17083795740E+03  0.17083795740E+03  0.00000000000E+00 0. -1.
         25    2    1    2    0    0  0.19324377818E+02 -0.94945147892E+02 -0.49081102117E+02  0.16565810447E+03  0.12508253397E+03 0.  0.
          5    1    3    3  502    0 -0.10617195410E+02 -0.10961590163E+03 -0.51230672869E+01  0.11032719043E+03  0.41800000000E+01 0. -1.
         -5    1    3    3    0  502  0.29941573227E+02  0.14670753741E+02 -0.43958034830E+02  0.55330914043E+02  0.41800000000E+01 0. -1.
        -11    1    1    2    0    0 -0.23914154228E+02  0.51939657972E+02 -0.40282542483E+02  0.69944964590E+02  0.00000000000E+00 0. -1.
         11    1    1    2    0    0  0.45897764104E+01  0.43005489920E+02  0.47618698076E+02  0.64327899214E+02  0.00000000000E+00 0.  1.
</event>
<event>
 7    1  0.2384639E-009  0.9663701E+02  0.7561462E-02  0.1287531E+00
         -2   -1    0    0    0  501 -0.00000000000E+00  0.00000000000E+00  0.17830247250E+02  0.17830247250E+02  0.00000000000E+00 0.  1.
          2   -1    0    0  501    0  0.00000000000E+00 -0.00000000000E+00 -0.72078035052E+03  0.72078035052E+03  0.00000000000E+00 0. -1.
         25    2    1    2    0    0  0.22997048895E+02  0.33822200538E+02 -0.46707736292E+03  0.48526483268E+03  0.12509152399E+03 0.  0.
          5    1    3    3  502    0 -0.42409208193E+02  0.46738015106E+02 -0.19009323078E+03  0.20033944141E+03  0.41800000000E+01 0.  1.
         -5    1    3    3    0  502  0.65406257088E+02 -0.12915814569E+02 -0.27698413214E+03  0.28492539127E+03  0.41800000000E+01 0.  1.
        -11    1    1    2    0    0  0.28673335212E+01  0.11058730622E+02  0.42955000067E+00  0.11432481695E+02  0.00000000000E+00 0.  1.
         11    1    1    2    0    0 -0.25864382416E+02 -0.44880931160E+02 -0.23630229034E+03  0.24191328339E+03  0.00000000000E+00 0. -1.
</event>
<event>
 7    1  0.2384639E-009  0.1069792E+03  0.7561462E-02  0.1266268E+00
         -3   -1    0    0    0  501 -0.00000000000E+00  0.00000000000E+00  0.10651878860E+03  0.10651878860E+03  0.00000000000E+00 0.  1.
          3   -1    0    0  501    0  0.00000000000E+00 -0.00000000000E+00 -0.12905567180E+03  0.12905567180E+03  0.00000000000E+00 0. -1.
         25    2    1    2    0    0  0.24730682118E+02  0.45362060827E+02 -0.12429758663E+02  0.13590882467E+03  0.12508951404E+03 0.  0.
          5    1    3    3  502    0  0.52551836417E+02  0.76672023606E+02 -0.11966784226E+02  0.93813490711E+02  0.41800000000E+01 0.  1.
         -5    1    3    3    0  502 -0.27821154299E+02 -0.31309962779E+02 -0.46297443717E+00  0.42095333959E+02  0.41800000000E+01 0.  1.
        -11    1    1    2    0    0 -0.40715494305E+02 -0.13028070066E+02 -0.35489340479E+02  0.55560555917E+02  0.00000000000E+00 0. -1.
         11    1    1    2    0    0  0.15984812188E+02 -0.32333990761E+02  0.25382215941E+02  0.44105079812E+02  0.00000000000E+00 0.  1.
</event>
<event>
 7    1  0.2384639E-009  0.1175637E+03  0.7561462E-02  0.1247171E+00
          4   -1    0    0  501    0  0.00000000000E+00  0.00000000000E+00  0.93237684744E+03  0.93237684744E+03  0.00000000000E+00 0. -1.
         -4   -1    0    0    0  501 -0.00000000000E+00 -0.00000000000E+00 -0.20199332128E+02  0.20199332128E+02  0.00000000000E+00 0.  1.
         25    2    1    2    0    0  0.27786668067E+01 -0.83605004562E+02  0.47181554921E+03  0.49523254240E+03  0.12509132983E+03 0.  0.
          5    1    3    3  502    0 -0.50455473197E+01  0.14430245294E+02  0.29185238891E+01  0.16114580624E+02  0.41800000000E+01 0. -1.
         -5    1    3    3    0  502  0.78242141264E+01 -0.98035249856E+02  0.46889702532E+03  0.47911796178E+03  0.41800000000E+01 0. -1.
        -11    1    1    2    0    0 -0.13090992505E+02 -0.16018744803E+02  0.11737568109E+03  0.11918483453E+03  0.00000000000E+00 0. -1.
         11    1    1    2    0    0  0.10312325699E+02  0.99623749365E+02  0.32298628501E+03  0.33815880264E+03  0.00000000000E+00 0.  1.
</event>
<event>
 7    1  0.2384639E-009  0.1513410E+03  0.7561462E-02  0.1198835E+00
         -1   -1    0    0    0  501 -0.00000000000E+00  0.00000000000E+00  0.39328317134E+02  0.39328317134E+02  0.00000000000E+00 0.  1.
          1   -1    0    0  501    0  0.00000000000E+00 -0.00000000000E+00 -0.94490454698E+03  0.94490454698E+03  0.00000000000E+00 0. -1.
         25    2    1    2    0    0  0.13317412221E+03 -0.23396043096E+02 -0.69121008749E+03  0.71533468852E+03  0.12509840084E+03 0.  0.
          5    1    3    3  502    0  0.29413230058E+02  0.14567353046E+02 -0.43536159367E+03  0.43661714982E+03  0.41800000000E+01 0.  1.
         -5    1    3    3    0  502  0.10376089215E+03 -0.37963396142E+02 -0.25584849382E+03  0.27871753869E+03  0.41800000000E+01 0.  1.
        -11    1    1    2    0    0 -0.74233156369E+02 -0.29452803357E+02 -0.80622714266E+02  0.11348150151E+03  0.00000000000E+00 0.  1.
         11    1    1    2    0    0 -0.58940965838E+02  0.52848846453E+02 -0.13374342809E+03  0.15541667408E+03  0.00000000000E+00 0. -1.
</event>
<event>
 7    1  0.2384639E-009  0.1371002E+03  0.7561462E-02  0.1217285E+00
         -1   -1    0    0    0  501 -0.00000000000E+00  0.00000000000E+00  0.22701154638E+02  0.22701154638E+02  0.00000000000E+00 0.  1.
          1   -1    0    0  501    0  0.00000000000E+00 -0.00000000000E+00 -0.11867239685E+04  0.11867239685E+04  0.00000000000E+00 0. -1.
         25    2    1    2    0    0  0.85454989163E+02 -0.52390863442E+02 -0.75674601268E+03  0.77353724755E+03  0.12509191778E+03 0.  0.
          5    1    3    3  502    0  0.56211603561E+02 -0.75532320060E+02 -0.69441942095E+03  0.70078575923E+03  0.41800000000E+01 0. -1.
         -5    1    3    3    0  502  0.29243385602E+02  0.23141456618E+02 -0.62326591729E+02  0.72751488317E+02  0.41800000000E+01 0. -1.
        -11    1    1    2    0    0 -0.10654728271E+03  0.27964783813E+02 -0.22206598329E+03  0.24788637219E+03  0.00000000000E+00 0.  1.
         11    1    1    2    0    0  0.21092293545E+02  0.24426079629E+02 -0.18521081786E+03  0.18800150335E+03  0.00000000000E+00 0. -1.
</event>
<event>
 7    1  0.2384639E-009  0.1563771E+03  0.7561462E-02  0.1192849E+00
          1   -1    0    0  501    0  0.00000000000E+00  0.00000000000E+00  0.57072220206E+03  0.57072220206E+03  0.00000000000E+00 0. -1.
         -1   -1    0    0    0  501 -0.00000000000E+00 -0.00000000000E+00 -0.48565683341E+02  0.48565683341E+02  0.00000000000E+00 0.  1.
         25    2    1    2    0    0 -0.12448266624E+03  0.11690020999E+02  0.25594687952E+03  0.31110778100E+03  0.12508659190E+03 0.  0.
          5    1    3    3  502    0 -0.67301407674E+02  0.68430528678E+02  0.13330561389E+03  0.16431699798E+03  0.41800000000E+01 0. -1.
         -5    1    3    3    0  502 -0.57181258569E+02 -0.56740507679E+02  0.12264126563E+03  0.14679078302E+03  0.41800000000E+01 0. -1.
        -11    1    1    2    0    0  0.94764364682E+02  0.15158351874E+02  0.10577916218E+03  0.14282608865E+03  0.00000000000E+00 0.  1.
         11    1    1    2    0    0  0.29718301560E+02 -0.26848372873E+02  0.16043047701E+03  0.16535401576E+03  0.00000000000E+00 0. -1.
</event>
<event>
 7    1  0.2384639E-009  0.1366581E+03  0.7561462E-02  0.1217898E+00
          1   -1    0    0  501    0  0.00000000000E+00  0.00000000000E+00  0.67824387274E+03  0.67824387274E+03  0.00000000000E+00 0. -1.
         -1   -1    0    0    0  501 -0.00000000000E+00 -0.00000000000E+00 -0.35843474088E+02  0.35843474088E+02  0.00000000000E+00 0.  1.
         25    2    1    2    0    0  0.87795745073E+01 -0.10922871220E+03  0.30040323217E+03  0.34336245942E+03  0.12509070367E+03 0.  0.
          5    1    3    3  502    0 -0.31721910623E+02  0.13030524157E+02  0.40246847461E+02  0.53041071859E+02  0.41800000000E+01 0.  1.
         -5    1    3    3    0  502  0.40501485130E+02 -0.12225923636E+03  0.26015638470E+03  0.29032138756E+03  0.41800000000E+01 0.  1.
        -11    1    1    2    0    0 -0.44678771707E+01  0.16977228164E+02  0.11555537191E+01  0.17593280165E+02  0.00000000000E+00 0.  1.
         11    1    1    2    0    0 -0.43116973366E+01  0.92251484037E+02  0.34084161277E+03  0.35313160725E+03  0.00000000000E+00 0. -1.
</event>
<event>
 7    1  0.2384639E-009  0.3543810E+03  0.7561462E-02  0.1060831E+00
          1   -1    0    0  501    0  0.00000000000E+00  0.00000000000E+00  0.20776296950E+04  0.20776296950E+04  0.00000000000E+00 0. -1.
         -1   -1    0    0    0  501 -0.00000000000E+00 -0.00000000000E+00 -0.67697872804E+02  0.67697872804E+02  0.00000000000E+00 0.  1.
         25    2    1    2    0    0 -0.33062636529E+03 -0.76380532784E+02  0.68447323858E+03  0.77414415922E+03  0.12509110965E+03 0.  0.
          5    1    3    3  502    0 -0.67296665717E+02 -0.71451203720E+02  0.18778763307E+03  0.21193344065E+03  0.41800000000E+01 0. -1.
         -5    1    3    3    0  502 -0.26332969957E+03 -0.49293290636E+01  0.49668560550E+03  0.56221071857E+03  0.41800000000E+01 0. -1.
        -11    1    1    2    0    0  0.13785592522E+03 -0.48103821378E+01  0.63132291091E+03  0.64621669255E+03  0.00000000000E+00 0. -1.
         11    1    1    2    0    0  0.19277044007E+03  0.81190914922E+02  0.69413567271E+03  0.72496671603E+03  0.00000000000E+00 0.  1.
</event>
<event>
 7    1  0.2384639E-009  0.1069186E+03  0.7561462E-02  0.1266385E+00
          1   -1    0    0  501    0  0.00000000000E+00  0.00000000000E+00  0.12069877569E+04  0.12069877569E+04  0.00000000000E+00 0. -1.
         -1   -1    0    0    0  501 -0.00000000000E+00 -0.00000000000E+00 -0.12746329045E+02  0.12746329045E+02  0.00000000000E+00 0.  1.
         25    2    1    2    0    0  0.22094313414E+01 -0.58425683552E+01  0.96208954270E+03  0.97020816882E+03  0.12509430635E+03 0.  0.
          5    1    3    3  502    0 -0.52030362922E+02  0.27137818375E+02  0.56503606893E+03  0.56809053103E+03  0.41800000000E+01 0. -1.
         -5    1    3    3    0  502  0.54239794264E+02 -0.32980386730E+02  0.39705347376E+03  0.40211763779E+03  0.41800000000E+01 0. -1.
        -11    1    1    2    0    0  0.37513792262E+02  0.27153990586E+02  0.12321455626E+03  0.13162997641E+03  0.00000000000E+00 0. -1.
         11    1    1    2    0    0 -0.39723223604E+02 -0.21311422231E+02  0.10893732890E+03  0.11789594072E+03  0.00000000000E+00 0.  1.
</event>
<event>
 7    1  0.2384639E-009  0.1828267E+03  0.7561462E-02  0.1165095E+00
         -1   -1    0    0    0  501 -0.00000000000E+00  0.00000000000E+00  0.27121158020E+03  0.27121158020E+03  0.00000000000E+00 0.  1.
          1   -1    0    0  501    0  0.00000000000E+00 -0.00000000000E+00 -0.16511972957E+03  0.16511972957E+03  0.00000000000E+00 0. -1.
         25    2    1    2    0    0  0.13769719692E+03  0.96735648026E+02 -0.14364745632E+02  0.21017068528E+03  0.12508823844E+03 0.  0.
          5    1    3    3  502    0 -0.64762344750E+01 -0.93775566174E+01  0.24135090515E+02  0.27015831937E+02  0.41800000000E+01 0. -1.
         -5    1    3    3    0  502  0.14417343139E+03  0.10611320464E+03 -0.38499836146E+02  0.18315485334E+03  0.41800000000E+01 0. -1.
        -11    1    1    2    0    0 -0.31018979231E+02 -0.48042207651E+02  0.87184572690E+02  0.10426591247E+03  0.00000000000E+00 0.  1.
         11    1    1    2    0    0 -0.10667821768E+03 -0.48693440374E+02  0.33272023571E+02  0.12189471201E+03  0.00000000000E+00 0. -1.
</event>
<event>
 7    1  0.2384639E-009  0.8976616E+02  0.7561462E-02  0.1303419E+00
          1   -1    0    0  501    0  0.00000000000E+00  0.00000000000E+00  0.28175651992E+03  0.28175651992E+03  0.00000000000E+00 0. -1.
         -1   -1    0    0    0  501 -0.00000000000E+00 -0.00000000000E+00 -0.45949917948E+02  0.45949917948E+02  0.00000000000E+00 0.  1.
         25    2    1    2    0    0  0.42787183821E+01 -0.11161636303E+02  0.18049978495E+03  0.21993182185E+03  0.12508774656E+03 0.  0.
          5    1    3    3  502    0 -0.58047639041E+02 -0.19744939818E+02  0.10394322687E+03  0.12075205116E+03  0.41800000000E+01 0. -1.
         -5    1    3    3    0  502  0.62326357423E+02  0.85833035157E+01  0.76556558073E+02  0.99179770683E+02  0.41800000000E+01 0. -1.
        -11    1    1    2    0    0 -0.12227123035E+02 -0.19682402035E+02 -0.17016397471E+02  0.28748169863E+02  0.00000000000E+00 0.  1.
         11    1    1    2    0    0  0.79484046532E+01  0.30844038338E+02  0.72323214496E+02  0.79026446159E+02  0.00000000000E+00 0. -1.
</event>
<event>
 7    1  0.2384639E-009  0.1616989E+03  0.7561462E-02  0.1186792E+00
          2   -1    0    0  501    0  0.00000000000E+00  0.00000000000E+00  0.14923276898E+04  0.14923276898E+04  0.00000000000E+00 0. -1.
         -2   -1    0    0    0  501 -0.00000000000E+00 -0.00000000000E+00 -0.22919581294E+02  0.22919581294E+02  0.00000000000E+00 0.  1.
         25    2    1    2    0    0 -0.10916583779E+03 -0.95428463252E+02  0.91136064977E+03  0.93126282205E+03  0.12509371701E+03 0.  0.
          5    1    3    3  502    0 -0.81104639390E+02 -0.43234088959E+02  0.79793605348E+03  0.80322261349E+03  0.41800000000E+01 0. -1.
         -5    1    3    3    0  502 -0.28061198401E+02 -0.52194374293E+02  0.11342459630E+03  0.12804020856E+03  0.41800000000E+01 0. -1.
        -11    1    1    2    0    0  0.23405410489E+02  0.81885276896E+02  0.28720749241E+03  0.29956828188E+03  0.00000000000E+00 0. -1.
         11    1    1    2    0    0  0.85760427302E+02  0.13543186356E+02  0.27083996635E+03  0.28441616719E+03  0.00000000000E+00 0.  1.
</event>
<event>
 7    1  0.2384639E-009  0.1008093E+03  0.7561462E-02  0.1278603E+00
          2   -1    0    0  501    0  0.00000000000E+00  0.00000000000E+00  0.53425138470E+02  0.53425138470E+02  0.00000000000E+00 0. -1.
         -2   -1    0    0    0  501 -0.00000000000E+00 -0.00000000000E+00 -0.25400447095E+03  0.25400447095E+03  0.00000000000E+00 0.  1.
         25    2    1    2    0    0 -0.88872182685E+01 -0.33986902746E+02 -0.10808583152E+03  0.16901009150E+03  0.12509105422E+03 0.  0.
          5    1    3    3  502    0 -0.35259270275E+02 -0.68126313910E+02 -0.35866730665E+02  0.84783875565E+02  0.41800000000E+01 0.  1.
         -5    1    3    3    0  502  0.26372052006E+02  0.34139411164E+02 -0.72219100857E+02  0.84226215932E+02  0.41800000000E+01 0.  1.
        -11    1    1    2    0    0  0.25691310847E+02 -0.14941469784E+02 -0.79795267060E+02  0.85150311905E+02  0.00000000000E+00 0.  1.
         11    1    1    2    0    0 -0.16804092579E+02  0.48928372530E+02 -0.12698233902E+02  0.53269206021E+02  0.00000000000E+00 0. -1.
</event>
<event>
 7    1  0.2384639E-009  0.1835274E+03  0.7561462E-02  0.1164432E+00
          1   -1    0    0  501    0  0.00000000000E+00  0.00000000000E+00  0.89284116661E+02  0.89284116661E+02  0.00000000000E+00 0. -1.
         -1   -1    0    0    0  501 -0.00000000000E+00 -0.00000000000E+00 -0.50102932834E+03  0.50102932834E+03  0.00000000000E+00 0.  1.
         25    2    1    2    0    0  0.11524221637E+03 -0.13307956448E+03 -0.26785930424E+03  0.34407421385E+03  0.12509004298E+03 0.  0.
          5    1    3    3  502    0  0.21275232587E+02 -0.90901891374E+01 -0.14196694017E+03  0.14390049187E+03  0.41800000000E+01 0.  1.
         -5    1    3    3    0  502  0.93966983785E+02 -0.12398937534E+03 -0.12589236407E+03  0.20017372198E+03  0.41800000000E+01 0.  1.
        -11    1    1    2    0    0 -0.10843647531E+03  0.80891454409E+02 -0.13805014551E+03  0.19328667634E+03  0.00000000000E+00 0. -1.
         11    1    1    2    0    0 -0.68057410662E+01  0.52188110072E+02 -0.58357619303E+01  0.52952554817E+02  0.00000000000E+00 0.  1.
</event>
<event>
 7    1  0.2384639E-009  0.8874329E+02  0.7561462E-02  0.1305924E+00
          4   -1    0    0  501    0  0.00000000000E+00  0.00000000000E+00  0.67231152946E+03  0.67231152946E+03  0.00000000000E+00 0. -1.
         -4   -1    0    0    0  501 -0.00000000000E+00 -0.00000000000E+00 -0.25798346948E+02  0.25798346948E+02  0.00000000000E+00 0.  1.
         25    2    1    2    0    0 -0.26948497803E+02  0.13101298036E+02  0.55159232940E+03  0.56639180749E+03  0.12509083174E+03 0.  0.
          5    1    3    3  502    0  0.48643191997E+02  0.76349195595E+01  0.15800447087E+03  0.16555161533E+03  0.41800000000E+01 0.  1.
         -5    1    3    3    0  502 -0.75591689800E+02  0.54663784760E+01  0.39358785854E+03  0.40084019215E+03  0.41800000000E+01 0.  1.
        -11    1    1    2    0    0 -0.94240458817E+01 -0.12671041750E+02  0.94014702284E+02  0.95331695596E+02  0.00000000000E+00 0. -1.
         11    1    1    2    0    0  0.36372543685E+02 -0.43025628543E+00  0.90615082580E+00  0.36386373327E+02  0.00000000000E+00 0.  1.
</event>
<event>
 7    1  0.2384639E-009  0.1772845E+03  0.7561462E-02  0.1170457E+00
          1   -1    0    0  501    0  0.00000000000E+00  0.00000000000E+00  0.95630627807E+03  0.95630627807E+03  0.00000000000E+00 0. -1.
         -1   -1    0    0    0  501 -0.00000000000E+00 -0.00000000000E+00 -0.40126766132E+02  0.40126766132E+02  0.00000000000E+00 0.  1.
         25    2    1    2    0    0 -0.96704511697E+02  0.11189277282E+03  0.65339059962E+03  0.68149645448E+03  0.12508551715E+03 0.  0.
          5    1    3    3  502    0  0.10309943145E+02 -0.12647706634E+02  0.15824038481E+02  0.23111296039E+02  0.41800000000E+01 0.  1.
         -5    1    3    3    0  502 -0.10701445484E+03  0.12454047945E+03  0.63756656114E+03  0.65838515844E+03  0.41800000000E+01 0.  1.
        -11    1    1    2    0    0 -0.17612635664E+02 -0.95582598240E+01  0.33935953246E+02  0.39410838466E+02  0.00000000000E+00 0.  1.
         11    1    1    2    0    0  0.11431714736E+03 -0.10233451299E+03  0.22885295907E+03  0.27552575126E+03  0.00000000000E+00 0. -1.
</event>
<event>
 7    1  0.2384639E-009  0.6418632E+02  0.7561462E-02  0.1381059E+00
          2   -1    0    0  501    0  0.00000000000E+00  0.00000000000E+00  0.11739297786E+03  0.11739297786E+03  0.00000000000E+00 0. -1.
         -2   -1    0    0    0  501 -0.00000000000E+00 -0.00000000000E+00 -0.10311030608E+03  0.10311030608E+03  0.00000000000E+00 0.  1.
         25    2    1    2    0    0  0.19053984293E+02 -0.34180401913E+01 -0.15083827775E+01  0.12658795109E+03  0.12508995494E+03 0.  0.
          5    1    3    3  502    0  0.47336676880E+01  0.35175317067E+02 -0.50876305400E+02  0.62173799882E+02  0.41800000000E+01 0. -1.
         -5    1    3    3    0  502  0.14320316605E+02 -0.38593357259E+02  0.49367922623E+02  0.64414151211E+02  0.41800000000E+01 0. -1.
        -11    1    1    2    0    0 -0.24935704533E+02 -0.16889096805E+02  0.47238182632E+02  0.56022110365E+02  0.00000000000E+00 0. -1.
         11    1    1    2    0    0  0.58817202397E+01  0.20307136996E+02 -0.31447128072E+02  0.37893222480E+02  0.00000000000E+00 0.  1.
</event>
<event>
 7    1  0.2384639E-009  0.1076468E+03  0.7561462E-02  0.1264991E+00
         -2   -1    0    0    0  501 -0.00000000000E+00  0.00000000000E+00  0.18974654144E+03  0.18974654144E+03  0.00000000000E+00 0.  1.
          2   -1    0    0  501    0  0.00000000000E+00 -0.00000000000E+00 -0.66851878034E+02  0.66851878034E+02  0.00000000000E+00 0. -1.
         25    2    1    2    0    0  0.30944208574E+02  0.90534242187E+01  0.67788266742E+02  0.14586947614E+03  0.12507256465E+03 0.  0.
          5    1    3    3  502    0 -0.46485587414E+02 -0.14446031822E+01  0.43806243485E+02  0.64026994962E+02  0.41800000000E+01 0. -1.
         -5    1    3    3    0  502  0.77429795988E+02  0.10498027401E+02  0.23982023256E+02  0.81842481178E+02  0.41800000000E+01 0. -1.
        -11    1    1    2    0    0 -0.19706732756E+02 -0.46898110165E+02  0.11979908831E+02  0.52261900736E+02  0.00000000000E+00 0. -1.
         11    1    1    2    0    0 -0.11237475818E+02  0.37844685946E+02  0.43126487832E+02  0.58467042595E+02  0.00000000000E+00 0.  1.
</event>
<event>
 7    1  0.2384639E-009  0.1004439E+03  0.7561462E-02  0.1279365E+00
          2   -1    0    0  501    0  0.00000000000E+00  0.00000000000E+00  0.51456378204E+02  0.51456378204E+02  0.00000000000E+00 0. -1.
         -2   -1    0    0    0  501 -0.00000000000E+00 -0.00000000000E+00 -0.27814429659E+03  0.27814429659E+03  0.00000000000E+00 0.  1.
         25    2    1    2    0    0 -0.32262836966E+02 -0.23073611839E+02 -0.11000432951E+03  0.17123829495E+03  0.12509324096E+03 0.  0.
          5    1    3    3  502    0 -0.43213460470E+02 -0.53990866293E+02 -0.15331088400E+02  0.70957251078E+02  0.41800000000E+01 0.  1.
         -5    1    3    3    0  502  0.10950623504E+02  0.30917254454E+02 -0.94673241106E+02  0.10028104387E+03  0.41800000000E+01 0.  1.
        -11    1    1    2    0    0  0.49427737050E+01 -0.34480465406E+02 -0.73676664238E+02  0.81495916215E+02  0.00000000000E+00 0.  1.
         11    1    1    2    0    0  0.27320063261E+02  0.57554077245E+02 -0.43006924643E+02  0.76866463632E+02  0.00000000000E+00 0. -1.
</event>
<event>
 7    1  0.2384639E-009  0.2265510E+03  0.7561462E-02  0.1129091E+00
          1   -1    0    0  501    0  0.00000000000E+00  0.00000000000E+00  0.36113713770E+03  0.36113713770E+03  0.00000000000E+00 0. -1.
         -1   -1    0    0    0  501 -0.00000000000E+00 -0.00000000000E+00 -0.18233309630E+03  0.18233309630E+03  0.00000000000E+00 0.  1.
         25    2    1    2    0    0 -0.56020567864E+02  0.20530453659E+03 -0.56353142099E+01  0.24691814335E+03  0.12509418843E+03 0.  0.
          5    1    3    3  502    0 -0.35093101055E+01  0.16688353346E+03  0.34300353037E+02  0.17045942513E+03  0.41800000000E+01 0.  1.
         -5    1    3    3    0  502 -0.52511257759E+02  0.38421003133E+02 -0.39935667247E+02  0.76458718218E+02  0.41800000000E+01 0.  1.
        -11    1    1    2    0    0  0.67472790230E+02 -0.15038191897E+03  0.17365152392E+03  0.23942044761E+03  0.00000000000E+00 0. -1.
         11    1    1    2    0    0 -0.11452222366E+02 -0.54922617619E+02  0.10787831689E+02  0.57131643034E+02  0.00000000000E+00 0.  1.
</event>
<event>
 7    1  0.2384639E-009  0.1244901E+03  0.7561462E-02  0.1235868E+00
          1   -1    0    0  501    0  0.00000000000E+00  0.00000000000E+00  0.27828887545E+03  0.27828887545E+03  0.00000000000E+00 0. -1.
         -1   -1    0    0    0  501 -0.00000000000E+00 -0.00000000000E+00 -0.70123860446E+02  0.70123860446E+02  0.00000000000E+00 0.  1.
         25    2    1    2    0    0 -0.85525675217E+02  0.22224260761E+02  0.11742234043E+03  0.19298462958E+03  0.12508597976E+03 0.  0.
          5    1    3    3  502    0 -0.86463760924E+02  0.47639204344E+02  0.32156404320E+02  0.10390852940E+03  0.41800000000E+01 0. -1.
         -5    1    3    3    0  502  0.93808570721E+00 -0.25414943583E+02  0.85265936107E+02  0.89076100174E+02  0.41800000000E+01 0. -1.
        -11    1    1    2    0    0 -0.67911660440E+00 -0.36940840083E+02  0.39422727939E+02  0.54029976342E+02  0.00000000000E+00 0.  1.
         11    1    1    2    0    0  0.86204791822E+02  0.14716579322E+02  0.51319946639E+02  0.10139812998E+03  0.00000000000E+00 0. -1.
</event>
<event>
 7    1  0.2384639E-009  0.9154726E+02  0.7561462E-02  0.1299147E+00
         -1   -1    0    0    0  501 -0.00000000000E+00  0.00000000000E+00  0.44113447582E+02  0.44113447582E+02  0.00000000000E+00 0.  1.
          1   -1    0    0  501    0  0.00000000000E+00 -0.00000000000E+00 -0.39784122539E+03  0.39784122539E+03  0.00000000000E+00 0. -1.
         25    2    1    2    0    0  0.49868647263E+02  0.93458033449E+01 -0.28783577911E+03  0.31791685542E+03  0.12508982855E+03 0.  0.
          5    1    3    3  502    0 -0.13839633476E+02  0.26140622796E+02 -0.87470990789E+01  0.31126383619E+02  0.41800000000E+01 0. -1.
         -5    1    3    3    0  502  0.63708280739E+02 -0.16794819452E+02 -0.27908868003E+03  0.28679047180E+03  0.41800000000E+01 0. -1.
        -11    1    1    2    0    0  0.41154534758E+01  0.23603821605E+02 -0.54824566917E+02  0.59831517525E+02  0.00000000000E+00 0. -1.
         11    1    1    2    0    0 -0.53984100739E+02 -0.32949624950E+02 -0.11067431783E+02  0.64206300028E+02  0.00000000000E+00 0.  1.
</event>
<event>
 7    1  0.2384639E-009  0.2167193E+03  0.7561462E-02  0.1136353E+00
          2   -1    0    0  501    0  0.00000000000E+00  0.00000000000E+00  0.52781828496E+03  0.52781828496E+03  0.00000000000E+00 0. -1.
         -2   -1    0    0    0  501 -0.00000000000E+00 -0.00000000000E+00 -0.96224212710E+02  0.96224212710E+02  0.00000000000E+00 0.  1.
         25    2    1    2    0    0 -0.93036613644E+02  0.16351982601E+03  0.30600426284E+03  0.38036955821E+03  0.12509135446E+03 0.  0.
          5    1    3    3  502    0  0.26625289944E+02  0.66597743799E+02  0.94242969466E+02  0.11850474774E+03  0.41800000000E+01 0. -1.
         -5    1    3    3    0  502 -0.11966190359E+03  0.96922082209E+02  0.21176129337E+03  0.26186481047E+03  0.41800000000E+01 0. -1.
        -11    1    1    2    0    0  0.35461843673E+02 -0.14154847162E+03  0.10025373865E+03  0.17704328366E+03  0.00000000000E+00 0.  1.
         11    1    1    2    0    0  0.57574769971E+02 -0.21971354389E+02  0.25336070756E+02  0.66629655802E+02  0.00000000000E+00 0. -1.
</event>
<event>
 7    1  0.2384639E-009  0.9867503E+02  0.7561462E-02  0.1283107E+00
          1   -1    0    0  501    0  0.00000000000E+00  0.00000000000E+00  0.11371995903E+03  0.11371995903E+03  0.00000000000E+00 0. -1.
         -1   -1    0    0    0  501 -0.00000000000E+00 -0.00000000000E+00 -0.13127636964E+03  0.13127636964E+03  0.00000000000E+00 0.  1.
         25    2    1    2    0    0  0.17337366016E+02 -0.14138876443E+02  0.37819744286E+02  0.13258042853E+03  0.12508694930E+03 0.  0.
          5    1    3    3  502    0 -0.47295072631E+02 -0.11906119268E+02  0.46109006023E+02  0.67246504799E+02  0.41800000000E+01 0. -1.
         -5    1    3    3    0  502  0.64632438647E+02 -0.22327571745E+01 -0.82892617372E+01  0.65333923732E+02  0.41800000000E+01 0. -1.
        -11    1    1    2    0    0 -0.16768949059E+02  0.47425667923E+02 -0.60556000716E+02  0.78723699438E+02  0.00000000000E+00 0.  1.
         11    1    1    2    0    0 -0.56841695731E+00 -0.33286791481E+02  0.51798458185E+01  0.33692200694E+02  0.00000000000E+00 0. -1.
</event>
<event>
 7    1  0.2384639E-009  0.4108983E+02  0.7561462E-02  0.1500341E+00
         -1   -1    0    0    0  501 -0.00000000000E+00  0.00000000000E+00  0.18520860072E+03  0.18520860072E+03  0.00000000000E+00 0.  1.
          1   -1    0    0  501    0  0.00000000000E+00 -0.00000000000E+00 -0.92033811382E+02  0.92033811382E+02  0.00000000000E+00 0. -1.
         25    2    1    2    0    0 -0.33979898026E+01  0.57616856941E+01 -0.25805053314E+02  0.12790620878E+03  0.12509737852E+03 0.  0.
          5    1    3    3  502    0 -0.13289325160E+02 -0.61899594762E+01  0.49040618564E+02  0.51355393395E+02  0.41800000000E+01 0.  1.
         -5    1    3    3    0  502  0.98913353579E+01  0.11951645170E+02 -0.74845671879E+02  0.76550815387E+02  0.41800000000E+01 0.  1.
        -11    1    1    2    0    0  0.24667345772E+02  0.75251631611E+01  0.12142997094E+03  0.12413840610E+03  0.00000000000E+00 0.  1.
         11    1    1    2    0    0 -0.21269355969E+02 -0.13286848855E+02 -0.24501282872E+01  0.25197797215E+02  0.00000000000E+00 0. -1.
</event>
<event>
 7    1  0.2384639E-009  0.2147147E+03  0.7561462E-02  0.1137886E+00
          3   -1    0    0  501    0  0.00000000000E+00  0.00000000000E+00  0.10438961862E+03  0.10438961862E+03  0.00000000000E+00 0. -1.
         -3   -1    0    0    0  501 -0.00000000000E+00 -0.00000000000E+00 -0.47724381048E+03  0.47724381048E+03  0.00000000000E+00 0.  1.
         25    2    1    2    0    0  0.10112092576E+03 -0.16691509285E+03 -0.22512287654E+03  0.32313160284E+03  0.12509050071E+03 0.  0.
          5    1    3    3  502    0 -0.26020976411E+02 -0.52803590691E+02 -0.76754084798E+02  0.96819276678E+02  0.41800000000E+01 0.  1.
         -5    1    3    3    0  502  0.12714190217E+03 -0.11411150216E+03 -0.14836879174E+03  0.22631232616E+03  0.41800000000E+01 0.  1.
        -11    1    1    2    0    0 -0.10395663042E+03  0.15080138366E+03 -0.10137751221E+03  0.20934526100E+03  0.00000000000E+00 0. -1.
         11    1    1    2    0    0  0.28357046682E+01  0.16113709188E+02 -0.46353803117E+02  0.49156565261E+02  0.00000000000E+00 0.  1.
</event>
<event>
 7    1  0.2384639E-009  0.1228345E+03  0.7561462E-02  0.1238493E+00
         -3   -1    0    0    0  501 -0.00000000000E+00  0.00000000000E+00  0.30845984159E+02  0.30845984159E+02  0.00000000000E+00 0.  1.
          3   -1    0    0  501    0  0.00000000000E+00 -0.00000000000E+00 -0.12261813032E+04  0.12261813032E+04  0.00000000000E+00 0. -1.
         25    2    1    2    0    0  0.47006001393E+02  0.35072130483E+02 -0.11107514218E+04  0.11193102063E+04  0.12508796322E+03 0.  0.
          5    1    3    3  502    0  0.86217122382E+02  0.19126843127E+01 -0.73027286852E+03  0.73535908606E+03  0.41800000000E+01 0. -1.
         -5    1    3    3    0  502 -0.39211120989E+02  0.33159446170E+02 -0.38047855324E+03  0.38395112027E+03  0.41800000000E+01 0. -1.
        -11    1    1    2    0    0 -0.25032401694E+02 -0.65588448335E+02 -0.63187607807E+02  0.94451783836E+02  0.00000000000E+00 0. -1.
         11    1    1    2    0    0 -0.21973599699E+02  0.30516317852E+02 -0.21396289494E+02  0.43265297215E+02  0.00000000000E+00 0.  1.
</event>
<event>
 7    1  0.2384639E-009  0.7995971E+02  0.7561462E-02  0.1329166E+00
          1   -1    0    0  501    0  0.00000000000E+00  0.00000000000E+00  0.11304725754E+03  0.11304725754E+03  0.00000000000E+00 0. -1.
         -1   -1    0    0    0  501 -0.00000000000E+00 -0.00000000000E+00 -0.12539314162E+03  0.12539314162E+03  0.00000000000E+00 0.  1.
         25    2    1    2    0    0 -0.49804958729E+02 -0.11970149711E+02  0.78020344382E+01  0.13539645386E+03  0.12509000591E+03 0.  0.
          5    1    3    3  502    0 -0.49516285783E+02  0.16278402259E+02  0.57721842193E+02  0.77885379912E+02  0.41800000000E+01 0. -1.
         -5    1    3    3    0  502 -0.28867294603E+00 -0.28248551970E+02 -0.49919807754E+02  0.57511073949E+02  0.41800000000E+01 0. -1.
        -11    1    1    2    0    0  0.51425524491E+02  0.30950955880E+02 -0.42597647697E+02  0.73600990675E+02  0.00000000000E+00 0.  1.
         11    1    1    2    0    0 -0.16205657615E+01 -0.18980806169E+02  0.22449729180E+02  0.29442954615E+02  0.00000000000E+00 0. -1.
</event>
<event>
 7    1  0.2384639E-009  0.1742476E+03  0.7561462E-02  0.1173489E+00
          1   -1    0    0  501    0  0.00000000000E+00  0.00000000000E+00  0.65099881966E+03  0.65099881966E+03  0.00000000000E+00 0. -1.
         -1   -1    0    0    0  501 -0.00000000000E+00 -0.00000000000E+00 -0.48372728921E+02  0.48372728921E+02  0.00000000000E+00 0.  1.
         25    2    1    2    0    0 -0.80595283404E+02  0.11292982651E+03  0.34632347217E+03  0.39349065195E+03  0.12508477278E+03 0.  0.
          5    1    3    3  502    0 -0.77322700233E+00  0.10640887215E+03  0.19080504461E+03  0.21851197542E+03  0.41800000000E+01 0.  1.
         -5    1    3    3    0  502 -0.79822056402E+02  0.65209543625E+01  0.15551842755E+03  0.17497867654E+03  0.41800000000E+01 0.  1.
        -11    1    1    2    0    0 -0.16172005100E+02 -0.31194379638E+02  0.91566281636E+02  0.98076536453E+02  0.00000000000E+00 0.  1.
         11    1    1    2    0    0  0.96767288504E+02 -0.81735446870E+02  0.16473633693E+03  0.20780436017E+03  0.00000000000E+00 0. -1.
</event>
<event>
 7    1  0.2384639E-009  0.9117269E+02  0.7561462E-02  0.1300036E+00
          2   -1    0    0  501    0  0.00000000000E+00  0.00000000000E+00  0.20038518014E+03  0.20038518014E+03  0.00000000000E+00 0. -1.
         -2   -1    0    0    0  501 -0.00000000000E+00 -0.00000000000E+00 -0.67330083816E+02  0.67330083816E+02  0.00000000000E+00 0.  1.
         25    2    1    2    0    0  0.12901103167E+01 -0.98040847524E+01  0.11931454598E+03  0.17314818432E+03  0.12508616386E+03 0.  0.
          5    1    3    3  502    0  0.56004370323E+02  0.22670194655E+02  0.69842365053E+02  0.92443796856E+02  0.41800000000E+01 0.  1.
         -5    1    3    3    0  502 -0.54714260006E+02 -0.32474279408E+02  0.49472180925E+02  0.80704387467E+02  0.41800000000E+01 0.  1.
        -11    1    1    2    0    0 -0.22871516537E+02  0.23232325395E+02 -0.29787924355E+02  0.44160702546E+02  0.00000000000E+00 0.  1.
         11    1    1    2    0    0  0.21581406220E+02 -0.13428240643E+02  0.43528474699E+02  0.50406377085E+02  0.00000000000E+00 0. -1.
</event>
<event>
 7    1  0.2384639E-009  0.1561804E+03  0.7561462E-02  0.1193078E+00
         -1   -1    0    0    0  501 -0.00000000000E+00  0.00000000000E+00  0.29070677175E+03  0.29070677175E+03  0.00000000000E+00 0.  1.
          1   -1    0    0  501    0  0.00000000000E+00 -0.00000000000E+00 -0.10973695000E+03  0.10973695000E+03  0.00000000000E+00 0. -1.
         25    2    1    2    0    0 -0.59178385372E+02  0.12941275644E+03  0.76299714507E+02  0.20425583209E+03  0.12509618574E+03 0.  0.
          5    1    3    3  502    0 -0.24262497130E+02  0.18441416659E+02 -0.32619692249E+02  0.44836049533E+02  0.41800000000E+01 0. -1.
         -5    1    3    3    0  502 -0.34915888242E+02  0.11097133978E+03  0.10891940676E+03  0.15941978256E+03  0.41800000000E+01 0. -1.
        -11    1    1    2    0    0  0.77445466999E+02 -0.12389355538E+03  0.98185498377E+02  0.17603353520E+03  0.00000000000E+00 0.  1.
         11    1    1    2    0    0 -0.18267081627E+02 -0.55192010564E+01  0.64846088683E+01  0.20154354459E+02  0.00000000000E+00 0. -1.
</event>
<event>
 7    1  0.2384639E-009  0.1606054E+03  0.7561462E-02  0.1188015E+00
          2   -1    0    0  501    0  0.00000000000E+00  0.00000000000E+00  0.49824044405E+03  0.49824044405E+03  0.00000000000E+00 0. -1.
         -2   -1    0    0    0  501 -0.00000000000E+00 -0.00000000000E+00 -0.78387224233E+02  0.78387224233E+02  0.00000000000E+00 0.  1.
         25    2    1    2    0    0 -0.12187902267E+03 -0.58225254642E+02  0.35949322894E+03  0.40389105545E+03  0.12509167267E+03 0.  0.
          5    1    3    3  502    0 -0.39116173024E+01  0.32062109932E+02  0.96045799344E+02  0.10141768887E+03  0.41800000000E+01 0.  1.
         -5    1    3    3    0  502 -0.11796740537E+03 -0.90287364574E+02  0.26344742959E+03  0.30247336658E+03  0.41800000000E+01 0.  1.
        -11    1    1    2    0    0  0.10446375652E+03  0.33338851750E+02  0.52139387546E+01  0.10977859818E+03  0.00000000000E+00 0.  1.
         11    1    1    2    0    0  0.17415266155E+02  0.24886402892E+02  0.55146052129E+02  0.62958014657E+02  0.00000000000E+00 0. -1.
</event>
<event>
 7    1  0.2384639E-009  0.1284236E+03  0.7561462E-02  0.1229814E+00
          3   -1    0    0  501    0  0.00000000000E+00  0.00000000000E+00  0.16156987510E+03  0.16156987510E+03  0.00000000000E+00 0. -1.
         -3   -1    0    0    0  501 -0.00000000000E+00 -0.00000000000E+00 -0.11885561685E+03  0.11885561685E+03  0.00000000000E+00 0.  1.
         25    2    1    2    0    0 -0.80004065276E+02 -0.29058574112E+02  0.11450840102E+02  0.15173570833E+03  0.12509017649E+03 0.  0.
          5    1    3    3  502    0 -0.23334073064E+02 -0.73513868809E+02 -0.61076311631E+01  0.77482536300E+02  0.41800000000E+01 0.  1.
         -5    1    3    3    0  502 -0.56669992213E+02  0.44455294698E+02  0.17558471265E+02  0.74253172035E+02  0.41800000000E+01 0.  1.
        -11    1    1    2    0    0  0.25195204734E+01  0.29863589982E+02  0.40791491566E+02  0.50617465111E+02  0.00000000000E+00 0. -1.
         11    1    1    2    0    0  0.77484544803E+02 -0.80501587013E+00 -0.95280734137E+01  0.78072318506E+02  0.00000000000E+00 0.  1.
</event>
<event>
 7    1  0.2384639E-009  0.1657388E+03  0.7561462E-02  0.1182366E+00
         -1   -1    0    0    0  501 -0.00000000000E+00  0.00000000000E+00  0.19245235993E+03  0.19245235993E+03  0.00000000000E+00 0.  1.
          1   -1    0    0  501    0  0.00000000000E+00 -0.00000000000E+00 -0.37963592080E+03  0.37963592080E+03  0.00000000000E+00 0. -1.
         25    2    1    2    0    0 -0.12109694527E+03  0.70677612748E+02  0.11980928733E+03  0.22284804782E+03  0.12508873646E+03 0.  0.
          5    1    3    3  502    0  0.46852280077E+01  0.49628753343E+02  0.34222471539E+01  0.50141287334E+02  0.41800000000E+01 0. -1.
         -5    1    3    3    0  502 -0.12578217328E+03  0.21048859405E+02  0.11638704018E+03  0.17270676049E+03  0.41800000000E+01 0. -1.
        -11    1    1    2    0    0  0.11881123652E+03 -0.43414460448E+02 -0.18429902639E+03  0.22353312154E+03  0.00000000000E+00 0.  1.
         11    1    1    2    0    0  0.22857087541E+01 -0.27263152300E+02 -0.12269382181E+03  0.12570711137E+03  0.00000000000E+00 0. -1.
</event>
<event>
 7    1  0.2384639E-009  0.1041582E+03  0.7561462E-02  0.1271787E+00
          2   -1    0    0  501    0  0.00000000000E+00  0.00000000000E+00  0.12709873776E+03  0.12709873776E+03  0.00000000000E+00 0. -1.
         -2   -1    0    0    0  501 -0.00000000000E+00 -0.00000000000E+00 -0.11735184535E+03  0.11735184535E+03  0.00000000000E+00 0.  1.
         25    2    1    2    0    0  0.13476101359E+02 -0.40353878212E+02  0.43992428570E+02  0.13925739501E+03  0.12508895834E+03 0.  0.
          5    1    3    3  502    0  0.31245331599E+02  0.28162870677E+02  0.52986597006E+02  0.67782519087E+02  0.41800000000E+01 0. -1.
         -5    1    3    3    0  502 -0.17769230239E+02 -0.68516748889E+02 -0.89941684368E+01  0.71474875918E+02  0.41800000000E+01 0. -1.
        -11    1    1    2    0    0 -0.12660339885E+02  0.67148177646E+02 -0.37900581691E+02  0.78138441626E+02  0.00000000000E+00 0.  1.
         11    1    1    2    0    0 -0.81576147470E+00 -0.26794299434E+02  0.36550455290E+01  0.27054746474E+02  0.00000000000E+00 0. -1.
</event>
<event>
 7    1  0.2927657E-009  0.1256198E+03  0.7561462E-02  0.1234104E+00
          2   -1    0    0  501    0  0.00000000000E+00  0.00000000000E+00  0.89213882462E+03  0.89213882462E+03  0.00000000000E+00 0. -1.
         -2   -1    0    0    0  501 -0.00000000000E+00 -0.00000000000E+00 -0.25849123577E+02  0.25849123577E+02  0.00000000000E+00 0.  1.
         25    2    1    2    0    0  0.17281503085E+02  0.93128222370E+02  0.60909673297E+03  0.62898195952E+03  0.12509180282E+03 0.  0.
          5    1    3    3  502    0 -0.31416721332E+02  0.33016366971E+02  0.44683767234E+03  0.44917532066E+03  0.41800000000E+01 0.  1.
         -5    1    3    3    0  502  0.48698224418E+02  0.60111855399E+02  0.16225906064E+03  0.17980663886E+03  0.41800000000E+01 0.  1.
        -11    1    1    2    0    0  0.20297877386E+02 -0.87712341351E+02  0.14618236858E+03  0.17168210022E+03  0.00000000000E+00 0.  1.
         11    1    1    2    0    0 -0.37579380471E+02 -0.54158810188E+01  0.11101059948E+03  0.11732388845E+03  0.00000000000E+00 0. -1.
</event>
<event>
 7    1  0.2384639E-009  0.1881041E+03  0.7561462E-02  0.1160182E+00
         -1   -1    0    0    0  501 -0.00000000000E+00  0.00000000000E+00  0.18372091265E+03  0.18372091265E+03  0.00000000000E+00 0.  1.
          1   -1    0    0  501    0  0.00000000000E+00 -0.00000000000E+00 -0.24330233217E+03  0.24330233217E+03  0.00000000000E+00 0. -1.
         25    2    1    2    0    0  0.17612961554E+03  0.44087691712E+02 -0.60858923672E+01  0.22056696042E+03  0.12508948761E+03 0.  0.
          5    1    3    3  502    0  0.17628809914E+03  0.52855356839E+02  0.27023729887E+02  0.18606164844E+03  0.41800000000E+01 0. -1.
         -5    1    3    3    0  502 -0.15848359614E+00 -0.87676651274E+01 -0.33109622254E+02  0.34505311977E+02  0.41800000000E+01 0. -1.
        -11    1    1    2    0    0 -0.11011380023E+03 -0.36242520547E+02 -0.73219309112E+02  0.13711176654E+03  0.00000000000E+00 0. -1.
         11    1    1    2    0    0 -0.66015815307E+02 -0.78451711646E+01  0.19723781960E+02  0.69344517851E+02  0.00000000000E+00 0.  1.
</event>
<event>
 7    1  0.2384639E-009  0.1169519E+03  0.7561462E-02  0.1248212E+00
         -1   -1    0    0    0  501 -0.00000000000E+00  0.00000000000E+00  0.72439473086E+02  0.72439473086E+02  0.00000000000E+00 0.  1.
          1   -1    0    0  501    0  0.00000000000E+00 -0.00000000000E+00 -0.41532384551E+03  0.41532384551E+03  0.00000000000E+00 0. -1.
         25    2    1    2    0    0 -0.26756128180E+02  0.92148131060E+02 -0.48919698332E+02  0.16507325858E+03  0.12509546499E+03 0.  0.
          5    1    3    3  502    0 -0.64853389089E+00  0.99277058603E+02 -0.77106418794E+02  0.12577450926E+03  0.41800000000E+01 0.  1.
         -5    1    3    3    0  502 -0.26107594289E+02 -0.71289275433E+01  0.28186720462E+02  0.39298749317E+02  0.41800000000E+01 0.  1.
        -11    1    1    2    0    0  0.34136509981E+02 -0.32778429228E+02 -0.40589857082E+02  0.62347920849E+02  0.00000000000E+00 0.  1.
         11    1    1    2    0    0 -0.73803818011E+01 -0.59369701832E+02 -0.25337481701E+03  0.26034213917E+03  0.00000000000E+00 0. -1.
</event>
<event>
 7    1  0.2384639E-009  0.1868877E+03  0.7561462E-02  0.1161299E+00
         -2   -1    0    0    0  501 -0.00000000000E+00  0.00000000000E+00  0.46176404210E+02  0.46176404210E+02  0.00000000000E+00 0. -1.
          2   -1    0    0  501    0  0.00000000000E+00 -0.00000000000E+00 -0.10838542969E+04  0.10838542969E+04  0.00000000000E+00 0.  1.
         25    2    1    2    0    0 -0.16306202094E+03  0.62855633339E+02 -0.75956133230E+03  0.78938030771E+03  0.12509116419E+03 0.  0.
          5    1    3    3  502    0 -0.10985063875E+03  0.23907191762E+02 -0.23352672253E+03  0.25921211234E+03  0.41800000000E+01 0. -1.
         -5    1    3    3    0  502 -0.53211382185E+02  0.38948441577E+02 -0.52603460978E+03  0.53016819537E+03  0.41800000000E+01 0. -1.
        -11    1    1    2    0    0  0.95701222292E+02  0.97061086617E+01 -0.11604244210E+03  0.15072750532E+03  0.00000000000E+00 0.  1.
         11    1    1    2    0    0  0.67360798644E+02 -0.72561742001E+02 -0.16207411831E+03  0.18992288809E+03  0.00000000000E+00 0. -1.
</event>
<event>
 7    1  0.2946241E-009  0.1249103E+03  0.7561462E-02  0.1235210E+00
          2   -1    0    0  501    0  0.00000000000E+00  0.00000000000E+00  0.15167229803E+04  0.15167229803E+04  0.00000000000E+00 0. -1.
         -2   -1    0    0    0  501 -0.00000000000E+00 -0.00000000000E+00 -0.15622471849E+02  0.15622471849E+02  0.00000000000E+00 0.  1.
         25    2    1    2    0    0  0.19190270215E+02  0.74898110477E+02  0.11887159175E+04  0.11977773609E+04  0.12508829017E+03 0.  0.
          5    1    3    3  502    0  0.56157925493E+02 -0.11946089896E+01  0.31785140660E+03  0.32280354515E+03  0.41800000000E+01 0.  1.
         -5    1    3    3    0  502 -0.36967655279E+02  0.76092719467E+02  0.87086451090E+03  0.87497381575E+03  0.41800000000E+01 0.  1.
        -11    1    1    2    0    0 -0.41868378358E+02 -0.14548280270E+02  0.63300740336E+02  0.77276110747E+02  0.00000000000E+00 0.  1.
         11    1    1    2    0    0  0.22678108143E+02 -0.60349830207E+02  0.24908385063E+03  0.25729198052E+03  0.00000000000E+00 0. -1.
</event>
<event>
 7    1  0.2384639E-009  0.1125932E+03  0.7561462E-02  0.1255842E+00
         -3   -1    0    0    0  501 -0.00000000000E+00  0.00000000000E+00  0.87631607472E+02  0.87631607472E+02  0.00000000000E+00 0.  1.
          3   -1    0    0  501    0  0.00000000000E+00 -0.00000000000E+00 -0.27091226890E+03  0.27091226890E+03  0.00000000000E+00 0. -1.
         25    2    1    2    0    0 -0.60437032217E+02 -0.48047814172E+02 -0.18973019792E+03  0.24001397604E+03  0.12509169990E+03 0.  0.
          5    1    3    3  502    0 -0.53010114203E+02  0.25738120526E+02 -0.13619365424E+03  0.14845439337E+03  0.41800000000E+01 0.  1.
         -5    1    3    3    0  502 -0.74269180140E+01 -0.73785934698E+02 -0.53536543680E+02  0.91559582675E+02  0.41800000000E+01 0.  1.
        -11    1    1    2    0    0  0.37812912613E+02  0.56241944255E+02 -0.30594233249E+02  0.74357109694E+02  0.00000000000E+00 0. -1.
         11    1    1    2    0    0  0.22624119604E+02 -0.81941300838E+01  0.37043769741E+02  0.44172790633E+02  0.00000000000E+00 0.  1.
</event>
<event>
 7    1  0.2384639E-009  0.8662056E+02  0.7561462E-02  0.1311248E+00
          1   -1    0    0  501    0  0.00000000000E+00  0.00000000000E+00  0.51866827611E+03  0.51866827611E+03  0.00000000000E+00 0. -1.
         -1   -1    0    0    0  501 -0.00000000000E+00 -0.00000000000E+00 -0.49653313212E+02  0.49653313212E+02  0.00000000000E+00 0.  1.
         25    2    1    2    0    0  0.28253322333E+02  0.50268011287E+02  0.69668288210E+02  0.15435803529E+03  0.12509040529E+03 0.  0.
          5    1    3    3  502    0  0.17686483066E+02  0.49692625642E+02 -0.25343065694E+02  0.58667811492E+02  0.41800000000E+01 0.  1.
         -5    1    3    3    0  502  0.10566839266E+02  0.57538564468E+00  0.95011353904E+02  0.95690223803E+02  0.41800000000E+01 0.  1.
        -11    1    1    2    0    0  0.24180726512E+02 -0.51076376423E+02  0.21509381417E+03  0.22239346361E+03  0.00000000000E+00 0.  1.
         11    1    1    2    0    0 -0.52434048845E+02  0.80836513612E+00  0.18425286052E+03  0.19157009042E+03  0.00000000000E+00 0. -1.
</event>
<event>
 7    1  0.3514004E-009  0.1434898E+03  0.7561462E-02  0.1208709E+00
          2   -1    0    0  501    0  0.00000000000E+00  0.00000000000E+00  0.14939683684E+04  0.14939683684E+04  0.00000000000E+00 0. -1.
         -2   -1    0    0    0  501 -0.00000000000E+00 -0.00000000000E+00 -0.14931914098E+02  0.14931914098E+02  0.00000000000E+00 0.  1.
         25    2    1    2    0    0 -0.13005146862E+01 -0.97694874714E+02  0.95700476051E+03  0.97007789598E+03  0.12508809994E+03 0.  0.
          5    1    3    3  502    0  0.49220483733E+02 -0.94365166869E+02  0.58460546732E+03  0.59422930386E+03  0.41800000000E+01 0.  1.
         -5    1    3    3    0  502 -0.50520998420E+02 -0.33297078448E+01  0.37239929319E+03  0.37584859213E+03  0.41800000000E+01 0.  1.
        -11    1    1    2    0    0 -0.41430703244E+02  0.37762015987E+02  0.29094242962E+03  0.29629372314E+03  0.00000000000E+00 0.  1.
         11    1    1    2    0    0  0.42731217930E+02  0.59932858727E+02  0.23108926418E+03  0.24252866338E+03  0.00000000000E+00 0. -1.
</event>
<event>
 7    1  0.2384639E-009  0.1150162E+03  0.7561462E-02  0.1251553E+00
          1   -1    0    0  501    0  0.00000000000E+00  0.00000000000E+00  0.35034556211E+03  0.35034556211E+03  0.00000000000E+00 0. -1.
         -1   -1    0    0    0  501 -0.00000000000E+00 -0.00000000000E+00 -0.61766541930E+02  0.61766541930E+02  0.00000000000E+00 0.  1.
         25    2    1    2    0    0  0.76276101034E+02 -0.59210664877E+02  0.12842270332E+03  0.20362712567E+03  0.12509064375E+03 0.  0.
          5    1    3    3  502    0  0.92639665912E+01 -0.40537996975E+02 -0.14810738143E+02  0.44339380240E+02  0.41800000000E+01 0.  1.
         -5    1    3    3    0  502  0.67012134443E+02 -0.18672667902E+02  0.14323344146E+03  0.15928774543E+03  0.41800000000E+01 0.  1.
        -11    1    1    2    0    0  0.12356582177E+02  0.76307522563E+00 -0.39803396469E+01  0.13004249713E+02  0.00000000000E+00 0.  1.
         11    1    1    2    0    0 -0.88632683211E+02  0.58447589651E+02  0.16413665651E+03  0.19548072866E+03  0.00000000000E+00 0. -1.
</event>
<event>
 7    1  0.2384639E-009  0.9423500E+02  0.7561462E-02  0.1292908E+00
         -2   -1    0    0    0  501 -0.00000000000E+00  0.00000000000E+00  0.22352175478E+03  0.22352175478E+03  0.00000000000E+00 0.  1.
          2   -1    0    0  501    0  0.00000000000E+00 -0.00000000000E+00 -0.54528765855E+02  0.54528765855E+02  0.00000000000E+00 0. -1.
         25    2    1    2    0    0 -0.85641796615E+01 -0.16455408576E+02  0.10701095294E+03  0.16566006820E+03  0.12509112079E+03 0.  0.
          5    1    3    3  502    0 -0.67763028367E+01 -0.66284426471E+02  0.28565358369E+02  0.72615394865E+02  0.41800000000E+01 0. -1.
         -5    1    3    3    0  502 -0.17878768248E+01  0.49829017895E+02  0.78445594574E+02  0.93044673335E+02  0.41800000000E+01 0. -1.
        -11    1    1    2    0    0  0.28644212297E+02  0.34385292873E+02  0.71062261627E+02  0.83980261321E+02  0.00000000000E+00 0.  1.
         11    1    1    2    0    0 -0.20080032635E+02 -0.17929884297E+02 -0.90802256415E+01  0.28410191116E+02  0.00000000000E+00 0. -1.
</event>
<event>
 7    1  0.2384639E-009  0.1016461E+03  0.7561462E-02  0.1276872E+00
         -2   -1    0    0    0  501 -0.00000000000E+00  0.00000000000E+00  0.33515187382E+02  0.33515187382E+02  0.00000000000E+00 0.  1.
          2   -1    0    0  501    0  0.00000000000E+00 -0.00000000000E+00 -0.49766892459E+03  0.49766892459E+03  0.00000000000E+00 0. -1.
         25    2    1    2    0    0  0.47281180002E+02  0.52579006662E+02 -0.27144870032E+03  0.30713258015E+03  0.12508382373E+03 0.  0.
          5    1    3    3  502    0  0.43798247958E+02  0.69560739312E+02 -0.79748795544E+02  0.11460508614E+03  0.41800000000E+01 0. -1.
         -5    1    3    3    0  502  0.34829320444E+01 -0.16981732650E+02 -0.19169990478E+03  0.19252749401E+03  0.41800000000E+01 0. -1.
        -11    1    1    2    0    0  0.18400296889E+02 -0.26984646812E+02 -0.22041244263E+02  0.39402519435E+02  0.00000000000E+00 0.  1.
         11    1    1    2    0    0 -0.65681476891E+02 -0.25594359850E+02 -0.17066379263E+03  0.18464901239E+03  0.00000000000E+00 0. -1.
</event>
<event>
 7    1  0.2384639E-009  0.1053344E+03  0.7561462E-02  0.1269462E+00
          2   -1    0    0  501    0  0.00000000000E+00  0.00000000000E+00  0.91208444230E+03  0.91208444230E+03  0.00000000000E+00 0. -1.
         -2   -1    0    0    0  501 -0.00000000000E+00 -0.00000000000E+00 -0.25647486025E+02  0.25647486025E+02  0.00000000000E+00 0.  1.
         25    2    1    2    0    0  0.40952011079E+02  0.18343270302E+00  0.77898918611E+03  0.79003104625E+03  0.12509117117E+03 0.  0.
          5    1    3    3  502    0 -0.32999201439E+02  0.98447509396E+01  0.81795351085E+02  0.88847162452E+02  0.41800000000E+01 0. -1.
         -5    1    3    3    0  502  0.73951212518E+02 -0.96613182366E+01  0.69719383503E+03  0.70118388380E+03  0.41800000000E+01 0. -1.
        -11    1    1    2    0    0  0.29353590975E+02  0.82045914683E+01  0.30014131121E+02  0.42776122910E+02  0.00000000000E+00 0.  1.
         11    1    1    2    0    0 -0.70305602054E+02 -0.83880241713E+01  0.77433639041E+02  0.10492475916E+03  0.00000000000E+00 0. -1.
</event>
<event>
 7    1  0.2384639E-009  0.9112047E+02  0.7561462E-02  0.1300161E+00
          1   -1    0    0  501    0  0.00000000000E+00  0.00000000000E+00  0.98995783948E+02  0.98995783948E+02  0.00000000000E+00 0. -1.
         -1   -1    0    0    0  501 -0.00000000000E+00 -0.00000000000E+00 -0.12741048919E+03  0.12741048919E+03  0.00000000000E+00 0.  1.
         25    2    1    2    0    0 -0.13668341372E+02 -0.10522926988E+02  0.75625802769E+01  0.12650019029E+03  0.12509016738E+03 0.  0.
          5    1    3    3  502    0  0.24553002773E+02 -0.51825187538E+02 -0.23465643308E+02  0.62103211064E+02  0.41800000000E+01 0. -1.
         -5    1    3    3    0  502 -0.38221344145E+02  0.41302260550E+02  0.31028223585E+02  0.64396979227E+02  0.41800000000E+01 0. -1.
        -11    1    1    2    0    0  0.11603077753E+02  0.38525096031E+02  0.13983995832E+02  0.42595382109E+02  0.00000000000E+00 0. -1.
         11    1    1    2    0    0  0.20652636185E+01 -0.28002169043E+02 -0.49961281349E+02  0.57310700737E+02  0.00000000000E+00 0.  1.
</event>
<event>
 7    1  0.2384639E-009  0.1051076E+03  0.7561462E-02  0.1269908E+00
          1   -1    0    0  501    0  0.00000000000E+00  0.00000000000E+00  0.55204228123E+03  0.55204228123E+03  0.00000000000E+00 0. -1.
         -1   -1    0    0    0  501 -0.00000000000E+00 -0.00000000000E+00 -0.22370640543E+02  0.22370640543E+02  0.00000000000E+00 0.  1.
         25    2    1    2    0    0 -0.54821757310E+01  0.30961679383E+02  0.29924695202E+03  0.32586112121E+03  0.12509217476E+03 0.  0.
          5    1    3    3  502    0 -0.24111501090E+02  0.75890195608E+02  0.19825529616E+03  0.21368977779E+03  0.41800000000E+01 0.  1.
         -5    1    3    3    0  502  0.18629325359E+02 -0.44928516225E+02  0.10099165586E+03  0.11217134343E+03  0.41800000000E+01 0.  1.
        -11    1    1    2    0    0  0.36354495559E+02  0.21132141965E+01  0.46059748599E+02  0.58716398583E+02  0.00000000000E+00 0.  1.
         11    1    1    2    0    0 -0.30872319828E+02 -0.33074893579E+02  0.18436494007E+03  0.18983540197E+03  0.00000000000E+00 0. -1.
</event>
<event>
 7    1  0.2384639E-009  0.1009622E+03  0.7561462E-02  0.1278286E+00
          3   -1    0    0  501    0  0.00000000000E+00  0.00000000000E+00  0.64393645433E+02  0.64393645433E+02  0.00000000000E+00 0. -1.
         -3   -1    0    0    0  501 -0.00000000000E+00 -0.00000000000E+00 -0.20973964570E+03  0.20973964570E+03  0.00000000000E+00 0.  1.
         25    2    1    2    0    0  0.11132477177E+02 -0.41022305168E+02 -0.74107230519E+02  0.15147922093E+03  0.12508921293E+03 0.  0.
          5    1    3    3  502    0  0.62185107539E+02 -0.12170564894E+02 -0.96389286829E+01  0.64229989847E+02  0.41800000000E+01 0. -1.
         -5    1    3    3    0  502 -0.51052630363E+02 -0.28851740273E+02 -0.64468301836E+02  0.87249231087E+02  0.41800000000E+01 0. -1.
        -11    1    1    2    0    0  0.28559698048E+02  0.17304487083E+02 -0.68652684744E+02  0.76343256076E+02  0.00000000000E+00 0.  1.
         11    1    1    2    0    0 -0.39692175224E+02  0.23717818085E+02 -0.25860850005E+01  0.46310814119E+02  0.00000000000E+00 0. -1.
</event>
<event>
 7    1  0.2384639E-009  0.2051045E+03  0.7561462E-02  0.1145502E+00
         -1   -1    0    0    0  501 -0.00000000000E+00  0.00000000000E+00  0.12265269453E+03  0.12265269453E+03  0.00000000000E+00 0.  1.
          1   -1    0    0  501    0  0.00000000000E+00 -0.00000000000E+00 -0.43347274530E+03  0.43347274530E+03  0.00000000000E+00 0. -1.
         25    2    1    2    0    0  0.67618849060E+02  0.19158662788E+03 -0.17671295945E+03  0.29690478087E+03  0.12508890494E+03 0.  0.
          5    1    3    3  502    0  0.28830358322E+02  0.10806165666E+03 -0.17122058560E+03  0.20455432661E+03  0.41800000000E+01 0. -1.
         -5    1    3    3    0  502  0.38788490738E+02  0.83524971227E+02 -0.54923738408E+01  0.92350454264E+02  0.41800000000E+01 0. -1.
        -11    1    1    2    0    0  0.98568334260E+00 -0.36569622321E+02 -0.68099237518E+02  0.77303395778E+02  0.00000000000E+00 0.  1.
         11    1    1    2    0    0 -0.68604532402E+02 -0.15501700556E+03 -0.66007853809E+02  0.18191726318E+03  0.00000000000E+00 0. -1.
</event>
<event>
 7    1  0.2384639E-009  0.1406380E+03  0.7561462E-02  0.1212473E+00
         -2   -1    0    0    0  501 -0.00000000000E+00  0.00000000000E+00  0.37493910056E+02  0.37493910056E+02  0.00000000000E+00 0.  1.
          2   -1    0    0  501    0  0.00000000000E+00 -0.00000000000E+00 -0.76969146247E+03  0.76969146247E+03  0.00000000000E+00 0. -1.
         25    2    1    2    0    0  0.22614965420E+01  0.11057332937E+03 -0.55541849701E+03  0.57997186165E+03  0.12508428338E+03 0.  0.
          5    1    3    3  502    0  0.55636847792E+02  0.95571616712E+02 -0.34387734321E+03  0.36124575060E+03  0.41800000000E+01 0. -1.
         -5    1    3    3    0  502 -0.53375351250E+02  0.15001712656E+02 -0.21154115381E+03  0.21872611106E+03  0.41800000000E+01 0. -1.
        -11    1    1    2    0    0  0.14640389539E+02 -0.55729417847E+02 -0.15579369976E+03  0.16610775390E+03  0.00000000000E+00 0. -1.
         11    1    1    2    0    0 -0.16901886081E+02 -0.54843911522E+02 -0.20985355634E+02  0.61105756972E+02  0.00000000000E+00 0.  1.
</event>
<event>
 7    1  0.2384639E-009  0.1850020E+03  0.7561462E-02  0.1163048E+00
         -2   -1    0    0    0  501 -0.00000000000E+00  0.00000000000E+00  0.28897474555E+02  0.28897474555E+02  0.00000000000E+00 0.  1.
          2   -1    0    0  501    0  0.00000000000E+00 -0.00000000000E+00 -0.13253673995E+04  0.13253673995E+04  0.00000000000E+00 0. -1.
         25    2    1    2    0    0  0.90658462749E+02 -0.13043858754E+03 -0.80530567588E+03  0.83029979818E+03  0.12508933313E+03 0.  0.
          5    1    3    3  502    0  0.25602334725E+02 -0.12134503432E+03 -0.37520114100E+03  0.39518788634E+03  0.41800000000E+01 0. -1.
         -5    1    3    3    0  502  0.65056128023E+02 -0.90935532128E+01 -0.43010453488E+03  0.43511191184E+03  0.41800000000E+01 0. -1.
        -11    1    1    2    0    0 -0.10053729048E+03  0.79400260709E+02 -0.38502199904E+03  0.40577590850E+03  0.00000000000E+00 0.  1.
         11    1    1    2    0    0  0.98788277353E+01  0.51038326828E+02 -0.10614225000E+03  0.11818916735E+03  0.00000000000E+00 0. -1.
</event>
<event>
 7    1  0.2384639E-009  0.1563848E+03  0.7561462E-02  0.1192840E+00
          2   -1    0    0  501    0  0.00000000000E+00  0.00000000000E+00  0.16978653378E+03  0.16978653378E+03  0.00000000000E+00 0. -1.
         -2   -1    0    0    0  501 -0.00000000000E+00 -0.00000000000E+00 -0.14578874217E+03  0.14578874217E+03  0.00000000000E+00 0.  1.
         25    2    1    2    0    0  0.30263850867E+02 -0.10585046367E+03  0.15164898148E+02  0.16732469233E+03  0.12508939683E+03 0.  0.
          5    1    3    3  502    0 -0.20978382507E+01  0.27492444559E+02 -0.57192148306E+01  0.28467828358E+02  0.41800000000E+01 0. -1.
         -5    1    3    3    0  502  0.32361689118E+02 -0.13334290823E+03  0.20884112979E+02  0.13885686397E+03  0.41800000000E+01 0. -1.
        -11    1    1    2    0    0  0.27502766636E+02  0.55978490207E+00  0.58153350235E+01  0.28116430307E+02  0.00000000000E+00 0. -1.
         11    1    1    2    0    0 -0.57766617503E+02  0.10529067877E+03  0.30175584333E+01  0.12013415331E+03  0.00000000000E+00 0.  1.
</event>
<event>
 7    1  0.2384639E-009  0.1736176E+03  0.7561462E-02  0.1174127E+00
          1   -1    0    0  501    0  0.00000000000E+00  0.00000000000E+00  0.58178777802E+03  0.58178777802E+03  0.00000000000E+00 0. -1.
         -1   -1    0    0    0  501 -0.00000000000E+00 -0.00000000000E+00 -0.61920448649E+02  0.61920448649E+02  0.00000000000E+00 0.  1.
         25    2    1    2    0    0  0.13929476654E+03 -0.58622411739E+02  0.31733184560E+03  0.37307678941E+03  0.12508865425E+03 0.  0.
          5    1    3    3  502    0  0.10838427879E+03 -0.97787601550E+02  0.24073217959E+03  0.28156530609E+03  0.41800000000E+01 0.  1.
         -5    1    3    3    0  502  0.30910487750E+02  0.39165189811E+02  0.76599666009E+02  0.91511483316E+02  0.41800000000E+01 0.  1.
        -11    1    1    2    0    0 -0.73233566540E+02  0.30504360066E+02  0.31898813983E+02  0.85505588032E+02  0.00000000000E+00 0.  1.
         11    1    1    2    0    0 -0.66061200001E+02  0.28118051672E+02  0.17063666978E+03  0.18512584922E+03  0.00000000000E+00 0. -1.
</event>
<event>
 7    1  0.2384639E-009  0.1595743E+03  0.7561462E-02  0.1189178E+00
          4   -1    0    0  501    0  0.00000000000E+00  0.00000000000E+00  0.28232238511E+03  0.28232238511E+03  0.00000000000E+00 0.  1.
         -4   -1    0    0    0  501 -0.00000000000E+00 -0.00000000000E+00 -0.11771273813E+03  0.11771273813E+03  0.00000000000E+00 0. -1.
         25    2    1    2    0    0 -0.13440649339E+03  0.26751510681E+02  0.33221915668E+02  0.18850934232E+03  0.12510526636E+03 0.  0.
          5    1    3    3  502    0  0.18352346584E+02  0.17838356061E+02  0.23711223213E+02  0.35138441604E+02  0.41800000000E+01 0.  1.
         -5    1    3    3    0  502 -0.15275883997E+03  0.89131546199E+01  0.95106924550E+01  0.15337090071E+03  0.41800000000E+01 0.  1.
        -11    1    1    2    0    0  0.43269462520E+02  0.51645588186E+01  0.10147335279E+03  0.11043441665E+03  0.00000000000E+00 0.  1.
         11    1    1    2    0    0  0.91137030867E+02 -0.31916069499E+02  0.29914378531E+02  0.10109136427E+03  0.00000000000E+00 0. -1.
</event>
<event>
 7    1  0.2384639E-009  0.1440473E+03  0.7561462E-02  0.1207984E+00
         -1   -1    0    0    0  501 -0.00000000000E+00  0.00000000000E+00  0.97949929325E+02  0.97949929325E+02  0.00000000000E+00 0.  1.
          1   -1    0    0  501    0  0.00000000000E+00 -0.00000000000E+00 -0.67062375744E+03  0.67062375744E+03  0.00000000000E+00 0. -1.
         25    2    1    2    0    0 -0.11377230783E+03  0.96798674593E+01 -0.59654814729E+03  0.62012412236E+03  0.12508555964E+03 0.  0.
          5    1    3    3  502    0  0.87270810454E+01  0.22704886118E+02 -0.23885465730E+02  0.34346203143E+02  0.41800000000E+01 0.  1.
         -5    1    3    3    0  502 -0.12249938888E+03 -0.13025018659E+02 -0.57266268157E+03  0.58577791922E+03  0.41800000000E+01 0.  1.
        -11    1    1    2    0    0  0.32416527728E+02  0.34694711996E+02 -0.12168204365E+02  0.49016522805E+02  0.00000000000E+00 0.  1.
         11    1    1    2    0    0  0.81355780104E+02 -0.44374579456E+02  0.36042523544E+02  0.99433041599E+02  0.00000000000E+00 0. -1.
</event>
<event>
 7    1  0.2384639E-009  0.7648937E+02  0.7561462E-02  0.1339320E+00
          1   -1    0    0  501    0  0.00000000000E+00  0.00000000000E+00  0.15617219594E+03  0.15617219594E+03  0.00000000000E+00 0. -1.
         -1   -1    0    0    0  501 -0.00000000000E+00 -0.00000000000E+00 -0.11822514521E+03  0.11822514521E+03  0.00000000000E+00 0.  1.
         25    2    1    2    0    0 -0.26559920369E+02 -0.42560525894E-01 -0.53778324151E+02  0.13872701470E+03  0.12509054831E+03 0.  0.
          5    1    3    3  502    0 -0.44859160493E+02  0.14127442774E+01 -0.88450052217E+02  0.99273482177E+02  0.41800000000E+01 0.  1.
         -5    1    3    3    0  502  0.18299240124E+02 -0.14553048033E+01  0.34671728065E+02  0.39453532519E+02  0.41800000000E+01 0.  1.
        -11    1    1    2    0    0  0.18230242945E+02 -0.42226776333E+02  0.16279177354E+02  0.48789896625E+02  0.00000000000E+00 0.  1.
         11    1    1    2    0    0  0.83296774235E+01  0.42269336859E+02  0.75446197528E+02  0.86880429822E+02  0.00000000000E+00 0. -1.
</event>
<event>
 7    1  0.2384639E-009  0.1157588E+03  0.7561462E-02  0.1250262E+00
         -1   -1    0    0    0  501 -0.00000000000E+00  0.00000000000E+00  0.55302701747E+02  0.55302701747E+02  0.00000000000E+00 0.  1.
          1   -1    0    0  501    0  0.00000000000E+00 -0.00000000000E+00 -0.31134015413E+03  0.31134015413E+03  0.00000000000E+00 0. -1.
         25    2    1    2    0    0  0.32892289721E+02 -0.36839625303E+02 -0.65461990698E+02  0.14957010909E+03  0.12508750774E+03 0.  0.
          5    1    3    3  502    0 -0.26970744103E+02 -0.62462193284E+02 -0.24025052607E+02  0.72274630267E+02  0.41800000000E+01 0. -1.
         -5    1    3    3    0  502  0.59863033824E+02  0.25622567982E+02 -0.41436938091E+02  0.77295478826E+02  0.41800000000E+01 0. -1.
        -11    1    1    2    0    0 -0.41854006266E+01 -0.27412154110E+02 -0.91061296631E+02  0.95189828845E+02  0.00000000000E+00 0. -1.
         11    1    1    2    0    0 -0.28706889094E+02  0.64251779413E+02 -0.99514165053E+02  0.12188291794E+03  0.00000000000E+00 0.  1.
</event>
<event>
 7    1  0.2384639E-009  0.1069292E+03  0.7561462E-02  0.1266365E+00
          1   -1    0    0  501    0  0.00000000000E+00  0.00000000000E+00  0.15334101890E+04  0.15334101890E+04  0.00000000000E+00 0. -1.
         -1   -1    0    0    0  501 -0.00000000000E+00 -0.00000000000E+00 -0.13036341828E+02  0.13036341828E+02  0.00000000000E+00 0.  1.
         25    2    1    2    0    0  0.66443360571E+02  0.61219874899E+02  0.98036423114E+03  0.99243338200E+03  0.12508956297E+03 0.  0.
          5    1    3    3  502    0  0.30297901601E+02  0.36290536517E+02  0.89581087690E+03  0.89706720230E+03  0.41800000000E+01 0. -1.
         -5    1    3    3    0  502  0.36145458970E+02  0.24929338381E+02  0.84553354242E+02  0.95366179696E+02  0.41800000000E+01 0. -1.
        -11    1    1    2    0    0  0.17125514321E+02 -0.27031055332E+02  0.10664926046E+03  0.11134642316E+03  0.00000000000E+00 0.  1.
         11    1    1    2    0    0 -0.83568874892E+02 -0.34188819566E+02  0.43336035557E+03  0.44266672566E+03  0.00000000000E+00 0. -1.
</event>
<event>
 7    1  0.2384639E-009  0.9810563E+02  0.7561462E-02  0.1284331E+00
         -2   -1    0    0    0  501 -0.00000000000E+00  0.00000000000E+00  0.27673672187E+03  0.27673672187E+03  0.00000000000E+00 0.  1.
          2   -1    0    0  501    0  0.00000000000E+00 -0.00000000000E+00 -0.46796418243E+02  0.46796418243E+02  0.00000000000E+00 0. -1.
         25    2    1    2    0    0  0.24848682488E+02 -0.96673569431E+01  0.18727589201E+03  0.22678108405E+03  0.12508591266E+03 0.  0.
          5    1    3    3  502    0  0.50088015492E+02 -0.55688797165E+02  0.11660094612E+03  0.13864813183E+03  0.41800000000E+01 0.  1.
         -5    1    3    3    0  502 -0.25239333004E+02  0.46021440222E+02  0.70674945890E+02  0.88132952221E+02  0.41800000000E+01 0.  1.
        -11    1    1    2    0    0 -0.24887687918E+02  0.35143806860E+02 -0.43456869895E+01  0.43282434842E+02  0.00000000000E+00 0. -1.
         11    1    1    2    0    0  0.39005429951E-01 -0.25476449916E+02  0.47010098613E+02  0.53469621219E+02  0.00000000000E+00 0.  1.
</event>
<event>
 7    1  0.2384639E-009  0.1483512E+03  0.7561462E-02  0.1202514E+00
          2   -1    0    0  501    0  0.00000000000E+00  0.00000000000E+00  0.42770398040E+03  0.42770398040E+03  0.00000000000E+00 0. -1.
         -2   -1    0    0    0  501 -0.00000000000E+00 -0.00000000000E+00 -0.55734003883E+02  0.55734003883E+02  0.00000000000E+00 0.  1.
         25    2    1    2    0    0  0.10747282954E+03  0.15779539819E+02  0.22415568223E+03  0.27873615138E+03  0.12509464114E+03 0.  0.
          5    1    3    3  502    0  0.13129025581E+03  0.25406533869E+02  0.21029810682E+03  0.24924965269E+03  0.41800000000E+01 0. -1.
         -5    1    3    3    0  502 -0.23817426271E+02 -0.96269940502E+01  0.13857575417E+02  0.29486498692E+02  0.41800000000E+01 0. -1.
        -11    1    1    2    0    0 -0.76101738476E+02 -0.49533859736E+02  0.71584806288E+02  0.11562639124E+03  0.00000000000E+00 0.  1.
         11    1    1    2    0    0 -0.31371091066E+02  0.33754319917E+02  0.76229487991E+02  0.89075441660E+02  0.00000000000E+00 0. -1.
</event>
<event>
 7    1  0.2384639E-009  0.9411778E+02  0.7561462E-02  0.1293176E+00
          3   -1    0    0  501    0  0.00000000000E+00  0.00000000000E+00  0.32970310223E+02  0.32970310223E+02  0.00000000000E+00 0. -1.
         -3   -1    0    0    0  501 -0.00000000000E+00 -0.00000000000E+00 -0.39186192739E+03  0.39186192739E+03  0.00000000000E+00 0.  1.
         25    2    1    2    0    0 -0.55772265502E+01 -0.35294488758E+02 -0.22127571863E+03  0.25668498584E+03  0.12508969545E+03 0.  0.
          5    1    3    3  502    0 -0.54590189776E+02 -0.17999233910E+02 -0.45767461048E+02  0.73594796908E+02  0.41800000000E+01 0. -1.
         -5    1    3    3    0  502  0.49012963226E+02 -0.17295254847E+02 -0.17550825758E+03  0.18309018894E+03  0.41800000000E+01 0. -1.
        -11    1    1    2    0    0  0.34566956285E+02  0.24527992896E+01 -0.14671448439E+02  0.37631663402E+02  0.00000000000E+00 0. -1.
         11    1    1    2    0    0 -0.28989729735E+02  0.32841689468E+02 -0.12294445010E+03  0.13051558837E+03  0.00000000000E+00 0.  1.
</event>
<event>
 7    1  0.2384639E-009  0.1062262E+03  0.7561462E-02  0.1267722E+00
          1   -1    0    0  501    0  0.00000000000E+00  0.00000000000E+00  0.79948448490E+03  0.79948448490E+03  0.00000000000E+00 0. -1.
         -1   -1    0    0    0  501 -0.00000000000E+00 -0.00000000000E+00 -0.26093433433E+02  0.26093433433E+02  0.00000000000E+00 0.  1.
         25    2    1    2    0    0  0.31444141706E+02 -0.83902558413E+02  0.51620989419E+03  0.53865533178E+03  0.12509411751E+03 0.  0.
          5    1    3    3  502    0  0.30132604571E+02 -0.18220937449E+02  0.25814607352E+02  0.43861632123E+02  0.41800000000E+01 0.  1.
         -5    1    3    3    0  502  0.13115371346E+01 -0.65681620963E+02  0.49039528684E+03  0.49479369966E+03  0.41800000000E+01 0.  1.
        -11    1    1    2    0    0 -0.51703512912E+02  0.67916400850E+02  0.24282667765E+03  0.25739208638E+03  0.00000000000E+00 0. -1.
         11    1    1    2    0    0  0.20259371206E+02  0.15986157563E+02  0.14354479618E+02  0.29530500171E+02  0.00000000000E+00 0.  1.
</event>
<event>
 7    1  0.2384639E-009  0.1378698E+03  0.7561462E-02  0.1216224E+00
          1   -1    0    0  501    0  0.00000000000E+00  0.00000000000E+00  0.33351651512E+03  0.33351651512E+03  0.00000000000E+00 0. -1.
         -1   -1    0    0    0  501 -0.00000000000E+00 -0.00000000000E+00 -0.73930432259E+02  0.73930432259E+02  0.00000000000E+00 0.  1.
         25    2    1    2    0    0  0.10326477395E+03 -0.35875313693E+02  0.11718632161E+03  0.20330415895E+03  0.12509714386E+03 0.  0.
          5    1    3    3  502    0  0.40156308308E+02 -0.67785014221E+02  0.10513402501E+03  0.13144570310E+03  0.41800000000E+01 0.  1.
         -5    1    3    3    0  502  0.63108465639E+02  0.31909700528E+02  0.12052296605E+02  0.71858455845E+02  0.41800000000E+01 0.  1.
        -11    1    1    2    0    0 -0.23380041758E+02 -0.18120521426E+02  0.89289850331E+02  0.94061984996E+02  0.00000000000E+00 0. -1.
         11    1    1    2    0    0 -0.79884732189E+02  0.53995835120E+02  0.53109910917E+02  0.11008080343E+03  0.00000000000E+00 0.  1.
</event>
<event>
 7    1  0.2384639E-009  0.9688946E+02  0.7561462E-02  0.1286976E+00
          1   -1    0    0  501    0  0.00000000000E+00  0.00000000000E+00  0.27821444172E+02  0.27821444172E+02  0.00000000000E+00 0. -1.
         -1   -1    0    0    0  501 -0.00000000000E+00 -0.00000000000E+00 -0.50824278835E+03  0.50824278835E+03  0.00000000000E+00 0.  1.
         25    2    1    2    0    0  0.64227466012E+01  0.37028485565E+02 -0.21009875385E+03  0.24738803314E+03  0.12508793768E+03 0.  0.
          5    1    3    3  502    0  0.38953986878E+02  0.51991845013E+02 -0.19943796026E+03  0.20979403574E+03  0.41800000000E+01 0.  1.
         -5    1    3    3    0  502 -0.32531240276E+02 -0.14963359448E+02 -0.10660793592E+02  0.37593997392E+02  0.41800000000E+01 0.  1.
        -11    1    1    2    0    0 -0.21626828598E+02 -0.60731753243E+02 -0.12494482372E+03  0.14059613986E+03  0.00000000000E+00 0. -1.
         11    1    1    2    0    0  0.15204081997E+02  0.23703267678E+02 -0.14537776660E+03  0.14808005953E+03  0.00000000000E+00 0.  1.
</event>
<event>
 7    1  0.2384639E-009  0.1193741E+03  0.7561462E-02  0.1244133E+00
          2   -1    0    0  501    0  0.00000000000E+00  0.00000000000E+00  0.12482336640E+03  0.12482336640E+03  0.00000000000E+00 0. -1.
         -2   -1    0    0    0  501 -0.00000000000E+00 -0.00000000000E+00 -0.13420598931E+03  0.13420598931E+03  0.00000000000E+00 0.  1.
         25    2    1    2    0    0 -0.56230782293E+02 -0.40656946943E+02  0.78181155210E+01  0.14326037236E+03  0.12509006014E+03 0.  0.
          5    1    3    3  502    0  0.24032228453E+02 -0.37178886914E+02 -0.30732516630E+02  0.54053469962E+02  0.41800000000E+01 0.  1.
         -5    1    3    3    0  502 -0.80263010746E+02 -0.34780600295E+01  0.38550632151E+02  0.89206902394E+02  0.41800000000E+01 0.  1.
        -11    1    1    2    0    0  0.59970146186E+02 -0.11904483252E+02 -0.15371401488E+02  0.63042962643E+02  0.00000000000E+00 0.  1.
         11    1    1    2    0    0 -0.37393638934E+01  0.52561430195E+02 -0.18293369466E+01  0.52726020713E+02  0.00000000000E+00 0. -1.
</event>
<event>
 7    1  0.2384639E-009  0.1212677E+03  0.7561462E-02  0.1241020E+00
          1   -1    0    0  501    0  0.00000000000E+00  0.00000000000E+00  0.83535113131E+02  0.83535113131E+02  0.00000000000E+00 0. -1.
         -1   -1    0    0    0  501 -0.00000000000E+00 -0.00000000000E+00 -0.19107553240E+03  0.19107553240E+03  0.00000000000E+00 0.  1.
         25    2    1    2    0    0 -0.11894227474E+02 -0.59141564867E+02 -0.84355524813E+02  0.16248877328E+03  0.12509016561E+03 0.  0.
          5    1    3    3  502    0 -0.40634261039E+02 -0.85729733244E+02 -0.77384822987E+02  0.12250148391E+03  0.41800000000E+01 0. -1.
         -5    1    3    3    0  502  0.28740033565E+02  0.26588168376E+02 -0.69707018252E+01  0.39987289366E+02  0.41800000000E+01 0. -1.
        -11    1    1    2    0    0  0.45307460385E+02  0.63943142569E+01 -0.18992501604E+02  0.49541581913E+02  0.00000000000E+00 0.  1.
         11    1    1    2    0    0 -0.33413232911E+02  0.52747250611E+02 -0.41923928487E+01  0.62580290334E+02  0.00000000000E+00 0. -1.
</event>
<event>
 7    1  0.2384639E-009  0.1688536E+03  0.7561462E-02  0.1179049E+00
         -1   -1    0    0    0  501 -0.00000000000E+00  0.00000000000E+00  0.33723272183E+03  0.33723272183E+03  0.00000000000E+00 0.  1.
          1   -1    0    0  501    0  0.00000000000E+00 -0.00000000000E+00 -0.10170275869E+03  0.10170275869E+03  0.00000000000E+00 0. -1.
         25    2    1    2    0    0  0.62748848426E+02  0.13190143695E+03  0.16168374256E+03  0.25125321264E+03  0.12510450512E+03 0.  0.
          5    1    3    3  502    0 -0.31884430766E+02  0.29756379796E+02  0.92987405785E+01  0.44788369475E+02  0.41800000000E+01 0. -1.
         -5    1    3    3    0  502  0.94633279192E+02  0.10214505716E+03  0.15238500198E+03  0.20646484316E+03  0.41800000000E+01 0. -1.
        -11    1    1    2    0    0 -0.50690447509E+02 -0.47956273586E+02  0.75567456211E+02  0.10285798988E+03  0.00000000000E+00 0.  1.
         11    1    1    2    0    0 -0.12058400917E+02 -0.83945163368E+02 -0.17212356302E+01  0.84824277996E+02  0.00000000000E+00 0. -1.
</event>
<event>
 7    1  0.2384639E-009  0.1329483E+03  0.7561462E-02  0.1223145E+00
         -1   -1    0    0    0  501 -0.00000000000E+00  0.00000000000E+00  0.56808774596E+03  0.56808774596E+03  0.00000000000E+00 0.  1.
          1   -1    0    0  501    0  0.00000000000E+00 -0.00000000000E+00 -0.45131035159E+02  0.45131035159E+02  0.00000000000E+00 0. -1.
         25    2    1    2    0    0 -0.30930770310E+02 -0.83802822490E+02  0.42550394028E+03  0.45241688585E+03  0.12509120593E+03 0.  0.
          5    1    3    3  502    0  0.25332638785E+02  0.12130512170E+02  0.18797100425E+03  0.19010382098E+03  0.41800000000E+01 0.  1.
         -5    1    3    3    0  502 -0.56263409095E+02 -0.95933334660E+02  0.23753293603E+03  0.26231306487E+03  0.41800000000E+01 0.  1.
        -11    1    1    2    0    0  0.62446448215E+02  0.50058921669E+02  0.48853750297E+02  0.93766430301E+02  0.00000000000E+00 0. -1.
         11    1    1    2    0    0 -0.31515677904E+02  0.33743900822E+02  0.48599020216E+02  0.67035464960E+02  0.00000000000E+00 0.  1.
</event>
<event>
 7    1  0.2384639E-009  0.9714517E+02  0.7561462E-02  0.1286416E+00
         -2   -1    0    0    0  501 -0.00000000000E+00  0.00000000000E+00  0.53387797285E+02  0.53387797285E+02  0.00000000000E+00 0.  1.
          2   -1    0    0  501    0  0.00000000000E+00 -0.00000000000E+00 -0.32817249348E+03  0.32817249348E+03  0.00000000000E+00 0. -1.
         25    2    1    2    0    0  0.65605645218E+01 -0.13925206661E+02 -0.39491451401E+02  0.13207474837E+03  0.12508881659E+03 0.  0.
          5    1    3    3  502    0 -0.50550330905E+02  0.67929594620E+01  0.11727727113E+02  0.52502306959E+02  0.41800000000E+01 0.  1.
         -5    1    3    3    0  502  0.57110895426E+02 -0.20718166124E+02 -0.51219178514E+02  0.79572441408E+02  0.41800000000E+01 0.  1.
        -11    1    1    2    0    0 -0.20186575893E+01 -0.34009251566E+02 -0.81597320323E+02  0.88424130499E+02  0.00000000000E+00 0.  1.
         11    1    1    2    0    0 -0.45419069325E+01  0.47934458227E+02 -0.15369592447E+03  0.16106141190E+03  0.00000000000E+00 0. -1.
</event>
<event>
 7    1  0.2384639E-009  0.9798115E+02  0.7561462E-02  0.1284600E+00
         -1   -1    0    0    0  501 -0.00000000000E+00  0.00000000000E+00  0.21449227646E+03  0.21449227646E+03  0.00000000000E+00 0.  1.
          1   -1    0    0  501    0  0.00000000000E+00 -0.00000000000E+00 -0.55093871907E+02  0.55093871907E+02  0.00000000000E+00 0. -1.
         25    2    1    2    0    0  0.10109749278E+02  0.54612272146E+00  0.10685192232E+03  0.16482739783E+03  0.12509289546E+03 0.  0.
          5    1    3    3  502    0  0.47270132975E+02 -0.39977922709E+02  0.85619178337E+02  0.10573937712E+03  0.41800000000E+01 0.  1.
         -5    1    3    3    0  502 -0.37160383697E+02  0.40524045430E+02  0.21232743982E+02  0.59088020711E+02  0.41800000000E+01 0.  1.
        -11    1    1    2    0    0 -0.30523880385E+02  0.29497863531E+02  0.53658716139E+02  0.68418484668E+02  0.00000000000E+00 0.  1.
         11    1    1    2    0    0  0.20414131106E+02 -0.30043986253E+02 -0.11122339038E+01  0.36340265864E+02  0.00000000000E+00 0. -1.
</event>
<event>
 7    1  0.2384639E-009  0.2318579E+03  0.7561462E-02  0.1125339E+00
         -2   -1    0    0    0  501 -0.00000000000E+00  0.00000000000E+00  0.18453351069E+03  0.18453351069E+03  0.00000000000E+00 0.  1.
          2   -1    0    0  501    0  0.00000000000E+00 -0.00000000000E+00 -0.35987271402E+03  0.35987271402E+03  0.00000000000E+00 0. -1.
         25    2    1    2    0    0  0.32690903488E+02  0.22866924710E+03 -0.12394238874E+03  0.29045696489E+03  0.12508082582E+03 0.  0.
          5    1    3    3  502    0  0.35399723176E+02  0.20901487314E+03 -0.55643891802E+02  0.21921239174E+03  0.41800000000E+01 0. -1.
         -5    1    3    3    0  502 -0.27088196874E+01  0.19654373958E+02 -0.68298496943E+02  0.71244573158E+02  0.41800000000E+01 0. -1.
        -11    1    1    2    0    0 -0.14442576570E+02 -0.14784656665E+03 -0.76875281833E+02  0.16726327823E+03  0.00000000000E+00 0.  1.
         11    1    1    2    0    0 -0.18248326918E+02 -0.80822680449E+02  0.25478467247E+02  0.86685981585E+02  0.00000000000E+00 0. -1.
</event>
<event>
 7    1  0.2384639E-009  0.1469754E+03  0.7561462E-02  0.1204240E+00
         -2   -1    0    0    0  501 -0.00000000000E+00  0.00000000000E+00  0.32564339173E+03  0.32564339173E+03  0.00000000000E+00 0.  1.
          2   -1    0    0  501    0  0.00000000000E+00 -0.00000000000E+00 -0.85171484912E+02  0.85171484912E+02  0.00000000000E+00 0. -1.
         25    2    1    2    0    0 -0.30230331944E+02  0.11094551303E+03  0.81590400538E+02  0.18848512838E+03  0.12508745073E+03 0.  0.
          5    1    3    3  502    0 -0.81658096069E+01  0.11705132260E+03  0.10350425258E+03  0.15651931277E+03  0.41800000000E+01 0. -1.
         -5    1    3    3    0  502 -0.22064522337E+02 -0.61058095700E+01 -0.21913852037E+02  0.31965815609E+02  0.41800000000E+01 0. -1.
        -11    1    1    2    0    0  0.60846662864E+02 -0.32332077220E+02  0.90421621410E+02  0.11368266894E+03  0.00000000000E+00 0.  1.
         11    1    1    2    0    0 -0.30616330921E+02 -0.78613435810E+02  0.68459884874E+02  0.10864707932E+03  0.00000000000E+00 0. -1.
</event>
<event>
 7    1  0.2384639E-009  0.8981774E+02  0.7561462E-02  0.1303294E+00
          2   -1    0    0  501    0  0.00000000000E+00  0.00000000000E+00  0.61241639394E+03  0.61241639394E+03  0.00000000000E+00 0.  1.
         -2   -1    0    0    0  501 -0.00000000000E+00 -0.00000000000E+00 -0.19796834607E+02  0.19796834607E+02  0.00000000000E+00 0. -1.
         25    2    1    2    0    0 -0.14968207270E+02 -0.16778702128E+02  0.35550402567E+03  0.37753961207E+03  0.12508986505E+03 0.  0.
          5    1    3    3  502    0 -0.54176920056E+02 -0.31145352860E+02  0.30734201116E+03  0.31365866144E+03  0.41800000000E+01 0. -1.
         -5    1    3    3    0  502  0.39208712786E+02  0.14366650732E+02  0.48162014506E+02  0.63880950625E+02  0.41800000000E+01 0. -1.
        -11    1    1    2    0    0  0.88254884309E+01  0.45152404812E+02  0.62202881015E+02  0.77368128534E+02  0.00000000000E+00 0.  1.
         11    1    1    2    0    0  0.61427188395E+01 -0.28373702684E+02  0.17491265265E+03  0.17730548795E+03  0.00000000000E+00 0. -1.
</event>
<event>
 7    1  0.2384639E-009  0.1107694E+03  0.7561462E-02  0.1259152E+00
         -2   -1    0    0    0  501 -0.00000000000E+00  0.00000000000E+00  0.38495941640E+02  0.38495941640E+02  0.00000000000E+00 0.  1.
          2   -1    0    0  501    0  0.00000000000E+00 -0.00000000000E+00 -0.36031908633E+03  0.36031908633E+03  0.00000000000E+00 0. -1.
         25    2    1    2    0    0  0.10781070869E+02  0.46754107277E+02 -0.19232430031E+03  0.23438978223E+03  0.12509098885E+03 0.  0.
          5    1    3    3  502    0  0.49592314569E+02 -0.12409005837E+02 -0.13092544130E+03  0.14061409840E+03  0.41800000000E+01 0.  1.
         -5    1    3    3    0  502 -0.38811243701E+02  0.59163113114E+02 -0.61398859009E+02  0.93775683834E+02  0.41800000000E+01 0.  1.
        -11    1    1    2    0    0 -0.44803675492E+02 -0.47552141743E+02 -0.99648083268E+02  0.11915668685E+03  0.00000000000E+00 0. -1.
         11    1    1    2    0    0  0.34022604624E+02  0.79803446576E+00 -0.29850761115E+02  0.45268558885E+02  0.00000000000E+00 0.  1.
</event>
<event>
 7    1  0.2384639E-009  0.6703777E+02  0.7561462E-02  0.1370466E+00
          1   -1    0    0  501    0  0.00000000000E+00  0.00000000000E+00  0.97409152753E+03  0.97409152753E+03  0.00000000000E+00 0. -1.
         -1   -1    0    0    0  501 -0.00000000000E+00 -0.00000000000E+00 -0.17064674335E+02  0.17064674335E+02  0.00000000000E+00 0.  1.
         25    2    1    2    0    0 -0.15465876246E+02 -0.44596598037E+02  0.71365788644E+03  0.72607418276E+03  0.12509232636E+03 0.  0.
          5    1    3    3  502    0 -0.65147629270E+01 -0.44199219007E+02  0.71472280622E+03  0.71612999884E+03  0.41800000000E+01 0. -1.
         -5    1    3    3    0  502 -0.89511133189E+01 -0.39737902959E+00 -0.10649197879E+01  0.99441839231E+01  0.41800000000E+01 0. -1.
        -11    1    1    2    0    0  0.38479413646E+02  0.13817182833E+02  0.21073386143E+03  0.21466331817E+03  0.00000000000E+00 0. -1.
         11    1    1    2    0    0 -0.23013537400E+02  0.30779415204E+02  0.32635105332E+02  0.50418700936E+02  0.00000000000E+00 0.  1.
</event>
<event>
 7    1  0.2384639E-009  0.6976808E+02  0.7561462E-02  0.1360883E+00
         -4   -1    0    0    0  501 -0.00000000000E+00  0.00000000000E+00  0.58741379424E+02  0.58741379424E+02  0.00000000000E+00 0.  1.
          4   -1    0    0  501    0  0.00000000000E+00 -0.00000000000E+00 -0.21149214276E+03  0.21149214276E+03  0.00000000000E+00 0. -1.
         25    2    1    2    0    0  0.16592129966E+01  0.17265260877E+02 -0.11385372557E+03  0.17003491920E+03  0.12509340791E+03 0.  0.
          5    1    3    3  502    0 -0.35960164953E+02 -0.30607700444E+02 -0.94980841553E+02  0.10615459223E+03  0.41800000000E+01 0. -1.
         -5    1    3    3    0  502  0.37619377950E+02  0.47872961321E+02 -0.18872884014E+02  0.63880326971E+02  0.41800000000E+01 0. -1.
        -11    1    1    2    0    0 -0.10351019333E+02  0.14624616600E+01  0.28158570445E+02  0.30036435954E+02  0.00000000000E+00 0.  1.
         11    1    1    2    0    0  0.86918063364E+01 -0.18727722537E+02 -0.67055608218E+02  0.70162167029E+02  0.00000000000E+00 0. -1.
</event>
<event>
 7    1  0.2384639E-009  0.7452127E+02  0.7561462E-02  0.1345360E+00
          2   -1    0    0  501    0  0.00000000000E+00  0.00000000000E+00  0.40946865000E+03  0.40946865000E+03  0.00000000000E+00 0. -1.
         -2   -1    0    0    0  501 -0.00000000000E+00 -0.00000000000E+00 -0.31844242015E+02  0.31844242015E+02  0.00000000000E+00 0.  1.
         25    2    1    2    0    0  0.32307118791E+02  0.13602991153E+02  0.21889113122E+03  0.25453910156E+03  0.12509210846E+03 0.  0.
          5    1    3    3  502    0 -0.52539969028E+01  0.12251110947E+02 -0.13299822816E+02  0.19288646656E+02  0.41800000000E+01 0. -1.
         -5    1    3    3    0  502  0.37561115694E+02  0.13518802064E+01  0.23219095404E+03  0.23525045490E+03  0.41800000000E+01 0. -1.
        -11    1    1    2    0    0 -0.45403838653E+01  0.38205839213E+02  0.49120556496E+02  0.62394954172E+02  0.00000000000E+00 0. -1.
         11    1    1    2    0    0 -0.27766734926E+02 -0.51808830366E+02  0.10961272026E+03  0.12437883628E+03  0.00000000000E+00 0.  1.
</event>
<event>
 7    1  0.2384639E-009  0.1289689E+03  0.7561462E-02  0.1228994E+00
          1   -1    0    0  501    0  0.00000000000E+00  0.00000000000E+00  0.15585084927E+04  0.15585084927E+04  0.00000000000E+00 0. -1.
         -1   -1    0    0    0  501 -0.00000000000E+00 -0.00000000000E+00 -0.14133398139E+02  0.14133398139E+02  0.00000000000E+00 0.  1.
         25    2    1    2    0    0 -0.53287529160E+02 -0.52078031741E+02  0.11333119191E+04  0.11426260430E+04  0.12508671366E+03 0.  0.
          5    1    3    3  502    0  0.14991644923E+02 -0.66022196077E+02  0.74556122465E+03  0.74864056255E+03  0.41800000000E+01 0.  1.
         -5    1    3    3    0  502 -0.68279174082E+02  0.13944164336E+02  0.38775069443E+03  0.39398548040E+03  0.41800000000E+01 0. -1.
        -11    1    1    2    0    0  0.54009875304E+02 -0.12722123531E+02  0.12595763633E+03  0.13763809504E+03  0.00000000000E+00 0.  1.
         11    1    1    2    0    0 -0.72234614425E+00  0.64800155272E+02  0.28510553918E+03  0.29237775288E+03  0.00000000000E+00 0. -1.
</event>
<event>
 7    1  0.2384639E-009  0.1183165E+03  0.7561462E-02  0.1245900E+00
          1   -1    0    0  501    0  0.00000000000E+00  0.00000000000E+00  0.45522463601E+02  0.45522463601E+02  0.00000000000E+00 0. -1.
         -1   -1    0    0    0  501 -0.00000000000E+00 -0.00000000000E+00 -0.73001422734E+03  0.73001422734E+03  0.00000000000E+00 0.  1.
         25    2    1    2    0    0 -0.23007088459E+02 -0.80260821660E+02 -0.62378672309E+03  0.64166207439E+03  0.12509682731E+03 0.  0.
          5    1    3    3  502    0  0.38475476164E+02  0.82100776044E+01 -0.11619131145E+03  0.12274225392E+03  0.41800000000E+01 0. -1.
         -5    1    3    3    0  502 -0.61482564623E+02 -0.88470899265E+02 -0.50759541163E+03  0.51891982047E+03  0.41800000000E+01 0. -1.
        -11    1    1    2    0    0  0.25782746348E+02  0.32848316276E+02  0.15113284548E+02  0.44409157403E+02  0.00000000000E+00 0. -1.
         11    1    1    2    0    0 -0.27756578888E+01  0.47412505384E+02 -0.75818325201E+02  0.89465459144E+02  0.00000000000E+00 0.  1.
</event>
<event>
 7    1  0.2384639E-009  0.1247120E+03  0.7561462E-02  0.1235520E+00
         -2   -1    0    0    0  501 -0.00000000000E+00  0.00000000000E+00  0.21691043357E+02  0.21691043357E+02  0.00000000000E+00 0.  1.
          2   -1    0    0  501    0  0.00000000000E+00 -0.00000000000E+00 -0.12736990640E+04  0.12736990640E+04  0.00000000000E+00 0. -1.
         25    2    1    2    0    0 -0.29357271367E+02 -0.11956528645E+03 -0.78266251647E+03  0.80209982203E+03  0.12508318314E+03 0.  0.
          5    1    3    3  502    0 -0.15915678042E+02 -0.97603316090E+02 -0.25119944970E+03  0.26999694822E+03  0.41800000000E+01 0.  1.
         -5    1    3    3    0  502 -0.13441593325E+02 -0.21961970357E+02 -0.53146306677E+03  0.53210287380E+03  0.41800000000E+01 0.  1.
        -11    1    1    2    0    0 -0.23559165000E+01  0.11294447183E+02 -0.10373060722E+01  0.11584078885E+02  0.00000000000E+00 0.  1.
         11    1    1    2    0    0  0.31713187867E+02  0.10827083926E+03 -0.46830819814E+03  0.48170620648E+03  0.00000000000E+00 0. -1.
</event>
<event>
 7    1  0.2384639E-009  0.1518579E+03  0.7561462E-02  0.1198208E+00
         -2   -1    0    0    0  501 -0.00000000000E+00  0.00000000000E+00  0.31672694248E+02  0.31672694248E+02  0.00000000000E+00 0.  1.
          2   -1    0    0  501    0  0.00000000000E+00 -0.00000000000E+00 -0.14417032193E+04  0.14417032193E+04  0.00000000000E+00 0. -1.
         25    2    1    2    0    0 -0.12856902789E+03 -0.48872302058E+02 -0.11509594623E+04  0.11658783931E+04  0.12508495825E+03 0.  0.
          5    1    3    3  502    0 -0.19472390239E+02  0.19121748925E+02 -0.57804710232E+03  0.57870609135E+03  0.41800000000E+01 0.  1.
         -5    1    3    3    0  502 -0.10909663765E+03 -0.67994050984E+02 -0.57291235995E+03  0.58717230171E+03  0.41800000000E+01 0.  1.
        -11    1    1    2    0    0  0.10587843579E+03  0.15317131083E+02 -0.11172356306E+03  0.15468358741E+03  0.00000000000E+00 0.  1.
         11    1    1    2    0    0  0.22690592099E+02  0.33555170975E+02 -0.14734749972E+03  0.15281393308E+03  0.00000000000E+00 0. -1.
</event>
<event>
 7    1  0.2384639E-009  0.1051418E+03  0.7561462E-02  0.1269840E+00
         -2   -1    0    0    0  501 -0.00000000000E+00  0.00000000000E+00  0.72840742781E+02  0.72840742781E+02  0.00000000000E+00 0.  1.
          2   -1    0    0  501    0  0.00000000000E+00 -0.00000000000E+00 -0.23920082753E+03  0.23920082753E+03  0.00000000000E+00 0. -1.
         25    2    1    2    0    0 -0.48761148080E+02 -0.52735805614E+02 -0.10897731891E+03  0.18077480557E+03  0.12507901318E+03 0.  0.
          5    1    3    3  502    0 -0.20850483184E+02  0.13512303542E+02 -0.10573230881E+03  0.10869277125E+03  0.41800000000E+01 0.  1.
         -5    1    3    3    0  502 -0.27910664896E+02 -0.66248109156E+02 -0.32450101027E+01  0.72082034323E+02  0.41800000000E+01 0.  1.
        -11    1    1    2    0    0  0.11690874973E+02  0.70858552852E+02 -0.17583585766E+02  0.73937768145E+02  0.00000000000E+00 0.  1.
         11    1    1    2    0    0  0.37070273107E+02 -0.18122747238E+02 -0.39799180067E+02  0.57328996587E+02  0.00000000000E+00 0. -1.
</event>
<event>
 7    1  0.2384639E-009  0.1271120E+03  0.7561462E-02  0.1231805E+00
         -1   -1    0    0    0  501 -0.00000000000E+00  0.00000000000E+00  0.77922894147E+03  0.77922894147E+03  0.00000000000E+00 0.  1.
          1   -1    0    0  501    0  0.00000000000E+00 -0.00000000000E+00 -0.21994312932E+02  0.21994312932E+02  0.00000000000E+00 0. -1.
         25    2    1    2    0    0  0.66902574516E+01  0.59390269942E+02  0.45520987573E+03  0.47585049178E+03  0.12508275603E+03 0.  0.
          5    1    3    3  502    0  0.58751269443E+02  0.62449017004E+02  0.26353956605E+03  0.27716811985E+03  0.41800000000E+01 0. -1.
         -5    1    3    3    0  502 -0.52061011992E+02 -0.30587470620E+01  0.19167030968E+03  0.19868237193E+03  0.41800000000E+01 0. -1.
        -11    1    1    2    0    0 -0.39899947153E+02  0.82188314824E+01  0.65419225785E+02  0.77066400436E+02  0.00000000000E+00 0. -1.
         11    1    1    2    0    0  0.33209689702E+02 -0.67609101424E+02  0.23660552702E+03  0.24830636218E+03  0.00000000000E+00 0.  1.
</event>
<event>
 7    1  0.2384639E-009  0.1357797E+03  0.7561462E-02  0.1219123E+00
          1   -1    0    0  501    0  0.00000000000E+00  0.00000000000E+00  0.38747177585E+02  0.38747177585E+02  0.00000000000E+00 0. -1.
         -1   -1    0    0    0  501 -0.00000000000E+00 -0.00000000000E+00 -0.49849654509E+03  0.49849654509E+03  0.00000000000E+00 0.  1.
         25    2    1    2    0    0  0.12947545649E+02  0.83075749820E+02 -0.30108919450E+03  0.33670757191E+03  0.12509223313E+03 0.  0.
          5    1    3    3  502    0 -0.42378666506E+02 -0.70662717146E+01 -0.11162066223E+03  0.11967676553E+03  0.41800000000E+01 0.  1.
         -5    1    3    3    0  502  0.55326212155E+02  0.90142021535E+02 -0.18946853227E+03  0.21703080638E+03  0.41800000000E+01 0.  1.
        -11    1    1    2    0    0  0.37249642424E+02 -0.21174899274E+02 -0.59393908892E+02  0.73236252181E+02  0.00000000000E+00 0.  1.
         11    1    1    2    0    0 -0.50197188073E+02 -0.61900850546E+02 -0.99266264114E+02  0.12729989859E+03  0.00000000000E+00 0. -1.
</event>
<event>
 7    1  0.5082386E-009  0.2073472E+03  0.7561462E-02  0.1143684E+00
          2   -1    0    0  501    0  0.00000000000E+00  0.00000000000E+00  0.25385345437E+04  0.25385345437E+04  0.00000000000E+00 0. -1.
         -2   -1    0    0    0  501 -0.00000000000E+00 -0.00000000000E+00 -0.20867122025E+02  0.20867122025E+02  0.00000000000E+00 0.  1.
         25    2    1    2    0    0 -0.17032881584E+03  0.64369903866E+02  0.17976397882E+04  0.18111631763E+04  0.12509137746E+03 0.  0.
          5    1    3    3  502    0 -0.15591350490E+03  0.18053123642E+01  0.13310939522E+04  0.13402017991E+04  0.41800000000E+01 0. -1.
         -5    1    3    3    0  502 -0.14415310941E+02  0.62564591501E+02  0.46654583603E+03  0.47096137720E+03  0.41800000000E+01 0. -1.
        -11    1    1    2    0    0  0.90496813961E+02 -0.69903546704E+02  0.52731625900E+03  0.53957262364E+03  0.00000000000E+00 0. -1.
         11    1    1    2    0    0  0.79832001882E+02  0.55336428381E+01  0.19271137446E+03  0.20866586586E+03  0.00000000000E+00 0.  1.
</event>
<event>
 7    1  0.2384639E-009  0.9789613E+02  0.7561462E-02  0.1284783E+00
          2   -1    0    0  501    0  0.00000000000E+00  0.00000000000E+00  0.55428417992E+03  0.55428417992E+03  0.00000000000E+00 0.  1.
         -2   -1    0    0    0  501 -0.00000000000E+00 -0.00000000000E+00 -0.29223360149E+02  0.29223360149E+02  0.00000000000E+00 0. -1.
         25    2    1    2    0    0  0.58977630240E+02 -0.32415758531E+02  0.29667035590E+03  0.32892249080E+03  0.12509021792E+03 0.  0.
          5    1    3    3  502    0  0.24368924214E+02 -0.52554804397E+02  0.43482473107E+02  0.72553771784E+02  0.41800000000E+01 0. -1.
         -5    1    3    3    0  502  0.34608706026E+02  0.20139045866E+02  0.25318788279E+03  0.25636871902E+03  0.41800000000E+01 0. -1.
        -11    1    1    2    0    0 -0.63201785970E+02  0.49231928219E+02  0.22215543815E+03  0.23615945293E+03  0.00000000000E+00 0.  1.
         11    1    1    2    0    0  0.42241557301E+01 -0.16816169689E+02  0.62350257219E+01  0.18425596337E+02  0.00000000000E+00 0. -1.
</event>
<event>
 7    1  0.2384639E-009  0.1399979E+03  0.7561462E-02  0.1213332E+00
          1   -1    0    0  501    0  0.00000000000E+00  0.00000000000E+00  0.34874249806E+03  0.34874249806E+03  0.00000000000E+00 0. -1.
         -1   -1    0    0    0  501 -0.00000000000E+00 -0.00000000000E+00 -0.73314834282E+02  0.73314834282E+02  0.00000000000E+00 0.  1.
         25    2    1    2    0    0  0.56944111240E+02 -0.69500222757E+02  0.24835215838E+03  0.29223075754E+03  0.12508840199E+03 0.  0.
          5    1    3    3  502    0  0.17070878768E+02 -0.10081818990E+03  0.17947720091E+03  0.20660411507E+03  0.41800000000E+01 0.  1.
         -5    1    3    3    0  502  0.39873232472E+02  0.31317967148E+02  0.68874957470E+02  0.85626642469E+02  0.41800000000E+01 0.  1.
        -11    1    1    2    0    0 -0.29627982411E+02  0.88619361007E+02  0.16820577019E+02  0.94942826471E+02  0.00000000000E+00 0. -1.
         11    1    1    2    0    0 -0.27316128830E+02 -0.19119138250E+02  0.10254928381E+02  0.34883748333E+02  0.00000000000E+00 0.  1.
</event>
<event>
 7    1  0.2384639E-009  0.1927321E+03  0.7561462E-02  0.1156020E+00
         -1   -1    0    0    0  501 -0.00000000000E+00  0.00000000000E+00  0.77637161694E+02  0.77637161694E+02  0.00000000000E+00 0.  1.
          1   -1    0    0  501    0  0.00000000000E+00 -0.00000000000E+00 -0.14604999342E+04  0.14604999342E+04  0.00000000000E+00 0. -1.
         25    2    1    2    0    0 -0.17993597835E+03 -0.59231271133E+02 -0.12867528323E+04  0.13066237129E+04  0.12508947240E+03 0.  0.
          5    1    3    3  502    0 -0.67641403841E+02 -0.47757153823E+02 -0.24252835297E+03  0.25630758797E+03  0.41800000000E+01 0.  1.
         -5    1    3    3    0  502 -0.11229457451E+03 -0.11474117310E+02 -0.10442244793E+04  0.10503161250E+04  0.41800000000E+01 0.  1.
        -11    1    1    2    0    0  0.10562931301E+03  0.38876728910E+02 -0.56602404424E+01  0.11269866965E+03  0.00000000000E+00 0.  1.
         11    1    1    2    0    0  0.74306665333E+02  0.20354542223E+02 -0.90449699785E+02  0.11881471329E+03  0.00000000000E+00 0. -1.
</event>
<event>
 7    1  0.2384639E-009  0.2231110E+03  0.7561462E-02  0.1131585E+00
         -1   -1    0    0    0  501 -0.00000000000E+00  0.00000000000E+00  0.20064302069E+03  0.20064302069E+03  0.00000000000E+00 0.  1.
          1   -1    0    0  501    0  0.00000000000E+00 -0.00000000000E+00 -0.30838791190E+03  0.30838791190E+03  0.00000000000E+00 0. -1.
         25    2    1    2    0    0 -0.16952401394E+03 -0.13441305588E+03 -0.11217003866E+03  0.27392491107E+03  0.12508988145E+03 0.  0.
          5    1    3    3  502    0 -0.83599793202E+02 -0.65430745765E+02  0.13087810572E+02  0.10704611670E+03  0.41800000000E+01 0. -1.
         -5    1    3    3    0  502 -0.85924220736E+02 -0.68982310112E+02 -0.12525784923E+03  0.16687879437E+03  0.41800000000E+01 0. -1.
        -11    1    1    2    0    0  0.80966494157E+01  0.43898844340E+02 -0.19082821423E+02  0.48547073440E+02  0.00000000000E+00 0. -1.
         11    1    1    2    0    0  0.16142736452E+03  0.90514211537E+02  0.23507968876E+02  0.18655894808E+03  0.00000000000E+00 0.  1.
</event>
<event>
 7    1  0.2384639E-009  0.1462186E+03  0.7561462E-02  0.1205198E+00
          2   -1    0    0  501    0  0.00000000000E+00  0.00000000000E+00  0.30956825660E+02  0.30956825660E+02  0.00000000000E+00 0.  1.
         -2   -1    0    0    0  501 -0.00000000000E+00 -0.00000000000E+00 -0.72598418063E+03  0.72598418063E+03  0.00000000000E+00 0. -1.
         25    2    1    2    0    0  0.89512841443E+02 -0.41776056328E+02 -0.30514073724E+03  0.34426122602E+03  0.12508850687E+03 0.  0.
          5    1    3    3  502    0  0.40469405577E+02 -0.83362886041E+02 -0.15132222042E+03  0.17749093033E+03  0.41800000000E+01 0. -1.
         -5    1    3    3    0  502  0.49043435866E+02  0.41586829713E+02 -0.15381851682E+03  0.16677029568E+03  0.41800000000E+01 0. -1.
        -11    1    1    2    0    0 -0.10363751304E+03  0.14666513274E+02 -0.30413672475E+03  0.32164419482E+03  0.00000000000E+00 0. -1.
         11    1    1    2    0    0  0.14124671595E+02  0.27109543054E+02 -0.85749892988E+02  0.91035585458E+02  0.00000000000E+00 0.  1.
</event>
<event>
 7    1  0.2384639E-009  0.1032130E+03  0.7561462E-02  0.1273681E+00
         -2   -1    0    0    0  501 -0.00000000000E+00  0.00000000000E+00  0.66948466314E+02  0.66948466314E+02  0.00000000000E+00 0. -1.
          2   -1    0    0  501    0  0.00000000000E+00 -0.00000000000E+00 -0.22784301163E+03  0.22784301163E+03  0.00000000000E+00 0.  1.
         25    2    1    2    0    0  0.13107746066E+02 -0.44570252440E+02 -0.12878933143E+03  0.18545253112E+03  0.12509048325E+03 0.  0.
          5    1    3    3  502    0 -0.44024285535E+00  0.29131396663E+02 -0.10135577788E+03  0.10554287373E+03  0.41800000000E+01 0. -1.
         -5    1    3    3    0  502  0.13547988921E+02 -0.73701649103E+02 -0.27433553551E+02  0.79909657394E+02  0.41800000000E+01 0. -1.
        -11    1    1    2    0    0 -0.34577227211E+02 -0.15689090421E+02 -0.23848858944E+02  0.44838602485E+02  0.00000000000E+00 0. -1.
         11    1    1    2    0    0  0.21469481145E+02  0.60259342862E+02 -0.82563549418E+01  0.64500344338E+02  0.00000000000E+00 0.  1.
</event>
<event>
 7    1  0.2384639E-009  0.2487218E+03  0.7561462E-02  0.1114115E+00
          2   -1    0    0  501    0  0.00000000000E+00  0.00000000000E+00  0.37758363747E+03  0.37758363747E+03  0.00000000000E+00 0. -1.
         -2   -1    0    0    0  501 -0.00000000000E+00 -0.00000000000E+00 -0.19318583304E+03  0.19318583304E+03  0.00000000000E+00 0.  1.
         25    2    1    2    0    0  0.20498630457E+03 -0.90389336048E+02  0.20498734678E+03  0.32841627684E+03  0.12509125236E+03 0.  0.
          5    1    3    3  502    0  0.22179264888E+03 -0.87516335863E+02  0.19606880914E+03  0.30872566860E+03  0.41800000000E+01 0.  1.
         -5    1    3    3    0  502 -0.16806344304E+02 -0.28730001845E+01  0.89185376487E+01  0.19690608237E+02  0.41800000000E+01 0.  1.
        -11    1    1    2    0    0 -0.19630586957E+03  0.53422917043E+02 -0.19310823596E+02  0.20435975730E+03  0.00000000000E+00 0.  1.
         11    1    1    2    0    0 -0.86804349999E+01  0.36966419005E+02 -0.12787187635E+01  0.37993436374E+02  0.00000000000E+00 0. -1.
</event>
<event>
 7    1  0.2384639E-009  0.8217322E+02  0.7561462E-02  0.1322995E+00
         -2   -1    0    0    0  501 -0.00000000000E+00  0.00000000000E+00  0.10674757368E+03  0.10674757368E+03  0.00000000000E+00 0.  1.
          2   -1    0    0  501    0  0.00000000000E+00 -0.00000000000E+00 -0.13864257159E+03  0.13864257159E+03  0.00000000000E+00 0. -1.
         25    2    1    2    0    0  0.12408293179E+02 -0.10897989122E+02  0.33347821526E+02  0.13050235703E+03  0.12508419598E+03 0.  0.
          5    1    3    3  502    0  0.20084109730E+01  0.40703537429E+02 -0.27952429866E+02  0.49594580442E+02  0.41800000000E+01 0.  1.
         -5    1    3    3    0  502  0.10399882206E+02 -0.51601526550E+02  0.61300251392E+02  0.80907776591E+02  0.41800000000E+01 0.  1.
        -11    1    1    2    0    0 -0.38111095638E+02  0.20331849921E+02  0.10029524886E+01  0.43207009219E+02  0.00000000000E+00 0.  1.
         11    1    1    2    0    0  0.25702802459E+02 -0.94338607991E+01 -0.66245771916E+02  0.71680779018E+02  0.00000000000E+00 0. -1.
</event>
<event>
 7    1  0.2384639E-009  0.1128720E+03  0.7561462E-02  0.1255342E+00
          1   -1    0    0  501    0  0.00000000000E+00  0.00000000000E+00  0.18414078596E+03  0.18414078596E+03  0.00000000000E+00 0. -1.
         -1   -1    0    0    0  501 -0.00000000000E+00 -0.00000000000E+00 -0.95575155755E+02  0.95575155755E+02  0.00000000000E+00 0.  1.
         25    2    1    2    0    0  0.54740510781E+02 -0.51454480798E+02  0.14588879293E+02  0.14664726086E+03  0.12509395111E+03 0.  0.
          5    1    3    3  502    0 -0.10426053416E+02  0.30218915607E+02  0.26054962479E+02  0.41451404320E+02  0.41800000000E+01 0.  1.
         -5    1    3    3    0  502  0.65166564197E+02 -0.81673396405E+02 -0.11466083186E+02  0.10519585654E+03  0.41800000000E+01 0.  1.
        -11    1    1    2    0    0 -0.42029617873E+02  0.60262405916E+02  0.18901853644E+02  0.75863867662E+02  0.00000000000E+00 0.  1.
         11    1    1    2    0    0 -0.12710892908E+02 -0.88079251183E+01  0.55074897264E+02  0.57204813190E+02  0.00000000000E+00 0. -1.
</event>
<event>
 7    1  0.2384639E-009  0.1619331E+03  0.7561462E-02  0.1186531E+00
         -2   -1    0    0    0  501 -0.00000000000E+00  0.00000000000E+00  0.11379014220E+03  0.11379014220E+03  0.00000000000E+00 0.  1.
          2   -1    0    0  501    0  0.00000000000E+00 -0.00000000000E+00 -0.46097748827E+03  0.46097748827E+03  0.00000000000E+00 0. -1.
         25    2    1    2    0    0 -0.89518111029E+02 -0.12370066681E+03 -0.34392929641E+03  0.39654725811E+03  0.12508804827E+03 0.  0.
          5    1    3    3  502    0 -0.29936556542E+02 -0.77302281796E+02 -0.29503173423E+03  0.30648496992E+03  0.41800000000E+01 0.  1.
         -5    1    3    3    0  502 -0.59581554488E+02 -0.46398385010E+02 -0.48897562182E+02  0.90062288191E+02  0.41800000000E+01 0.  1.
        -11    1    1    2    0    0  0.11219119603E+02  0.68544365531E+02  0.31588978915E+02  0.76302439539E+02  0.00000000000E+00 0.  1.
         11    1    1    2    0    0  0.78298991426E+02  0.55156301275E+02 -0.34847028578E+02  0.10191793282E+03  0.00000000000E+00 0. -1.
</event>
<event>
 7    1  0.2384639E-009  0.1617947E+03  0.7561462E-02  0.1186685E+00
          2   -1    0    0  501    0  0.00000000000E+00  0.00000000000E+00  0.27322169235E+03  0.27322169235E+03  0.00000000000E+00 0. -1.
         -2   -1    0    0    0  501 -0.00000000000E+00 -0.00000000000E+00 -0.11078827342E+03  0.11078827342E+03  0.00000000000E+00 0.  1.
         25    2    1    2    0    0 -0.62892347807E+02 -0.11953987133E+03  0.96138653771E+02  0.20769075086E+03  0.12509028338E+03 0.  0.
          5    1    3    3  502    0  0.35131446962E+02 -0.18036577121E+02  0.38172103112E+02  0.55082833404E+02  0.41800000000E+01 0. -1.
         -5    1    3    3    0  502 -0.98023794768E+02 -0.10150329421E+03  0.57966550659E+02  0.15260791746E+03  0.41800000000E+01 0. -1.
        -11    1    1    2    0    0  0.33402716561E+02  0.20092817707E+02 -0.17736114430E+02  0.42825606267E+02  0.00000000000E+00 0.  1.
         11    1    1    2    0    0  0.29489631246E+02  0.99447053621E+02  0.84030879591E+02  0.13349360865E+03  0.00000000000E+00 0. -1.
</event>
<event>
 7    1  0.2384639E-009  0.1268230E+03  0.7561462E-02  0.1232247E+00
         -1   -1    0    0    0  501 -0.00000000000E+00  0.00000000000E+00  0.18448993273E+02  0.18448993273E+02  0.00000000000E+00 0.  1.
          1   -1    0    0  501    0  0.00000000000E+00 -0.00000000000E+00 -0.92064413594E+03  0.92064413594E+03  0.00000000000E+00 0. -1.
         25    2    1    2    0    0  0.60513262796E+02  0.27513285395E+02 -0.39805643225E+03  0.42251117090E+03  0.12509168812E+03 0.  0.
          5    1    3    3  502    0  0.64822910794E+02  0.71500126581E+02 -0.25307806008E+03  0.27088790073E+03  0.41800000000E+01 0. -1.
         -5    1    3    3    0  502 -0.43096479974E+01 -0.43986841185E+02 -0.14497837216E+03  0.15162327018E+03  0.41800000000E+01 0. -1.
        -11    1    1    2    0    0 -0.29929792347E+02  0.33181496101E+02 -0.19259416004E+03  0.19771017838E+03  0.00000000000E+00 0.  1.
         11    1    1    2    0    0 -0.30583470449E+02 -0.60694781496E+02 -0.31154455038E+03  0.31887177993E+03  0.00000000000E+00 0. -1.
</event>
<event>
 7    1  0.2384639E-009  0.1063812E+03  0.7561462E-02  0.1267422E+00
         -1   -1    0    0    0  501 -0.00000000000E+00  0.00000000000E+00  0.11829054704E+03  0.11829054704E+03  0.00000000000E+00 0.  1.
          1   -1    0    0  501    0  0.00000000000E+00 -0.00000000000E+00 -0.18243096804E+03  0.18243096804E+03  0.00000000000E+00 0. -1.
         25    2    1    2    0    0  0.40134197500E+02  0.66241942103E+02 -0.96830922690E+02  0.17613209350E+03  0.12509011979E+03 0.  0.
          5    1    3    3  502    0 -0.37914766489E+02  0.27949215925E+02 -0.71066754658E+02  0.85361842801E+02  0.41800000000E+01 0.  1.
         -5    1    3    3    0  502  0.78048963989E+02  0.38292726178E+02 -0.25764168032E+02  0.90770250700E+02  0.41800000000E+01 0.  1.
        -11    1    1    2    0    0 -0.74181290776E+01 -0.23301027022E+02  0.59489759479E+02  0.64319499238E+02  0.00000000000E+00 0.  1.
         11    1    1    2    0    0 -0.32716068423E+02 -0.42940915081E+02 -0.26799257794E+02  0.60269922344E+02  0.00000000000E+00 0. -1.
</event>
<event>
 7    1  0.2384639E-009  0.1053689E+03  0.7561462E-02  0.1269394E+00
         -3   -1    0    0    0  501 -0.00000000000E+00  0.00000000000E+00  0.69860311238E+02  0.69860311238E+02  0.00000000000E+00 0.  1.
          3   -1    0    0  501    0  0.00000000000E+00 -0.00000000000E+00 -0.20502520998E+03  0.20502520998E+03  0.00000000000E+00 0. -1.
         25    2    1    2    0    0 -0.92579409742E+00 -0.31260539651E+02 -0.13411958768E+03  0.18605053596E+03  0.12509460300E+03 0.  0.
          5    1    3    3  502    0  0.35556672208E+02  0.32710645453E+02 -0.83599238339E+02  0.96646615644E+02  0.41800000000E+01 0.  1.
         -5    1    3    3    0  502 -0.36482466306E+02 -0.63971185103E+02 -0.50520349340E+02  0.89403920321E+02  0.41800000000E+01 0.  1.
        -11    1    1    2    0    0  0.85964915870E+01  0.59040044308E+02 -0.43823045727E+01  0.59823332345E+02  0.00000000000E+00 0. -1.
         11    1    1    2    0    0 -0.76706974896E+01 -0.27779504658E+02  0.33369935058E+01  0.29011652912E+02  0.00000000000E+00 0.  1.
</event>
<event>
 7    1  0.2384639E-009  0.7726926E+02  0.7561462E-02  0.1336984E+00
         -2   -1    0    0    0  501 -0.00000000000E+00  0.00000000000E+00  0.18535386284E+02  0.18535386284E+02  0.00000000000E+00 0.  1.
          2   -1    0    0  501    0  0.00000000000E+00 -0.00000000000E+00 -0.69818138831E+03  0.69818138831E+03  0.00000000000E+00 0. -1.
         25    2    1    2    0    0 -0.28983475506E+02 -0.19569446713E+02 -0.39718638394E+03  0.41788308131E+03  0.12508493498E+03 0.  0.
          5    1    3    3  502    0 -0.33251469895E+02 -0.38780575180E+02 -0.39423065203E+03  0.39754857900E+03  0.41800000000E+01 0.  1.
         -5    1    3    3    0  502  0.42679943892E+01  0.19211128466E+02 -0.29557319052E+01  0.20334502309E+02  0.41800000000E+01 0.  1.
        -11    1    1    2    0    0  0.81921336135E+01 -0.29105053063E+02 -0.37250846099E+02  0.47977502040E+02  0.00000000000E+00 0.  1.
         11    1    1    2    0    0  0.20791341893E+02  0.48674499776E+02 -0.24520877199E+03  0.25085619124E+03  0.00000000000E+00 0. -1.
</event>
<event>
 7    1  0.2667918E-009  0.1594826E+03  0.7561462E-02  0.1189282E+00
          1   -1    0    0  501    0  0.00000000000E+00  0.00000000000E+00  0.68277384660E+03  0.68277384660E+03  0.00000000000E+00 0. -1.
         -1   -1    0    0    0  501 -0.00000000000E+00 -0.00000000000E+00 -0.72900837063E+02  0.72900837063E+02  0.00000000000E+00 0.  1.
         25    2    1    2    0    0 -0.14362474042E+03  0.38465548302E+02  0.10356430271E+03  0.22018670158E+03  0.12509578046E+03 0.  0.
          5    1    3    3  502    0 -0.12400721231E+03 -0.63239590024E+00  0.12062400357E+03  0.17304858066E+03  0.41800000000E+01 0.  1.
         -5    1    3    3    0  502 -0.19617528110E+02  0.39097944202E+02 -0.17059700866E+02  0.47138120918E+02  0.41800000000E+01 0.  1.
        -11    1    1    2    0    0  0.46632279264E+02 -0.83061015904E-01  0.54189889940E+02  0.71492101244E+02  0.00000000000E+00 0.  1.
         11    1    1    2    0    0  0.96992461160E+02 -0.38382487286E+02  0.45211881689E+03  0.46399588084E+03  0.00000000000E+00 0. -1.
</event>
<event>
 7    1  0.2384639E-009  0.1155770E+03  0.7561462E-02  0.1250577E+00
         -1   -1    0    0    0  501 -0.00000000000E+00  0.00000000000E+00  0.20759372537E+02  0.20759372537E+02  0.00000000000E+00 0.  1.
          1   -1    0    0  501    0  0.00000000000E+00 -0.00000000000E+00 -0.64627837573E+03  0.64627837573E+03  0.00000000000E+00 0. -1.
         25    2    1    2    0    0  0.33758118990E+02 -0.29309839240E+02 -0.36431783251E+03  0.38777870267E+03  0.12508461892E+03 0.  0.
          5    1    3    3  502    0  0.77232744369E+02 -0.40869386896E+02 -0.23064989938E+03  0.24668208705E+03  0.41800000000E+01 0.  1.
         -5    1    3    3    0  502 -0.43474625379E+02  0.11559547656E+02 -0.13366793313E+03  0.14109661562E+03  0.41800000000E+01 0.  1.
        -11    1    1    2    0    0 -0.63126972275E+02  0.11551527225E+02 -0.18022852092E+03  0.19131328277E+03  0.00000000000E+00 0.  1.
         11    1    1    2    0    0  0.29368853286E+02  0.17758312015E+02 -0.80972649769E+02  0.87945762829E+02  0.00000000000E+00 0. -1.
</event>
<event>
 7    1  0.2384639E-009  0.2630328E+03  0.7561462E-02  0.1105335E+00
         -2   -1    0    0    0  501 -0.00000000000E+00  0.00000000000E+00  0.37393344383E+02  0.37393344383E+02  0.00000000000E+00 0.  1.
          2   -1    0    0  501    0  0.00000000000E+00 -0.00000000000E+00 -0.19741107351E+04  0.19741107351E+04  0.00000000000E+00 0. -1.
         25    2    1    2    0    0  0.21278376186E+03  0.12665246807E+03 -0.97402832159E+03  0.10127664607E+04  0.12508779214E+03 0.  0.
          5    1    3    3  502    0 -0.96371474333E+01 -0.42978355439E+01 -0.11243571746E+02  0.15976116757E+02  0.41800000000E+01 0. -1.
         -5    1    3    3    0  502  0.22242090929E+03  0.13095030361E+03 -0.96278474984E+03  0.99679034397E+03  0.41800000000E+01 0. -1.
        -11    1    1    2    0    0 -0.20979852018E+03 -0.10479572097E+03 -0.93129167241E+03  0.96036542071E+03  0.00000000000E+00 0. -1.
         11    1    1    2    0    0 -0.29852416756E+01 -0.21856747094E+02 -0.31397396705E+02  0.38372198024E+02  0.00000000000E+00 0.  1.
</event>
<event>
 7    1  0.2384639E-009  0.1226885E+03  0.7561462E-02  0.1238727E+00
          2   -1    0    0  501    0  0.00000000000E+00  0.00000000000E+00  0.33127780052E+03  0.33127780052E+03  0.00000000000E+00 0. -1.
         -2   -1    0    0    0  501 -0.00000000000E+00 -0.00000000000E+00 -0.65511884267E+02  0.65511884267E+02  0.00000000000E+00 0.  1.
         25    2    1    2    0    0  0.25231001720E+02 -0.85033613923E+02  0.19705387752E+03  0.24970004049E+03  0.12511019396E+03 0.  0.
          5    1    3    3  502    0 -0.43210727643E+02 -0.33674459150E+02  0.31598328670E+02  0.63380304174E+02  0.41800000000E+01 0.  1.
         -5    1    3    3    0  502  0.68441729363E+02 -0.51359154774E+02  0.16545554885E+03  0.18631973632E+03  0.41800000000E+01 0.  1.
        -11    1    1    2    0    0  0.16957765328E+02  0.13329163344E+02 -0.17132798475E+02  0.27545692657E+02  0.00000000000E+00 0.  1.
         11    1    1    2    0    0 -0.42188767048E+02  0.71704450579E+02  0.85844837217E+02  0.11954395164E+03  0.00000000000E+00 0. -1.
</event>
<event>
 7    1  0.2384639E-009  0.1273983E+03  0.7561462E-02  0.1231368E+00
          1   -1    0    0  501    0  0.00000000000E+00  0.00000000000E+00  0.61165517646E+03  0.61165517646E+03  0.00000000000E+00 0. -1.
         -1   -1    0    0    0  501 -0.00000000000E+00 -0.00000000000E+00 -0.31691399206E+02  0.31691399206E+02  0.00000000000E+00 0.  1.
         25    2    1    2    0    0  0.23870281614E+02  0.74693760486E+02  0.23388700948E+03  0.27658536703E+03  0.12508950335E+03 0.  0.
          5    1    3    3  502    0  0.18243753361E+01  0.10581515924E+03  0.19529906707E+03  0.22216969701E+03  0.41800000000E+01 0. -1.
         -5    1    3    3    0  502  0.22045906278E+02 -0.31121398754E+02  0.38587942412E+02  0.54415670018E+02  0.41800000000E+01 0. -1.
        -11    1    1    2    0    0 -0.17669094110E+02  0.13417909153E+02  0.23537739216E+02  0.32345978731E+02  0.00000000000E+00 0.  1.
         11    1    1    2    0    0 -0.62011875039E+01 -0.88111669638E+02  0.32253902855E+03  0.33441522990E+03  0.00000000000E+00 0. -1.
</event>
<event>
 7    1  0.2384639E-009  0.9831965E+02  0.7561462E-02  0.1283870E+00
         -1   -1    0    0    0  501 -0.00000000000E+00  0.00000000000E+00  0.19627052673E+03  0.19627052673E+03  0.00000000000E+00 0.  1.
          1   -1    0    0  501    0  0.00000000000E+00 -0.00000000000E+00 -0.65960806450E+02  0.65960806450E+02  0.00000000000E+00 0. -1.
         25    2    1    2    0    0 -0.24766208200E+02 -0.13365620093E+01  0.10191079323E+03  0.16324183166E+03  0.12508770666E+03 0.  0.
          5    1    3    3  502    0 -0.68482715188E+02 -0.60499863029E+01  0.22649293884E+02  0.72504810373E+02  0.41800000000E+01 0. -1.
         -5    1    3    3    0  502  0.43716506988E+02  0.47134242936E+01  0.79261499351E+02  0.90737021283E+02  0.41800000000E+01 0. -1.
        -11    1    1    2    0    0  0.17423049671E+02  0.40321253736E+02 -0.85825878829E+01  0.44755189391E+02  0.00000000000E+00 0.  1.
         11    1    1    2    0    0  0.73431585290E+01 -0.38984691727E+02  0.36981514932E+02  0.54234312136E+02  0.00000000000E+00 0. -1.
</event>
<event>
 7    1  0.2384639E-009  0.1102527E+03  0.7561462E-02  0.1260103E+00
          2   -1    0    0  501    0  0.00000000000E+00  0.00000000000E+00  0.94954468258E+02  0.94954468258E+02  0.00000000000E+00 0. -1.
         -2   -1    0    0    0  501 -0.00000000000E+00 -0.00000000000E+00 -0.15847303849E+03  0.15847303849E+03  0.00000000000E+00 0.  1.
         25    2    1    2    0    0 -0.70285075109E+02 -0.14112984839E+02 -0.46947316467E+02  0.15163066955E+03  0.12509452946E+03 0.  0.
          5    1    3    3  502    0  0.18640596499E+02 -0.41219583004E+02 -0.35929046275E+02  0.57921452218E+02  0.41800000000E+01 0.  1.
         -5    1    3    3    0  502 -0.88925671608E+02  0.27106598165E+02 -0.11018270192E+02  0.93709217332E+02  0.41800000000E+01 0.  1.
        -11    1    1    2    0    0  0.10644279689E+02  0.19412393377E+02 -0.32972302366E+02  0.39715418039E+02  0.00000000000E+00 0.  1.
         11    1    1    2    0    0  0.59640795420E+02 -0.52994085379E+01  0.16401048604E+02  0.62081419157E+02  0.00000000000E+00 0. -1.
</event>
<event>
 7    1  0.2384639E-009  0.1062240E+03  0.7561462E-02  0.1267727E+00
         -1   -1    0    0    0  501 -0.00000000000E+00  0.00000000000E+00  0.10523514169E+04  0.10523514169E+04  0.00000000000E+00 0.  1.
          1   -1    0    0  501    0  0.00000000000E+00 -0.00000000000E+00 -0.13384997334E+02  0.13384997334E+02  0.00000000000E+00 0. -1.
         25    2    1    2    0    0 -0.65945734334E+01 -0.93734994451E+01  0.79323343542E+03  0.80311753100E+03  0.12508850722E+03 0.  0.
          5    1    3    3  502    0  0.42122386762E+02 -0.43213624436E+02  0.51886269831E+03  0.52237695671E+03  0.41800000000E+01 0.  1.
         -5    1    3    3    0  502 -0.48716960196E+02  0.33840124991E+02  0.27437073710E+03  0.28074057428E+03  0.41800000000E+01 0.  1.
        -11    1    1    2    0    0  0.19641830402E+02  0.47924678822E+02  0.14513976779E+03  0.15410427813E+03  0.00000000000E+00 0.  1.
         11    1    1    2    0    0 -0.13047256968E+02 -0.38551179377E+02  0.10059321635E+03  0.10851460510E+03  0.00000000000E+00 0. -1.
</event>
<event>
 7    1  0.2384639E-009  0.1483177E+03  0.7561462E-02  0.1202556E+00
          2   -1    0    0  501    0  0.00000000000E+00  0.00000000000E+00  0.90164994875E+03  0.90164994875E+03  0.00000000000E+00 0. -1.
         -2   -1    0    0    0  501 -0.00000000000E+00 -0.00000000000E+00 -0.26432268017E+02  0.26432268017E+02  0.00000000000E+00 0.  1.
         25    2    1    2    0    0 -0.56061529484E+02 -0.89083905126E+02  0.39414005878E+03  0.42669976400E+03  0.12508982940E+03 0.  0.
          5    1    3    3  502    0 -0.40492367620E+02 -0.11665705207E+03  0.24755958097E+03  0.27667981163E+03  0.41800000000E+01 0. -1.
         -5    1    3    3    0  502 -0.15569161864E+02  0.27573146944E+02  0.14658047781E+03  0.15001995237E+03  0.41800000000E+01 0. -1.
        -11    1    1    2    0    0  0.49041608492E+01  0.89843292115E+02  0.29753612789E+03  0.31084339357E+03  0.00000000000E+00 0.  1.
         11    1    1    2    0    0  0.51157368635E+02 -0.75938698833E+00  0.18354149406E+03  0.19053905919E+03  0.00000000000E+00 0. -1.
</event>
<event>
 7    1  0.2384639E-009  0.1916921E+03  0.7561462E-02  0.1156944E+00
         -1   -1    0    0    0  501 -0.00000000000E+00  0.00000000000E+00  0.28001333484E+03  0.28001333484E+03  0.00000000000E+00 0.  1.
          1   -1    0    0  501    0  0.00000000000E+00 -0.00000000000E+00 -0.14336691435E+03  0.14336691435E+03  0.00000000000E+00 0. -1.
         25    2    1    2    0    0 -0.15086251058E+03  0.64322919987E+02  0.10946172290E+03  0.23350812833E+03  0.12508893668E+03 0.  0.
          5    1    3    3  502    0 -0.16115464586E+03  0.84736778973E+02  0.10365047926E+03  0.20955198840E+03  0.41800000000E+01 0. -1.
         -5    1    3    3    0  502  0.10292135280E+02 -0.20413858987E+02  0.58112436429E+01  0.23956139923E+02  0.41800000000E+01 0. -1.
        -11    1    1    2    0    0  0.78922571791E+02 -0.70488070667E+02  0.45805513914E+02  0.11530605166E+03  0.00000000000E+00 0.  1.
         11    1    1    2    0    0  0.71939938786E+02  0.61651506805E+01 -0.18620816335E+02  0.74566069203E+02  0.00000000000E+00 0. -1.
</event>
<event>
 7    1  0.2384639E-009  0.5350847E+02  0.7561462E-02  0.1427287E+00
         -2   -1    0    0    0  501 -0.00000000000E+00  0.00000000000E+00  0.36973341197E+03  0.36973341197E+03  0.00000000000E+00 0.  1.
          2   -1    0    0  501    0  0.00000000000E+00 -0.00000000000E+00 -0.32969222561E+02  0.32969222561E+02  0.00000000000E+00 0. -1.
         25    2    1    2    0    0 -0.65123486546E+01  0.21805569882E+02  0.19630667626E+03  0.23388263121E+03  0.12508749127E+03 0.  0.
          5    1    3    3  502    0 -0.48486638042E+01  0.35865357473E+02 -0.58641157499E+00  0.36436927503E+02  0.41800000000E+01 0. -1.
         -5    1    3    3    0  502 -0.16636848504E+01 -0.14059787590E+02  0.19689308783E+03  0.19744570370E+03  0.41800000000E+01 0. -1.
        -11    1    1    2    0    0  0.21044639879E+02  0.81186767485E+01  0.13277598712E+03  0.13467832986E+03  0.00000000000E+00 0.  1.
         11    1    1    2    0    0 -0.14532291224E+02 -0.29924246631E+02  0.76815260350E+01  0.34141673463E+02  0.00000000000E+00 0. -1.
</event>
<event>
 7    1  0.2384639E-009  0.9234479E+02  0.7561462E-02  0.1297271E+00
         -3   -1    0    0    0  501 -0.00000000000E+00  0.00000000000E+00  0.13351938879E+03  0.13351938879E+03  0.00000000000E+00 0.  1.
          3   -1    0    0  501    0  0.00000000000E+00 -0.00000000000E+00 -0.13357323448E+03  0.13357323448E+03  0.00000000000E+00 0. -1.
         25    2    1    2    0    0  0.27448682940E+02 -0.53898675186E+02  0.39059996125E+02  0.14432890759E+03  0.12508658156E+03 0.  0.
          5    1    3    3  502    0 -0.82615264850E+00  0.52843645618E+01  0.70952281849E+02  0.71276263487E+02  0.41800000000E+01 0.  1.
         -5    1    3    3    0  502  0.28274835589E+02 -0.59183039748E+02 -0.31892285725E+02  0.73052644101E+02  0.41800000000E+01 0.  1.
        -11    1    1    2    0    0 -0.29592557642E+02 -0.21607374501E+02 -0.28636067657E+02  0.46504004898E+02  0.00000000000E+00 0. -1.
         11    1    1    2    0    0  0.21438747021E+01  0.75506049687E+02 -0.10477774163E+02  0.76259710788E+02  0.00000000000E+00 0.  1.
</event>
<event>
 7    1  0.2384639E-009  0.1220700E+03  0.7561462E-02  0.1239721E+00
         -1   -1    0    0    0  501 -0.00000000000E+00  0.00000000000E+00  0.10037888707E+03  0.10037888707E+03  0.00000000000E+00 0.  1.
          1   -1    0    0  501    0  0.00000000000E+00 -0.00000000000E+00 -0.19788497612E+03  0.19788497612E+03  0.00000000000E+00 0. -1.
         25    2    1    2    0    0 -0.33092030650E+02  0.45540187628E+02  0.18953703068E+02  0.13847575963E+03  0.12508917605E+03 0.  0.
          5    1    3    3  502    0 -0.73938038580E+02  0.57392317489E+02  0.62883590265E+01  0.93902755631E+02  0.41800000000E+01 0. -1.
         -5    1    3    3    0  502  0.40846007931E+02 -0.11852129861E+02  0.12665344041E+02  0.44573004002E+02  0.41800000000E+01 0. -1.
        -11    1    1    2    0    0  0.57049467602E+02 -0.90789464211E+00 -0.47610725395E+02  0.74311824086E+02  0.00000000000E+00 0.  1.
         11    1    1    2    0    0 -0.23957436952E+02 -0.44632292986E+02 -0.68849066728E+02  0.85476279469E+02  0.00000000000E+00 0. -1.
</event>
<event>
 7    1  0.2384639E-009  0.1150966E+03  0.7561462E-02  0.1251413E+00
         -1   -1    0    0    0  501 -0.00000000000E+00  0.00000000000E+00  0.83244429129E+03  0.83244429129E+03  0.00000000000E+00 0.  1.
          1   -1    0    0  501    0  0.00000000000E+00 -0.00000000000E+00 -0.17163739109E+02  0.17163739109E+02  0.00000000000E+00 0. -1.
         25    2    1    2    0    0  0.82496283133E+01  0.52545434912E+02  0.55588236130E+03  0.57226007772E+03  0.12508923955E+03 0.  0.
          5    1    3    3  502    0  0.25682928668E+02 -0.36130872271E+02  0.15315789238E+03  0.15949879358E+03  0.41800000000E+01 0.  1.
         -5    1    3    3    0  502 -0.17433300355E+02  0.88676307182E+02  0.40272446892E+03  0.41276128414E+03  0.41800000000E+01 0.  1.
        -11    1    1    2    0    0  0.26696666682E+02 -0.53980767810E+02  0.12940196883E+03  0.14272878070E+03  0.00000000000E+00 0. -1.
         11    1    1    2    0    0 -0.34946294995E+02  0.14353328984E+01  0.12999622206E+03  0.13461917198E+03  0.00000000000E+00 0.  1.
</event>
<event>
 7    1  0.2384639E-009  0.6206972E+02  0.7561462E-02  0.1389346E+00
          2   -1    0    0  501    0  0.00000000000E+00  0.00000000000E+00  0.29882320522E+02  0.29882320522E+02  0.00000000000E+00 0. -1.
         -2   -1    0    0    0  501 -0.00000000000E+00 -0.00000000000E+00 -0.41964205223E+03  0.41964205223E+03  0.00000000000E+00 0.  1.
         25    2    1    2    0    0  0.49528293457E+02 -0.12221883662E+02 -0.29082953743E+03  0.32067565701E+03  0.12509448774E+03 0.  0.
          5    1    3    3  502    0  0.36504957602E+02 -0.31311947408E+02 -0.29313032831E+03  0.29707896552E+03  0.41800000000E+01 0. -1.
         -5    1    3    3    0  502  0.13023335855E+02  0.19090063746E+02  0.23007908750E+01  0.23596691490E+02  0.41800000000E+01 0. -1.
        -11    1    1    2    0    0 -0.16399390169E+02  0.99303435553E+01 -0.93198122551E+02  0.95149575764E+02  0.00000000000E+00 0.  1.
         11    1    1    2    0    0 -0.33128903288E+02  0.22915401068E+01 -0.57320717266E+01  0.33699139980E+02  0.00000000000E+00 0. -1.
</event>
<event>
 7    1  0.2384639E-009  0.1859893E+03  0.7561462E-02  0.1162129E+00
         -2   -1    0    0    0  501 -0.00000000000E+00  0.00000000000E+00  0.43209033492E+02  0.43209033492E+02  0.00000000000E+00 0.  1.
          2   -1    0    0  501    0  0.00000000000E+00 -0.00000000000E+00 -0.97639887688E+03  0.97639887688E+03  0.00000000000E+00 0. -1.
         25    2    1    2    0    0  0.15015080744E+03  0.73976537965E+02 -0.36967082010E+03  0.42464324290E+03  0.12509026888E+03 0.  0.
          5    1    3    3  502    0  0.12904020700E+03  0.17510061530E+02 -0.32300792571E+03  0.34829523360E+03  0.41800000000E+01 0.  1.
         -5    1    3    3    0  502  0.21110600441E+02  0.56466476435E+02 -0.46662894389E+02  0.76348009304E+02  0.41800000000E+01 0.  1.
        -11    1    1    2    0    0 -0.12138647165E+03 -0.87340819222E+02 -0.52024793543E+03  0.54131414956E+03  0.00000000000E+00 0. -1.
         11    1    1    2    0    0 -0.28764335786E+02  0.13364281257E+02 -0.43271087864E+02  0.53650517907E+02  0.00000000000E+00 0.  1.
</event>
<event>
 7    1  0.2384639E-009  0.9755102E+02  0.7561462E-02  0.1285532E+00
          1   -1    0    0  501    0  0.00000000000E+00  0.00000000000E+00  0.25182016960E+02  0.25182016960E+02  0.00000000000E+00 0. -1.
         -1   -1    0    0    0  501 -0.00000000000E+00 -0.00000000000E+00 -0.56019602128E+03  0.56019602128E+03  0.00000000000E+00 0.  1.
         25    2    1    2    0    0 -0.38164428248E+02  0.34008174074E+02 -0.42851885414E+03  0.44931829607E+03  0.12508174661E+03 0.  0.
          5    1    3    3  502    0  0.74592717298E+01 -0.38984758707E+02 -0.69919346418E+02  0.80508630281E+02  0.41800000000E+01 0.  1.
         -5    1    3    3    0  502 -0.45623699978E+02  0.72992932781E+02 -0.35859950773E+03  0.36880966579E+03  0.41800000000E+01 0.  1.
        -11    1    1    2    0    0  0.27220717874E+02 -0.45576273628E+02 -0.36863396541E+02  0.64630288596E+02  0.00000000000E+00 0. -1.
         11    1    1    2    0    0  0.10943710374E+02  0.11568099554E+02 -0.69631753639E+02  0.71429453581E+02  0.00000000000E+00 0.  1.
</event>
<event>
 7    1  0.2384639E-009  0.1512882E+03  0.7561462E-02  0.1198899E+00
         -2   -1    0    0    0  501 -0.00000000000E+00  0.00000000000E+00  0.45873890683E+02  0.45873890683E+02  0.00000000000E+00 0.  1.
          2   -1    0    0  501    0  0.00000000000E+00 -0.00000000000E+00 -0.70497386567E+03  0.70497386567E+03  0.00000000000E+00 0. -1.
         25    2    1    2    0    0  0.89095718854E+02 -0.55722062536E+02 -0.54894692845E+03  0.57274004839E+03  0.12508172289E+03 0.  0.
          5    1    3    3  502    0  0.12756346268E+02  0.39225583689E+02 -0.14116857163E+03  0.14713058418E+03  0.41800000000E+01 0.  1.
         -5    1    3    3    0  502  0.76339372586E+02 -0.94947646225E+02 -0.40777835682E+03  0.42560946421E+03  0.41800000000E+01 0.  1.
        -11    1    1    2    0    0 -0.28786753952E+02 -0.25222555130E+02 -0.22344408409E+02  0.44318473321E+02  0.00000000000E+00 0.  1.
         11    1    1    2    0    0 -0.60308964901E+02  0.80944617666E+02 -0.87808638131E+02  0.13378923465E+03  0.00000000000E+00 0. -1.
</event>
<event>
 7    1  0.2384639E-009  0.1494462E+03  0.7561462E-02  0.1201155E+00
         -1   -1    0    0    0  501 -0.00000000000E+00  0.00000000000E+00  0.11529128629E+03  0.11529128629E+03  0.00000000000E+00 0.  1.
          1   -1    0    0  501    0  0.00000000000E+00 -0.00000000000E+00 -0.23279685197E+03  0.23279685197E+03  0.00000000000E+00 0. -1.
         25    2    1    2    0    0 -0.65243374795E+02  0.84980741755E+02 -0.12911278238E+03  0.20927397293E+03  0.12508821187E+03 0.  0.
          5    1    3    3  502    0 -0.13346110172E+02  0.10427197215E+03 -0.61793513468E+02  0.12201095664E+03  0.41800000000E+01 0. -1.
         -5    1    3    3    0  502 -0.51897264623E+02 -0.19291230399E+02 -0.67319268907E+02  0.87263016289E+02  0.41800000000E+01 0. -1.
        -11    1    1    2    0    0 -0.16838168468E+02 -0.42554084718E+02  0.65254287731E+00  0.45768983557E+02  0.00000000000E+00 0.  1.
         11    1    1    2    0    0  0.82081543263E+02 -0.42426657036E+02  0.10954673816E+02  0.93045181768E+02  0.00000000000E+00 0. -1.
</event>
<event>
 7    1  0.2384639E-009  0.3119824E+03  0.7561462E-02  0.1079400E+00
         -2   -1    0    0    0  501 -0.00000000000E+00  0.00000000000E+00  0.11225657284E+03  0.11225657284E+03  0.00000000000E+00 0.  1.
          2   -1    0    0  501    0  0.00000000000E+00 -0.00000000000E+00 -0.98388440326E+03  0.98388440326E+03  0.00000000000E+00 0. -1.
         25    2    1    2    0    0  0.20410650626E+03  0.23204265437E+03 -0.33112329976E+03  0.46988650509E+03  0.12508968256E+03 0.  0.
          5    1    3    3  502    0  0.13799530055E+03  0.14769831663E+03 -0.29316589429E+03  0.35611965641E+03  0.41800000000E+01 0.  1.
         -5    1    3    3    0  502  0.66111205710E+02  0.84344337739E+02 -0.37957405469E+02  0.11376684868E+03  0.41800000000E+01 0.  1.
        -11    1    1    2    0    0 -0.87055419447E+02 -0.57309908238E+02 -0.21123284539E+03  0.23554699448E+03  0.00000000000E+00 0. -1.
         11    1    1    2    0    0 -0.11705108682E+03 -0.17473274613E+03 -0.32927168526E+03  0.39070747652E+03  0.00000000000E+00 0.  1.
</event>
<event>
 7    1  0.2384639E-009  0.1185811E+03  0.7561462E-02  0.1245456E+00
          2   -1    0    0  501    0  0.00000000000E+00  0.00000000000E+00  0.71818615169E+02  0.71818615169E+02  0.00000000000E+00 0. -1.
         -2   -1    0    0    0  501 -0.00000000000E+00 -0.00000000000E+00 -0.33010216580E+03  0.33010216580E+03  0.00000000000E+00 0.  1.
         25    2    1    2    0    0 -0.72512212060E+02 -0.10463689399E+02 -0.35871702748E+02  0.14933896081E+03  0.12509131250E+03 0.  0.
          5    1    3    3  502    0  0.11321667873E+02  0.34341169869E+02  0.17343690562E+02  0.40320864496E+02  0.41800000000E+01 0. -1.
         -5    1    3    3    0  502 -0.83833879934E+02 -0.44804859268E+02 -0.53215393310E+02  0.10901809631E+03  0.41800000000E+01 0. -1.
        -11    1    1    2    0    0  0.61806212513E+02 -0.26414144279E+02 -0.19252819313E+03  0.20392356429E+03  0.00000000000E+00 0.  1.
         11    1    1    2    0    0  0.10705999548E+02  0.36877833677E+02 -0.29883654759E+02  0.48658255875E+02  0.00000000000E+00 0. -1.
</event>
<event>
 7    1  0.2384639E-009  0.9319779E+02  0.7561462E-02  0.1295287E+00
          2   -1    0    0  501    0  0.00000000000E+00  0.00000000000E+00  0.23550094116E+03  0.23550094116E+03  0.00000000000E+00 0. -1.
         -2   -1    0    0    0  501 -0.00000000000E+00 -0.00000000000E+00 -0.81812326697E+02  0.81812326697E+02  0.00000000000E+00 0.  1.
         25    2    1    2    0    0 -0.11248613626E+02  0.57028465203E+02  0.15131146459E+03  0.20474978432E+03  0.12509411541E+03 0.  0.
          5    1    3    3  502    0 -0.29723202578E+02  0.46572782915E+02  0.16833533963E+03  0.17721950189E+03  0.41800000000E+01 0.  1.
         -5    1    3    3    0  502  0.18474588952E+02  0.10455682289E+02 -0.17023875045E+02  0.27530282429E+02  0.41800000000E+01 0.  1.
        -11    1    1    2    0    0 -0.26205838451E+02  0.13512757121E+02 -0.11218203276E+02  0.31546610890E+02  0.00000000000E+00 0.  1.
         11    1    1    2    0    0  0.37454452076E+02 -0.70541222324E+02  0.13595353155E+02  0.81016872654E+02  0.00000000000E+00 0. -1.
</event>
<event>
 7    1  0.2384639E-009  0.2003158E+03  0.7561462E-02  0.1149473E+00
          1   -1    0    0  501    0  0.00000000000E+00  0.00000000000E+00  0.28598805641E+03  0.28598805641E+03  0.00000000000E+00 0. -1.
         -1   -1    0    0    0  501 -0.00000000000E+00 -0.00000000000E+00 -0.17148268491E+03  0.17148268491E+03  0.00000000000E+00 0.  1.
         25    2    1    2    0    0 -0.11503937410E+03 -0.12792465620E+03  0.14899446909E+03  0.25970327493E+03  0.12509062289E+03 0.  0.
          5    1    3    3  502    0  0.15317419084E+02 -0.63031980675E+02  0.63094721915E+02  0.90587362522E+02  0.41800000000E+01 0. -1.
         -5    1    3    3    0  502 -0.13035679319E+03 -0.64892675520E+02  0.85899747171E+02  0.16911591241E+03  0.41800000000E+01 0. -1.
        -11    1    1    2    0    0  0.11460375878E+03  0.74856578766E+02 -0.44142860643E+02  0.14382670495E+03  0.00000000000E+00 0.  1.
         11    1    1    2    0    0  0.43561531904E+00  0.53068077430E+02  0.96537630506E+01  0.53940761432E+02  0.00000000000E+00 0. -1.
</event>
<event>
 7    1  0.2384639E-009  0.7437277E+02  0.7561462E-02  0.1345824E+00
          1   -1    0    0  501    0  0.00000000000E+00  0.00000000000E+00  0.35628834132E+02  0.35628834132E+02  0.00000000000E+00 0.  1.
         -1   -1    0    0    0  501 -0.00000000000E+00 -0.00000000000E+00 -0.64263872574E+03  0.64263872574E+03  0.00000000000E+00 0. -1.
         25    2    1    2    0    0  0.27919390788E+02 -0.20151945783E+02 -0.55212941012E+03  0.56716835447E+03  0.12508982168E+03 0.  0.
          5    1    3    3  502    0 -0.24168982579E+01 -0.25198106615E+02 -0.16204233653E+02  0.30345272490E+02  0.41800000000E+01 0. -1.
         -5    1    3    3    0  502  0.30336289046E+02  0.50461608325E+01 -0.53592517647E+03  0.53682308198E+03  0.41800000000E+01 0. -1.
        -11    1    1    2    0    0 -0.24929817570E+02  0.53262386911E+02 -0.50598311752E+02  0.77579422631E+02  0.00000000000E+00 0. -1.
         11    1    1    2    0    0 -0.29895732181E+01 -0.33110441128E+02 -0.42821697359E+01  0.33519782776E+02  0.00000000000E+00 0.  1.
</event>
<event>
 7    1  0.2384639E-009  0.2210017E+03  0.7561462E-02  0.1133138E+00
         -2   -1    0    0    0  501 -0.00000000000E+00  0.00000000000E+00  0.88791762304E+02  0.88791762304E+02  0.00000000000E+00 0.  1.
          2   -1    0    0  501    0  0.00000000000E+00 -0.00000000000E+00 -0.58408172321E+03  0.58408172321E+03  0.00000000000E+00 0. -1.
         25    2    1    2    0    0 -0.13127465447E+03  0.14156798025E+03 -0.33407830624E+03  0.40562658483E+03  0.12510029449E+03 0.  0.
          5    1    3    3  502    0  0.74537142560E+00  0.85881192495E+02 -0.14107563343E+03  0.16521483453E+03  0.41800000000E+01 0. -1.
         -5    1    3    3    0  502 -0.13202002590E+03  0.55686787755E+02 -0.19300267281E+03  0.24041175030E+03  0.41800000000E+01 0. -1.
        -11    1    1    2    0    0  0.63215785552E+02 -0.12872854877E+03 -0.11694338351E+03  0.18504872266E+03  0.00000000000E+00 0. -1.
         11    1    1    2    0    0  0.68058868918E+02 -0.12839431477E+02 -0.44268271161E+02  0.82198178025E+02  0.00000000000E+00 0.  1.
</event>
<event>
 7    1  0.2384639E-009  0.1040166E+03  0.7561462E-02  0.1272069E+00
         -1   -1    0    0    0  501 -0.00000000000E+00  0.00000000000E+00  0.17150524282E+02  0.17150524282E+02  0.00000000000E+00 0.  1.
          1   -1    0    0  501    0  0.00000000000E+00 -0.00000000000E+00 -0.11268335943E+04  0.11268335943E+04  0.00000000000E+00 0. -1.
         25    2    1    2    0    0  0.49140171661E+02  0.30457823064E+02 -0.81435924550E+03  0.82593449421E+03  0.12507746618E+03 0.  0.
          5    1    3    3  502    0 -0.22305307848E+02  0.36368511410E+01 -0.55681508930E+03  0.55728921532E+03  0.41800000000E+01 0. -1.
         -5    1    3    3    0  502  0.71445479509E+02  0.26820971923E+02 -0.25754415620E+03  0.26864527889E+03  0.41800000000E+01 0. -1.
        -11    1    1    2    0    0 -0.15508449785E+02 -0.61152670024E+02 -0.22948872445E+03  0.23800259603E+03  0.00000000000E+00 0. -1.
         11    1    1    2    0    0 -0.33631721876E+02  0.30694846960E+02 -0.65835100107E+02  0.80047028380E+02  0.00000000000E+00 0.  1.
</event>
<event>
 7    1  0.2384639E-009  0.1153259E+03  0.7561462E-02  0.1251013E+00
          2   -1    0    0  501    0  0.00000000000E+00  0.00000000000E+00  0.11679650922E+03  0.11679650922E+03  0.00000000000E+00 0. -1.
         -2   -1    0    0    0  501 -0.00000000000E+00 -0.00000000000E+00 -0.21320685233E+03  0.21320685233E+03  0.00000000000E+00 0.  1.
         25    2    1    2    0    0 -0.73405154136E+02 -0.48663864972E+02 -0.12794332763E+03  0.19943207016E+03  0.12508863704E+03 0.  0.
          5    1    3    3  502    0 -0.34147847347E+02 -0.71886232497E+02 -0.19988749275E+02  0.82162816399E+02  0.41800000000E+01 0. -1.
         -5    1    3    3    0  502 -0.39257306789E+02  0.23222367525E+02 -0.10795457836E+03  0.11726925376E+03  0.41800000000E+01 0. -1.
        -11    1    1    2    0    0  0.61906107320E+02  0.74332801948E+01 -0.18201717384E+02  0.64953231588E+02  0.00000000000E+00 0.  1.
         11    1    1    2    0    0  0.11499046816E+02  0.41230584777E+02  0.49734701907E+02  0.65618059804E+02  0.00000000000E+00 0. -1.
</event>
<event>
 7    1  0.2384639E-009  0.1400632E+03  0.7561462E-02  0.1213244E+00
          1   -1    0    0  501    0  0.00000000000E+00  0.00000000000E+00  0.55590770323E+02  0.55590770323E+02  0.00000000000E+00 0. -1.
         -1   -1    0    0    0  501 -0.00000000000E+00 -0.00000000000E+00 -0.40620946209E+03  0.40620946209E+03  0.00000000000E+00 0.  1.
         25    2    1    2    0    0 -0.59799542180E+02 -0.10618334971E+03 -0.22050353364E+03  0.28128364793E+03  0.12509113976E+03 0.  0.
          5    1    3    3  502    0 -0.15350280349E+01 -0.97745328277E+02 -0.72002720410E+02  0.12148403046E+03  0.41800000000E+01 0.  1.
         -5    1    3    3    0  502 -0.58264514145E+02 -0.84380214371E+01 -0.14850081323E+03  0.15979961747E+03  0.41800000000E+01 0.  1.
        -11    1    1    2    0    0  0.42076817244E+02  0.89598890989E+02 -0.11578230626E+03  0.15232846831E+03  0.00000000000E+00 0.  1.
         11    1    1    2    0    0  0.17722724936E+02  0.16584458725E+02 -0.14332851871E+02  0.28188116168E+02  0.00000000000E+00 0. -1.
</event>
<event>
 7    1  0.2384639E-009  0.1072044E+03  0.7561462E-02  0.1265836E+00
         -2   -1    0    0    0  501 -0.00000000000E+00  0.00000000000E+00  0.59635657467E+02  0.59635657467E+02  0.00000000000E+00 0.  1.
          2   -1    0    0  501    0  0.00000000000E+00 -0.00000000000E+00 -0.29407902413E+03  0.29407902413E+03  0.00000000000E+00 0. -1.
         25    2    1    2    0    0  0.42401013203E+02  0.38315868675E+02 -0.14881567938E+03  0.20263185436E+03  0.12509040835E+03 0.  0.
          5    1    3    3  502    0 -0.22140091722E+02  0.38245449638E+02 -0.46607348705E+01  0.44632868259E+02  0.41800000000E+01 0. -1.
         -5    1    3    3    0  502  0.64541104924E+02  0.70419036657E-01 -0.14415494451E+03  0.15799898610E+03  0.41800000000E+01 0. -1.
        -11    1    1    2    0    0 -0.49012965974E+02  0.15281483997E+02 -0.18070555120E+01  0.51371782492E+02  0.00000000000E+00 0.  1.
         11    1    1    2    0    0  0.66119527718E+01 -0.53597352672E+02 -0.83820631773E+02  0.99711044743E+02  0.00000000000E+00 0. -1.
</event>
<event>
 7    1  0.2384639E-009  0.1274256E+03  0.7561462E-02  0.1231327E+00
          4   -1    0    0  501    0  0.00000000000E+00  0.00000000000E+00  0.52054584430E+02  0.52054584430E+02  0.00000000000E+00 0.  1.
         -4   -1    0    0    0  501 -0.00000000000E+00 -0.00000000000E+00 -0.32200560549E+03  0.32200560549E+03  0.00000000000E+00 0. -1.
         25    2    1    2    0    0 -0.64215050801E+02  0.30944556858E+02 -0.17116559635E+03  0.22366550490E+03  0.12508980119E+03 0.  0.
          5    1    3    3  502    0  0.36268224230E+02  0.16934569062E+02 -0.32124477447E+02  0.51493865357E+02  0.41800000000E+01 0. -1.
         -5    1    3    3    0  502 -0.10048327503E+03  0.14009987796E+02 -0.13904111890E+03  0.17217163955E+03  0.41800000000E+01 0. -1.
        -11    1    1    2    0    0 -0.22042461071E+02 -0.10511346985E+02 -0.16729427788E+02  0.29601220576E+02  0.00000000000E+00 0. -1.
         11    1    1    2    0    0  0.86257511872E+02 -0.20433209873E+02 -0.82055996924E+02  0.12079346444E+03  0.00000000000E+00 0.  1.
</event>
<event>
 7    1  0.2384639E-009  0.1356513E+03  0.7561462E-02  0.1219303E+00
          1   -1    0    0  501    0  0.00000000000E+00  0.00000000000E+00  0.10157743029E+03  0.10157743029E+03  0.00000000000E+00 0. -1.
         -1   -1    0    0    0  501 -0.00000000000E+00 -0.00000000000E+00 -0.25332404580E+03  0.25332404580E+03  0.00000000000E+00 0.  1.
         25    2    1    2    0    0  0.76003053959E+02 -0.61571970609E+02 -0.13212670848E+02  0.15934261732E+03  0.12509165939E+03 0.  0.
          5    1    3    3  502    0  0.44931497071E+02  0.27505332832E+02  0.23742308639E+02  0.57935760828E+02  0.41800000000E+01 0. -1.
         -5    1    3    3    0  502  0.31071556888E+02 -0.89077303441E+02 -0.36954979487E+02  0.10140685650E+03  0.41800000000E+01 0. -1.
        -11    1    1    2    0    0 -0.11372414180E+02  0.58202627160E+02 -0.10970911627E+03  0.12471153838E+03  0.00000000000E+00 0.  1.
         11    1    1    2    0    0 -0.64630639779E+02  0.33693434485E+01 -0.28824828389E+02  0.70847320381E+02  0.00000000000E+00 0. -1.
</event>
<event>
 7    1  0.2384639E-009  0.1694139E+03  0.7561462E-02  0.1178460E+00
         -2   -1    0    0    0  501 -0.00000000000E+00  0.00000000000E+00  0.14009779576E+03  0.14009779576E+03  0.00000000000E+00 0.  1.
          2   -1    0    0  501    0  0.00000000000E+00 -0.00000000000E+00 -0.29390261653E+03  0.29390261653E+03  0.00000000000E+00 0. -1.
         25    2    1    2    0    0  0.11157568319E+03  0.11434223958E+03 -0.14701595922E+03  0.25056779465E+03  0.12508895481E+03 0.  0.
          5    1    3    3  502    0  0.38023905645E+02  0.23036078726E+02  0.17959537069E+02  0.48129987485E+02  0.41800000000E+01 0.  1.
         -5    1    3    3    0  502  0.73551777545E+02  0.91306160858E+02 -0.16497549629E+03  0.20243780716E+03  0.41800000000E+01 0.  1.
        -11    1    1    2    0    0 -0.60050504904E+02 -0.10542650551E+02  0.20600932002E+02  0.64355334038E+02  0.00000000000E+00 0.  1.
         11    1    1    2    0    0 -0.51525178286E+02 -0.10379958903E+03 -0.27389793542E+02  0.11907728361E+03  0.00000000000E+00 0. -1.
</event>
<event>
 7    1  0.2384639E-009  0.4777944E+03  0.7561462E-02  0.1019743E+00
         -2   -1    0    0    0  501 -0.00000000000E+00  0.00000000000E+00  0.13482605781E+04  0.13482605781E+04  0.00000000000E+00 0.  1.
          2   -1    0    0  501    0  0.00000000000E+00 -0.00000000000E+00 -0.20907304479E+03  0.20907304479E+03  0.00000000000E+00 0. -1.
         25    2    1    2    0    0  0.47308591635E+03 -0.43872869656E+01  0.87941077368E+03  0.10063999608E+04  0.12509212495E+03 0.  0.
          5    1    3    3  502    0  0.37676174423E+03 -0.16665858058E+02  0.78499682209E+03  0.87089875751E+03  0.41800000000E+01 0. -1.
         -5    1    3    3    0  502  0.96324172113E+02  0.12278571093E+02  0.94413951593E+02  0.13550120330E+03  0.41800000000E+01 0. -1.
        -11    1    1    2    0    0 -0.12566467747E+03 -0.37902769682E+02  0.10573885079E+03  0.16854950513E+03  0.00000000000E+00 0.  1.
         11    1    1    2    0    0 -0.34742123888E+03  0.42290056647E+02  0.15403790883E+03  0.38238415693E+03  0.00000000000E+00 0. -1.
</event>
<event>
 7    1  0.2384639E-009  0.9026927E+02  0.7561462E-02  0.1302201E+00
          2   -1    0    0  501    0  0.00000000000E+00  0.00000000000E+00  0.19726374316E+03  0.19726374316E+03  0.00000000000E+00 0.  1.
         -2   -1    0    0    0  501 -0.00000000000E+00 -0.00000000000E+00 -0.63599058992E+02  0.63599058992E+02  0.00000000000E+00 0. -1.
         25    2    1    2    0    0  0.25149579132E+02 -0.35238829103E+01  0.56919250143E+02  0.13976331297E+03  0.12509621711E+03 0.  0.
          5    1    3    3  502    0  0.51296975379E+02  0.18046287831E+02  0.81230411722E+02  0.97841199789E+02  0.41800000000E+01 0. -1.
         -5    1    3    3    0  502 -0.26147396248E+02 -0.21570170741E+02 -0.24311161579E+02  0.41922113182E+02  0.41800000000E+01 0. -1.
        -11    1    1    2    0    0 -0.56052437492E+00 -0.40989311600E+02  0.46255835027E+02  0.61806473181E+02  0.00000000000E+00 0. -1.
         11    1    1    2    0    0 -0.24589054757E+02  0.44513194510E+02  0.30489598996E+02  0.59293015999E+02  0.00000000000E+00 0.  1.
</event>
<event>
 7    1  0.2384639E-009  0.1226224E+03  0.7561462E-02  0.1238833E+00
         -1   -1    0    0    0  501 -0.00000000000E+00  0.00000000000E+00  0.65364496986E+02  0.65364496986E+02  0.00000000000E+00 0.  1.
          1   -1    0    0  501    0  0.00000000000E+00 -0.00000000000E+00 -0.32126134039E+03  0.32126134039E+03  0.00000000000E+00 0. -1.
         25    2    1    2    0    0 -0.74471734894E+02  0.19730364661E+02 -0.21425976082E+03  0.25978849741E+03  0.12508993442E+03 0.  0.
          5    1    3    3  502    0 -0.34866761379E+02  0.72623404701E+02 -0.11491348322E+03  0.14040096505E+03  0.41800000000E+01 0. -1.
         -5    1    3    3    0  502 -0.39604973515E+02 -0.52893040040E+02 -0.99346277595E+02  0.11938753236E+03  0.41800000000E+01 0. -1.
        -11    1    1    2    0    0  0.75133390661E+02  0.34164757811E+01  0.43631525222E+01  0.75337479377E+02  0.00000000000E+00 0.  1.
         11    1    1    2    0    0 -0.66165576724E+00 -0.23146840443E+02 -0.46000235111E+02  0.51499860593E+02  0.00000000000E+00 0. -1.
</event>
<event>
 7    1  0.2384639E-009  0.9126375E+02  0.7561462E-02  0.1299820E+00
         -2   -1    0    0    0  501 -0.00000000000E+00  0.00000000000E+00  0.30721194309E+03  0.30721194309E+03  0.00000000000E+00 0.  1.
          2   -1    0    0  501    0  0.00000000000E+00 -0.00000000000E+00 -0.46516679230E+02  0.46516679230E+02  0.00000000000E+00 0. -1.
         25    2    1    2    0    0 -0.44088374421E+02 -0.23748547380E+02  0.16103890087E+03  0.20997157496E+03  0.12508699547E+03 0.  0.
          5    1    3    3  502    0 -0.66124574375E+02 -0.10119996549E+02  0.16960146633E+03  0.18236502803E+03  0.41800000000E+01 0. -1.
         -5    1    3    3    0  502  0.22036199954E+02 -0.13628550831E+02 -0.85625654598E+01  0.27606546930E+02  0.41800000000E+01 0. -1.
        -11    1    1    2    0    0  0.37634171793E+02  0.49798575850E+02  0.98848723078E+02  0.11690722432E+03  0.00000000000E+00 0.  1.
         11    1    1    2    0    0  0.64542026278E+01 -0.26050028471E+02  0.80763990418E+00  0.26849823037E+02  0.00000000000E+00 0. -1.
</event>
<event>
 7    1  0.2384639E-009  0.1073147E+03  0.7561462E-02  0.1265625E+00
          2   -1    0    0  501    0  0.00000000000E+00  0.00000000000E+00  0.11316104711E+04  0.11316104711E+04  0.00000000000E+00 0. -1.
         -2   -1    0    0    0  501 -0.00000000000E+00 -0.00000000000E+00 -0.10732019624E+02  0.10732019624E+02  0.00000000000E+00 0.  1.
         25    2    1    2    0    0  0.12019508570E+02  0.28724952597E+01  0.71919223192E+03  0.73009404285E+03  0.12508846924E+03 0.  0.
          5    1    3    3  502    0  0.36725268275E+02  0.55866213164E+02  0.39741591362E+03  0.40302190996E+03  0.41800000000E+01 0.  1.
         -5    1    3    3    0  502 -0.24705759705E+02 -0.52993717904E+02  0.32177631830E+03  0.32707213290E+03  0.41800000000E+01 0.  1.
        -11    1    1    2    0    0 -0.38208383682E+02 -0.32010973948E+02  0.16579252304E+03  0.17312349272E+03  0.00000000000E+00 0.  1.
         11    1    1    2    0    0  0.26188875113E+02  0.29138478689E+02  0.23589369655E+03  0.23912495518E+03  0.00000000000E+00 0. -1.
</event>
<event>
 7    1  0.2384639E-009  0.1647369E+03  0.7561462E-02  0.1183450E+00
         -3   -1    0    0    0  501 -0.00000000000E+00  0.00000000000E+00  0.39812064551E+02  0.39812064551E+02  0.00000000000E+00 0.  1.
          3   -1    0    0  501    0  0.00000000000E+00 -0.00000000000E+00 -0.83189851308E+03  0.83189851308E+03  0.00000000000E+00 0. -1.
         25    2    1    2    0    0 -0.11108966279E+03 -0.70556238373E+02 -0.56802237366E+03  0.59633563219E+03  0.12509066028E+03 0.  0.
          5    1    3    3  502    0 -0.90063952125E+02  0.12895165044E+02 -0.22682764459E+03  0.24443005852E+03  0.41800000000E+01 0.  1.
         -5    1    3    3    0  502 -0.21025710667E+02 -0.83451403417E+02 -0.34119472906E+03  0.35190557367E+03  0.41800000000E+01 0.  1.
        -11    1    1    2    0    0  0.11608466916E+03  0.80391534457E+02 -0.22345080564E+03  0.26432690323E+03  0.00000000000E+00 0. -1.
         11    1    1    2    0    0 -0.49950063690E+01 -0.98352960840E+01 -0.61326922876E+00  0.11048042217E+02  0.00000000000E+00 0.  1.
</event>
<event>
 7    1  0.2384639E-009  0.2530756E+03  0.7561462E-02  0.1111376E+00
         -2   -1    0    0    0  501 -0.00000000000E+00  0.00000000000E+00  0.13353572351E+03  0.13353572351E+03  0.00000000000E+00 0. -1.
          2   -1    0    0  501    0  0.00000000000E+00 -0.00000000000E+00 -0.48245462012E+03  0.48245462012E+03  0.00000000000E+00 0.  1.
         25    2    1    2    0    0 -0.17237624524E+03  0.15017398652E+03 -0.19544939271E+03  0.32575548249E+03  0.12510145126E+03 0.  0.
          5    1    3    3  502    0 -0.12168262269E+02  0.87566102878E+02 -0.69215671032E+02  0.11235733397E+03  0.41800000000E+01 0. -1.
         -5    1    3    3    0  502 -0.16020798298E+03  0.62607883647E+02 -0.12623372168E+03  0.21339814852E+03  0.41800000000E+01 0. -1.
        -11    1    1    2    0    0  0.16152367543E+03 -0.90934089985E+02 -0.12535923556E+03  0.22377185789E+03  0.00000000000E+00 0.  1.
         11    1    1    2    0    0  0.10852569816E+02 -0.59239896540E+02 -0.28110268345E+02  0.66463003243E+02  0.00000000000E+00 0. -1.
</event>
<event>
 7    1  0.2384639E-009  0.1503951E+03  0.7561462E-02  0.1199988E+00
         -2   -1    0    0    0  501 -0.00000000000E+00  0.00000000000E+00  0.15496830345E+03  0.15496830345E+03  0.00000000000E+00 0.  1.
          2   -1    0    0  501    0  0.00000000000E+00 -0.00000000000E+00 -0.18826611142E+03  0.18826611142E+03  0.00000000000E+00 0. -1.
         25    2    1    2    0    0  0.12756489613E+03 -0.99883059425E+01 -0.50699363081E+02  0.18598570649E+03  0.12509072157E+03 0.  0.
          5    1    3    3  502    0  0.10859608220E+03  0.42450252610E+02 -0.10558565776E+02  0.11714985586E+03  0.41800000000E+01 0.  1.
         -5    1    3    3    0  502  0.18968813926E+02 -0.52438558553E+02 -0.40140797305E+02  0.68835850639E+02  0.41800000000E+01 0.  1.
        -11    1    1    2    0    0 -0.45125042787E+02 -0.23250007646E+00  0.50591730161E+02  0.67792674408E+02  0.00000000000E+00 0.  1.
         11    1    1    2    0    0 -0.82439853339E+02  0.10220806019E+02 -0.33190175042E+02  0.89456033970E+02  0.00000000000E+00 0. -1.
</event>
<event>
 7    1  0.2384639E-009  0.1621539E+03  0.7561462E-02  0.1186286E+00
         -1   -1    0    0    0  501 -0.00000000000E+00  0.00000000000E+00  0.35741045830E+03  0.35741045830E+03  0.00000000000E+00 0.  1.
          1   -1    0    0  501    0  0.00000000000E+00 -0.00000000000E+00 -0.90571049540E+02  0.90571049540E+02  0.00000000000E+00 0. -1.
         25    2    1    2    0    0 -0.10326523021E+03  0.68107679566E+02  0.11989178397E+03  0.21289402063E+03  0.12508980922E+03 0.  0.
          5    1    3    3  502    0 -0.23797390235E+02  0.66192423346E+02  0.18099830765E+01  0.70487595570E+02  0.41800000000E+01 0.  1.
         -5    1    3    3    0  502 -0.79467839972E+02  0.19152562198E+01  0.11808180089E+03  0.14240642506E+03  0.41800000000E+01 0.  1.
        -11    1    1    2    0    0  0.11651621874E+03 -0.90966656932E+02  0.91985565325E+02  0.17410429671E+03  0.00000000000E+00 0. -1.
         11    1    1    2    0    0 -0.13250988535E+02  0.22858977366E+02  0.54962059466E+02  0.60983190505E+02  0.00000000000E+00 0.  1.
</event>
<event>
 7    1  0.2384639E-009  0.1621344E+03  0.7561462E-02  0.1186308E+00
         -1   -1    0    0    0  501 -0.00000000000E+00  0.00000000000E+00  0.37425802867E+03  0.37425802867E+03  0.00000000000E+00 0.  1.
          1   -1    0    0  501    0  0.00000000000E+00 -0.00000000000E+00 -0.83543559686E+02  0.83543559686E+02  0.00000000000E+00 0. -1.
         25    2    1    2    0    0  0.70170367005E+02  0.11957119352E+03  0.17333785166E+03  0.25478155082E+03  0.12508587888E+03 0.  0.
          5    1    3    3  502    0  0.50842703951E+02  0.26094281557E+01  0.86307908592E+01  0.51804947748E+02  0.41800000000E+01 0. -1.
         -5    1    3    3    0  502  0.19327663054E+02  0.11696176536E+03  0.16470706081E+03  0.20297660307E+03  0.41800000000E+01 0. -1.
        -11    1    1    2    0    0  0.96863925973E+01 -0.42478767192E+02  0.30515963691E+01  0.43675898435E+02  0.00000000000E+00 0. -1.
         11    1    1    2    0    0 -0.79856759603E+02 -0.77092426323E+02  0.11432502095E+03  0.15934413910E+03  0.00000000000E+00 0.  1.
</event>
<event>
 7    1  0.2384639E-009  0.1226539E+03  0.7561462E-02  0.1238782E+00
          2   -1    0    0  501    0  0.00000000000E+00  0.00000000000E+00  0.66245142034E+02  0.66245142034E+02  0.00000000000E+00 0. -1.
         -2   -1    0    0    0  501 -0.00000000000E+00 -0.00000000000E+00 -0.38594015280E+03  0.38594015280E+03  0.00000000000E+00 0.  1.
         25    2    1    2    0    0 -0.11348674836E+03 -0.19528715501E+02 -0.14833179838E+03  0.22563356803E+03  0.12509025473E+03 0.  0.
          5    1    3    3  502    0 -0.94076248370E+02 -0.39166856903E+02 -0.16436138464E+03  0.19343350369E+03  0.41800000000E+01 0. -1.
         -5    1    3    3    0  502 -0.19410499994E+02  0.19638141403E+02  0.16029586266E+02  0.32200064342E+02  0.41800000000E+01 0. -1.
        -11    1    1    2    0    0  0.58598154241E+02  0.63343298605E+01 -0.15738798173E+02  0.61004730826E+02  0.00000000000E+00 0. -1.
         11    1    1    2    0    0  0.54888594123E+02  0.13194385640E+02 -0.15562441421E+03  0.16554699597E+03  0.00000000000E+00 0.  1.
</event>
<event>
 7    1  0.2384639E-009  0.1546402E+03  0.7561462E-02  0.1194884E+00
         -1   -1    0    0    0  501 -0.00000000000E+00  0.00000000000E+00  0.53913352028E+02  0.53913352028E+02  0.00000000000E+00 0.  1.
          1   -1    0    0  501    0  0.00000000000E+00 -0.00000000000E+00 -0.58719234803E+03  0.58719234803E+03  0.00000000000E+00 0. -1.
         25    2    1    2    0    0  0.43500790548E+01  0.95669937899E+02 -0.41622009967E+03  0.44503525102E+03  0.12508214530E+03 0.  0.
          5    1    3    3  502    0  0.61300213757E+02  0.41591063197E+02 -0.14852223686E+03  0.16602367297E+03  0.41800000000E+01 0. -1.
         -5    1    3    3    0  502 -0.56950134702E+02  0.54078874702E+02 -0.26769786281E+03  0.27901157805E+03  0.41800000000E+01 0. -1.
        -11    1    1    2    0    0 -0.59948864133E+02 -0.21381128771E+02 -0.37717572158E+02  0.73984013327E+02  0.00000000000E+00 0.  1.
         11    1    1    2    0    0  0.55598785078E+02 -0.74288809128E+02 -0.79341324177E+02  0.12208643572E+03  0.00000000000E+00 0. -1.
</event>
<event>
 7    1  0.2384639E-009  0.2419370E+03  0.7561462E-02  0.1118509E+00
         -2   -1    0    0    0  501 -0.00000000000E+00  0.00000000000E+00  0.37596400616E+02  0.37596400616E+02  0.00000000000E+00 0.  1.
          2   -1    0    0  501    0  0.00000000000E+00 -0.00000000000E+00 -0.16224112441E+04  0.16224112441E+04  0.00000000000E+00 0. -1.
         25    2    1    2    0    0  0.14533989509E+03 -0.16557288220E+03 -0.73551153313E+03  0.77792305589E+03  0.12509596756E+03 0.  0.
          5    1    3    3  502    0  0.13421466665E+03 -0.60512143229E+02 -0.44775437138E+03  0.47135628320E+03  0.41800000000E+01 0. -1.
         -5    1    3    3    0  502  0.11125228437E+02 -0.10506073897E+03 -0.28775716175E+03  0.30656677270E+03  0.41800000000E+01 0. -1.
        -11    1    1    2    0    0 -0.46564836966E+01  0.45971092094E+02 -0.27415872161E+03  0.27802523048E+03  0.00000000000E+00 0.  1.
         11    1    1    2    0    0 -0.14068341139E+03  0.11960179011E+03 -0.57514458876E+03  0.60405935836E+03  0.00000000000E+00 0. -1.
</event>
<event>
 7    1  0.2384639E-009  0.1036537E+03  0.7561462E-02  0.1272795E+00
          3   -1    0    0  501    0  0.00000000000E+00  0.00000000000E+00  0.24256891865E+03  0.24256891865E+03  0.00000000000E+00 0. -1.
         -3   -1    0    0    0  501 -0.00000000000E+00 -0.00000000000E+00 -0.58242007938E+02  0.58242007938E+02  0.00000000000E+00 0.  1.
         25    2    1    2    0    0 -0.47493862940E+02 -0.14274033540E+02  0.93553995786E+02  0.16388832529E+03  0.12509043923E+03 0.  0.
          5    1    3    3  502    0 -0.86913174799E+02 -0.27968078904E+02  0.53552169025E+02  0.10593120692E+03  0.41800000000E+01 0.  1.
         -5    1    3    3    0  502  0.39419311860E+02  0.13694045364E+02  0.40001826760E+02  0.57957118373E+02  0.41800000000E+01 0.  1.
        -11    1    1    2    0    0 -0.12294857110E+02 -0.76732234700E+00 -0.11921856031E+02  0.17143014500E+02  0.00000000000E+00 0.  1.
         11    1    1    2    0    0  0.59788720049E+02  0.15041355887E+02  0.10269477096E+03  0.11977958680E+03  0.00000000000E+00 0. -1.
</event>
<event>
 7    1  0.2384639E-009  0.1213063E+03  0.7561462E-02  0.1240958E+00
          2   -1    0    0  501    0  0.00000000000E+00  0.00000000000E+00  0.11295604475E+04  0.11295604475E+04  0.00000000000E+00 0. -1.
         -2   -1    0    0    0  501 -0.00000000000E+00 -0.00000000000E+00 -0.22806072819E+02  0.22806072819E+02  0.00000000000E+00 0.  1.
         25    2    1    2    0    0  0.81109723755E+01  0.64537792873E+02  0.94704305274E+03  0.95748043054E+03  0.12508923426E+03 0.  0.
          5    1    3    3  502    0  0.65105996795E+02  0.19149244402E+02  0.46446677939E+03  0.46941702775E+03  0.41800000000E+01 0. -1.
         -5    1    3    3    0  502 -0.56995024419E+02  0.45388548471E+02  0.48257627335E+03  0.48806340279E+03  0.41800000000E+01 0. -1.
        -11    1    1    2    0    0 -0.43303418289E+02 -0.34300188238E+02  0.12586539764E+03  0.13745467352E+03  0.00000000000E+00 0. -1.
         11    1    1    2    0    0  0.35192445913E+02 -0.30237604635E+02  0.33845924310E+02  0.57431416279E+02  0.00000000000E+00 0.  1.
</event>
<event>
 7    1  0.2384639E-009  0.7308804E+02  0.7561462E-02  0.1349896E+00
          2   -1    0    0  501    0  0.00000000000E+00  0.00000000000E+00  0.87913059754E+02  0.87913059754E+02  0.00000000000E+00 0. -1.
         -2   -1    0    0    0  501 -0.00000000000E+00 -0.00000000000E+00 -0.13892950117E+03  0.13892950117E+03  0.00000000000E+00 0.  1.
         25    2    1    2    0    0 -0.16213573829E+02 -0.11051342218E+02 -0.46738812695E+02  0.13497216239E+03  0.12509178976E+03 0.  0.
          5    1    3    3  502    0  0.20743271677E+02  0.17805618505E+02 -0.75089213317E+02  0.80019908316E+02  0.41800000000E+01 0.  1.
         -5    1    3    3    0  502 -0.36956845506E+02 -0.28856960723E+02  0.28350400623E+02  0.54952254070E+02  0.41800000000E+01 0.  1.
        -11    1    1    2    0    0 -0.10054126999E+02  0.34684489778E+02 -0.30980917589E+02  0.47580632147E+02  0.00000000000E+00 0. -1.
         11    1    1    2    0    0  0.26267700828E+02 -0.23633147560E+02  0.26703288869E+02  0.44289766389E+02  0.00000000000E+00 0.  1.
</event>
<event>
 7    1  0.2384639E-009  0.1566525E+03  0.7561462E-02  0.1192529E+00
          2   -1    0    0  501    0  0.00000000000E+00  0.00000000000E+00  0.15708960115E+03  0.15708960115E+03  0.00000000000E+00 0. -1.
         -2   -1    0    0    0  501 -0.00000000000E+00 -0.00000000000E+00 -0.22731984624E+03  0.22731984624E+03  0.00000000000E+00 0.  1.
         25    2    1    2    0    0 -0.14735952974E+03  0.12361815478E+02  0.97714693783E+01  0.19393431856E+03  0.12508953919E+03 0.  0.
          5    1    3    3  502    0 -0.32854639121E+02  0.27366572943E+02  0.55041506625E+02  0.69824039399E+02  0.41800000000E+01 0.  1.
         -5    1    3    3    0  502 -0.11450489061E+03 -0.15004757465E+02 -0.45270037247E+02  0.12411027916E+03  0.41800000000E+01 0.  1.
        -11    1    1    2    0    0  0.10947818675E+03 -0.29233145951E+02 -0.16322067183E+02  0.11448344890E+03  0.00000000000E+00 0. -1.
         11    1    1    2    0    0  0.37881342988E+02  0.16871330473E+02 -0.63679647292E+02  0.75991679925E+02  0.00000000000E+00 0.  1.
</event>
<event>
 7    1  0.2384639E-009  0.2051523E+03  0.7561462E-02  0.1145463E+00
          2   -1    0    0  501    0  0.00000000000E+00  0.00000000000E+00  0.21823406065E+04  0.21823406065E+04  0.00000000000E+00 0. -1.
         -2   -1    0    0    0  501 -0.00000000000E+00 -0.00000000000E+00 -0.22481395475E+02  0.22481395475E+02  0.00000000000E+00 0.  1.
         25    2    1    2    0    0  0.12881918736E+03  0.11880386640E+03  0.15021281776E+04  0.15174812493E+04  0.12510610773E+03 0.  0.
          5    1    3    3  502    0 -0.23785472778E+02  0.22450445871E+02  0.31230210636E+03  0.31403797425E+03  0.41800000000E+01 0.  1.
         -5    1    3    3    0  502  0.15260466014E+03  0.96353420527E+02  0.11898260713E+04  0.12034432750E+04  0.41800000000E+01 0.  1.
        -11    1    1    2    0    0 -0.64800669836E+01 -0.61271810469E+02  0.15632694103E+03  0.16803076658E+03  0.00000000000E+00 0.  1.
         11    1    1    2    0    0 -0.12233912038E+03 -0.57532055930E+02  0.50140409240E+03  0.51930998614E+03  0.00000000000E+00 0. -1.
</event>
<event>
 7    1  0.2384639E-009  0.1051762E+03  0.7561462E-02  0.1269773E+00
         -2   -1    0    0    0  501 -0.00000000000E+00  0.00000000000E+00  0.21776842401E+02  0.21776842401E+02  0.00000000000E+00 0.  1.
          2   -1    0    0  501    0  0.00000000000E+00 -0.00000000000E+00 -0.98516187753E+03  0.98516187753E+03  0.00000000000E+00 0. -1.
         25    2    1    2    0    0 -0.75243990757E+02  0.14894463591E+02 -0.72414390865E+03  0.73886053632E+03  0.12508792309E+03 0.  0.
          5    1    3    3  502    0 -0.37641005950E+02 -0.29012864670E+02 -0.88159169204E+02  0.10024022725E+03  0.41800000000E+01 0.  1.
         -5    1    3    3    0  502 -0.37602984807E+02  0.43907328261E+02 -0.63598473945E+03  0.63862030906E+03  0.41800000000E+01 0.  1.
        -11    1    1    2    0    0  0.18055617059E+02 -0.38726876794E+02 -0.36875612909E+02  0.56441005670E+02  0.00000000000E+00 0.  1.
         11    1    1    2    0    0  0.57188373698E+02  0.23832413203E+02 -0.20236551357E+03  0.21163717794E+03  0.00000000000E+00 0. -1.
</event>
<event>
 7    1  0.2384639E-009  0.1297375E+03  0.7561462E-02  0.1227846E+00
         -4   -1    0    0    0  501 -0.00000000000E+00  0.00000000000E+00  0.39007994574E+02  0.39007994574E+02  0.00000000000E+00 0. -1.
          4   -1    0    0  501    0  0.00000000000E+00 -0.00000000000E+00 -0.70940103605E+03  0.70940103605E+03  0.00000000000E+00 0.  1.
         25    2    1    2    0    0  0.98194018040E+02  0.63072947376E+02 -0.46522889998E+03  0.49569086875E+03  0.12510494040E+03 0.  0.
          5    1    3    3  502    0  0.19882632963E+02  0.60556949735E+02 -0.79096170372E+02  0.10166680787E+03  0.41800000000E+01 0. -1.
         -5    1    3    3    0  502  0.78311385077E+02  0.25159976412E+01 -0.38613272961E+03  0.39402406088E+03  0.41800000000E+01 0. -1.
        -11    1    1    2    0    0 -0.31882048264E+02 -0.15006612840E+02 -0.14973195902E+03  0.15382237478E+03  0.00000000000E+00 0.  1.
         11    1    1    2    0    0 -0.66311969776E+02 -0.48066334536E+02 -0.55432182471E+02  0.98895787093E+02  0.00000000000E+00 0. -1.
</event>
<event>
 7    1  0.2384639E-009  0.1256652E+03  0.7561462E-02  0.1234033E+00
          2   -1    0    0  501    0  0.00000000000E+00  0.00000000000E+00  0.24940863590E+03  0.24940863590E+03  0.00000000000E+00 0. -1.
         -2   -1    0    0    0  501 -0.00000000000E+00 -0.00000000000E+00 -0.79271505050E+02  0.79271505050E+02  0.00000000000E+00 0.  1.
         25    2    1    2    0    0 -0.52722508032E+02  0.71115021573E+02  0.10367620895E+03  0.18502286774E+03  0.12509075161E+03 0.  0.
          5    1    3    3  502    0 -0.57997957394E+02 -0.12396644716E+02  0.11677413707E+02  0.60591041029E+02  0.41800000000E+01 0.  1.
         -5    1    3    3    0  502  0.52754493622E+01  0.83511666289E+02  0.91998795242E+02  0.12443182671E+03  0.41800000000E+01 0.  1.
        -11    1    1    2    0    0  0.44246444597E+02 -0.86859993817E+01 -0.83439584279E+01  0.45856472684E+02  0.00000000000E+00 0.  1.
         11    1    1    2    0    0  0.84760634348E+01 -0.62429022191E+02  0.74804880332E+02  0.97800800532E+02  0.00000000000E+00 0. -1.
</event>
<event>
 7    1  0.2384639E-009  0.1301526E+03  0.7561462E-02  0.1227229E+00
         -1   -1    0    0    0  501 -0.00000000000E+00  0.00000000000E+00  0.88837084012E+03  0.88837084012E+03  0.00000000000E+00 0.  1.
          1   -1    0    0  501    0  0.00000000000E+00 -0.00000000000E+00 -0.25017424512E+02  0.25017424512E+02  0.00000000000E+00 0. -1.
         25    2    1    2    0    0  0.75390855889E+02  0.25527145654E+02  0.66016637890E+03  0.67661049399E+03  0.12508675560E+03 0.  0.
          5    1    3    3  502    0  0.26505690466E+02 -0.50634378634E+02  0.27915824949E+03  0.28497928448E+03  0.41800000000E+01 0.  1.
         -5    1    3    3    0  502  0.48885165423E+02  0.76161524288E+02  0.38100812942E+03  0.39163120951E+03  0.41800000000E+01 0.  1.
        -11    1    1    2    0    0  0.69758930155E+01  0.17955807853E+02  0.80322651093E+02  0.82600256643E+02  0.00000000000E+00 0.  1.
         11    1    1    2    0    0 -0.82366748904E+02 -0.43482953507E+02  0.12286438561E+03  0.15417751399E+03  0.00000000000E+00 0. -1.
</event>
<event>
 7    1  0.2384639E-009  0.9011401E+02  0.7561462E-02  0.1302576E+00
          1   -1    0    0  501    0  0.00000000000E+00  0.00000000000E+00  0.24161244342E+02  0.24161244342E+02  0.00000000000E+00 0. -1.
         -1   -1    0    0    0  501 -0.00000000000E+00 -0.00000000000E+00 -0.52786319680E+03  0.52786319680E+03  0.00000000000E+00 0.  1.
         25    2    1    2    0    0 -0.45984287818E+02 -0.55065779512E+01 -0.24619084151E+03  0.27999682726E+03  0.12507364112E+03 0.  0.
          5    1    3    3  502    0 -0.32621886273E+02  0.36997987966E+02 -0.27205872828E+02  0.56486020340E+02  0.41800000000E+01 0. -1.
         -5    1    3    3    0  502 -0.13362401545E+02 -0.42504565918E+02 -0.21898496868E+03  0.22351080692E+03  0.41800000000E+01 0. -1.
        -11    1    1    2    0    0  0.21566459173E+02  0.38975753743E+02 -0.10659155740E+03  0.11552480967E+03  0.00000000000E+00 0. -1.
         11    1    1    2    0    0  0.24417828645E+02 -0.33469175792E+02 -0.15091955354E+03  0.15650280421E+03  0.00000000000E+00 0.  1.
</event>
<event>
 7    1  0.2384639E-009  0.9705782E+02  0.7561462E-02  0.1286607E+00
          1   -1    0    0  501    0  0.00000000000E+00  0.00000000000E+00  0.11082001712E+03  0.11082001712E+03  0.00000000000E+00 0. -1.
         -1   -1    0    0    0  501 -0.00000000000E+00 -0.00000000000E+00 -0.13114688871E+03  0.13114688871E+03  0.00000000000E+00 0.  1.
         25    2    1    2    0    0 -0.24301558604E+02 -0.50350288344E+02 -0.10278985521E+02  0.13739788215E+03  0.12508718235E+03 0.  0.
          5    1    3    3  502    0  0.22752515663E+02  0.32916283734E+02  0.46775092937E+01  0.40503212181E+02  0.41800000000E+01 0.  1.
         -5    1    3    3    0  502 -0.47054074266E+02 -0.83266572078E+02 -0.14956494814E+02  0.96894669966E+02  0.41800000000E+01 0.  1.
        -11    1    1    2    0    0  0.16967682239E+02  0.17059261422E+02  0.38408728600E+02  0.45322743446E+02  0.00000000000E+00 0. -1.
         11    1    1    2    0    0  0.73338763649E+01  0.33291026923E+02 -0.48456614675E+02  0.59246280237E+02  0.00000000000E+00 0.  1.
</event>
<event>
 7    1  0.2384639E-009  0.8237789E+02  0.7561462E-02  0.1322436E+00
          2   -1    0    0  501    0  0.00000000000E+00  0.00000000000E+00  0.41903723083E+02  0.41903723083E+02  0.00000000000E+00 0. -1.
         -2   -1    0    0    0  501 -0.00000000000E+00 -0.00000000000E+00 -0.31651198836E+03  0.31651198836E+03  0.00000000000E+00 0.  1.
         25    2    1    2    0    0  0.15752945388E+02 -0.85133293449E+01 -0.10712046200E+03  0.16565835598E+03  0.12508903014E+03 0.  0.
          5    1    3    3  502    0  0.36541132311E+02 -0.27632841126E+02  0.83112888412E+01  0.46748028637E+02  0.41800000000E+01 0.  1.
         -5    1    3    3    0  502 -0.20788186923E+02  0.19119511781E+02 -0.11543175084E+03  0.11891032734E+03  0.41800000000E+01 0.  1.
        -11    1    1    2    0    0  0.47985938732E+01  0.46641111846E+02 -0.11809872867E+03  0.12706584722E+03  0.00000000000E+00 0.  1.
         11    1    1    2    0    0 -0.20551539261E+02 -0.38127782501E+02 -0.49389074615E+02  0.65691508247E+02  0.00000000000E+00 0. -1.
</event>
<event>
 7    1  0.2384639E-009  0.8023763E+02  0.7561462E-02  0.1328378E+00
          2   -1    0    0  501    0  0.00000000000E+00  0.00000000000E+00  0.82128622167E+02  0.82128622167E+02  0.00000000000E+00 0. -1.
         -2   -1    0    0    0  501 -0.00000000000E+00 -0.00000000000E+00 -0.16395549310E+03  0.16395549310E+03  0.00000000000E+00 0.  1.
         25    2    1    2    0    0  0.31286745516E+02  0.10991107575E+02 -0.74793737358E+02  0.14946906093E+03  0.12508889693E+03 0.  0.
          5    1    3    3  502    0 -0.15075539629E+02  0.58417682181E+02 -0.21159857508E+02  0.64071128102E+02  0.41800000000E+01 0.  1.
         -5    1    3    3    0  502  0.46362285145E+02 -0.47426574607E+02 -0.53633879851E+02  0.85397932824E+02  0.41800000000E+01 0.  1.
        -11    1    1    2    0    0 -0.12922583317E+02 -0.72001961052E+01 -0.48713932858E+02  0.50910541522E+02  0.00000000000E+00 0.  1.
         11    1    1    2    0    0 -0.18364162199E+02 -0.37909114697E+01  0.41680799284E+02  0.45704512819E+02  0.00000000000E+00 0. -1.
</event>
<event>
 7    1  0.2384639E-009  0.1919258E+03  0.7561462E-02  0.1156736E+00
         -2   -1    0    0    0  501 -0.00000000000E+00  0.00000000000E+00  0.84303353678E+02  0.84303353678E+02  0.00000000000E+00 0.  1.
          2   -1    0    0  501    0  0.00000000000E+00 -0.00000000000E+00 -0.57263315668E+03  0.57263315668E+03  0.00000000000E+00 0. -1.
         25    2    1    2    0    0  0.25297381700E+02 -0.17384937136E+03 -0.14247605484E+03  0.25847824035E+03  0.12509201848E+03 0.  0.
          5    1    3    3  502    0  0.45276643666E+02 -0.27079152560E+02 -0.14592270468E-01  0.52921900740E+02  0.41800000000E+01 0.  1.
         -5    1    3    3    0  502 -0.19979261966E+02 -0.14677021880E+03 -0.14246146257E+03  0.20555633961E+03  0.41800000000E+01 0.  1.
        -11    1    1    2    0    0  0.14668612423E+02  0.68928535094E+02 -0.64512349650E+02  0.95541375320E+02  0.00000000000E+00 0.  1.
         11    1    1    2    0    0 -0.39965994123E+02  0.10492083627E+03 -0.28134139851E+03  0.30291689469E+03  0.00000000000E+00 0. -1.
</event>
<event>
 7    1  0.2384639E-009  0.1177205E+03  0.7561462E-02  0.1246906E+00
          2   -1    0    0  501    0  0.00000000000E+00  0.00000000000E+00  0.90983211346E+03  0.90983211346E+03  0.00000000000E+00 0. -1.
         -2   -1    0    0    0  501 -0.00000000000E+00 -0.00000000000E+00 -0.18495963569E+02  0.18495963569E+02  0.00000000000E+00 0.  1.
         25    2    1    2    0    0  0.46981782112E+02  0.12614714059E+02  0.68388597615E+03  0.69693188925E+03  0.12509041136E+03 0.  0.
          5    1    3    3  502    0  0.61235813869E+02  0.58975883656E+02  0.46079163118E+03  0.46858764337E+03  0.41800000000E+01 0. -1.
         -5    1    3    3    0  502 -0.14254031758E+02 -0.46361169597E+02  0.22309434498E+03  0.22834424589E+03  0.41800000000E+01 0. -1.
        -11    1    1    2    0    0 -0.48833079350E+02 -0.46660673328E+02  0.12303076865E+03  0.14035119561E+03  0.00000000000E+00 0.  1.
         11    1    1    2    0    0  0.18512972386E+01  0.34045959269E+02  0.84419405085E+02  0.91044992168E+02  0.00000000000E+00 0. -1.
</event>
<event>
 7    1  0.2384639E-009  0.7838550E+02  0.7561462E-02  0.1333697E+00
         -2   -1    0    0    0  501 -0.00000000000E+00  0.00000000000E+00  0.13026011759E+03  0.13026011759E+03  0.00000000000E+00 0.  1.
          2   -1    0    0  501    0  0.00000000000E+00 -0.00000000000E+00 -0.23388532920E+03  0.23388532920E+03  0.00000000000E+00 0. -1.
         25    2    1    2    0    0 -0.12423289975E+02 -0.20706174680E+02 -0.19525447337E+03  0.23314124484E+03  0.12508975526E+03 0.  0.
          5    1    3    3  502    0 -0.20556539206E+02  0.26080346396E+02 -0.13869647003E+01  0.33498534943E+02  0.41800000000E+01 0.  1.
         -5    1    3    3    0  502  0.81332492315E+01 -0.46786521076E+02 -0.19386750867E+03  0.19964270990E+03  0.41800000000E+01 0.  1.
        -11    1    1    2    0    0 -0.12972821262E+01  0.46444361328E+02  0.14701711995E+02  0.48732966005E+02  0.00000000000E+00 0. -1.
         11    1    1    2    0    0  0.13720572101E+02 -0.25738186648E+02  0.76927549767E+02  0.82271235945E+02  0.00000000000E+00 0.  1.
</event>
<event>
 7    1  0.2384639E-009  0.7503876E+02  0.7561462E-02  0.1343751E+00
          1   -1    0    0  501    0  0.00000000000E+00  0.00000000000E+00  0.38043026065E+03  0.38043026065E+03  0.00000000000E+00 0. -1.
         -1   -1    0    0    0  501 -0.00000000000E+00 -0.00000000000E+00 -0.37929660059E+02  0.37929660059E+02  0.00000000000E+00 0.  1.
         25    2    1    2    0    0 -0.14224668261E+02  0.50389655726E+02  0.20093442126E+03  0.24241315912E+03  0.12509212395E+03 0.  0.
          5    1    3    3  502    0  0.21514129929E+01 -0.15182313725E+02  0.16498173543E+03  0.16574551775E+03  0.41800000000E+01 0. -1.
         -5    1    3    3    0  502 -0.16376081253E+02  0.65571969451E+02  0.35952685830E+02  0.76667641370E+02  0.41800000000E+01 0. -1.
        -11    1    1    2    0    0  0.23479943785E+02 -0.10859216322E+02 -0.27624372322E+01  0.26016560086E+02  0.00000000000E+00 0.  1.
         11    1    1    2    0    0 -0.92552755241E+01 -0.39530439403E+02  0.14432861656E+03  0.14993020150E+03  0.00000000000E+00 0. -1.
</event>
<event>
 7    1  0.2844666E-009  0.6638661E+02  0.7561462E-02  0.1372830E+00
         -4   -1    0    0    0  501 -0.00000000000E+00  0.00000000000E+00  0.20792146224E+02  0.20792146224E+02  0.00000000000E+00 0.  1.
          4   -1    0    0  501    0  0.00000000000E+00 -0.00000000000E+00 -0.61291599689E+03  0.61291599689E+03  0.00000000000E+00 0. -1.
         25    2    1    2    0    0 -0.27915784683E+02  0.97647074411E+01 -0.38025804986E+03  0.40139629795E+03  0.12509261760E+03 0.  0.
          5    1    3    3  502    0 -0.47681989433E+02  0.94222895243E+01 -0.47711535908E+02  0.68236461770E+02  0.41800000000E+01 0. -1.
         -5    1    3    3    0  502  0.19766204750E+02  0.34241791678E+00 -0.33254651395E+03  0.33315983618E+03  0.41800000000E+01 0. -1.
        -11    1    1    2    0    0  0.12370763952E+02  0.23783730423E+02 -0.12559457635E+02  0.29604756538E+02  0.00000000000E+00 0.  1.
         11    1    1    2    0    0  0.15545020731E+02 -0.33548437864E+02 -0.19930634317E+03  0.20270708863E+03  0.00000000000E+00 0. -1.
</event>
<event>
 7    1  0.2384639E-009  0.9440575E+02  0.7561462E-02  0.1292520E+00
         -4   -1    0    0    0  501 -0.00000000000E+00  0.00000000000E+00  0.24296308358E+02  0.24296308358E+02  0.00000000000E+00 0.  1.
          4   -1    0    0  501    0  0.00000000000E+00 -0.00000000000E+00 -0.58660725889E+03  0.58660725889E+03  0.00000000000E+00 0. -1.
         25    2    1    2    0    0  0.14769687405E+01  0.45474085491E+02 -0.37686578236E+03  0.39967990579E+03  0.12508451258E+03 0.  0.
          5    1    3    3  502    0  0.33771615325E+01  0.67945970825E+02 -0.95209804353E+02  0.11709158559E+03  0.41800000000E+01 0. -1.
         -5    1    3    3    0  502 -0.19001927920E+01 -0.22471885335E+02 -0.28165597801E+03  0.28258832019E+03  0.41800000000E+01 0. -1.
        -11    1    1    2    0    0  0.42211634648E+02 -0.28053045792E+02 -0.68801706163E+02  0.85454492268E+02  0.00000000000E+00 0.  1.
         11    1    1    2    0    0 -0.43688603389E+02 -0.17421039699E+02 -0.11664346201E+03  0.12576916919E+03  0.00000000000E+00 0. -1.
</event>
<event>
 7    1  0.2575738E-009  0.1171379E+03  0.7561462E-02  0.1247895E+00
         -1   -1    0    0    0  501 -0.00000000000E+00  0.00000000000E+00  0.24008266804E+02  0.24008266804E+02  0.00000000000E+00 0.  1.
          1   -1    0    0  501    0  0.00000000000E+00 -0.00000000000E+00 -0.10193682552E+04  0.10193682552E+04  0.00000000000E+00 0. -1.
         25    2    1    2    0    0 -0.11174602694E+03  0.76501264579E+00 -0.50161571129E+03  0.52891396529E+03  0.12507558149E+03 0.  0.
          5    1    3    3  502    0 -0.98067306689E+02  0.33196116005E+01 -0.50461036080E+03  0.51407908447E+03  0.41800000000E+01 0.  1.
         -5    1    3    3    0  502 -0.13678720247E+02 -0.25545989547E+01  0.29946495061E+01  0.14834880824E+02  0.41800000000E+01 0.  1.
        -11    1    1    2    0    0  0.24110161139E+02  0.20167317687E+02 -0.35378169456E+02  0.47324786813E+02  0.00000000000E+00 0.  1.
         11    1    1    2    0    0  0.87635865796E+02 -0.20932330332E+02 -0.45836610766E+03  0.46713776991E+03  0.00000000000E+00 0. -1.
</event>
<event>
 7    1  0.2407344E-009  0.1091868E+03  0.7561462E-02  0.1262083E+00
          1   -1    0    0  501    0  0.00000000000E+00  0.00000000000E+00  0.20872396256E+03  0.20872396256E+03  0.00000000000E+00 0. -1.
         -1   -1    0    0    0  501 -0.00000000000E+00 -0.00000000000E+00 -0.70424834860E+02  0.70424834860E+02  0.00000000000E+00 0.  1.
         25    2    1    2    0    0 -0.18346517107E+02  0.12921055850E+02  0.20265128970E+02  0.12869614164E+03  0.12509385695E+03 0.  0.
          5    1    3    3  502    0 -0.45163849051E+02 -0.43713602621E+02  0.98405724756E+00  0.63000738756E+02  0.41800000000E+01 0. -1.
         -5    1    3    3    0  502  0.26817331944E+02  0.56634658471E+02  0.19281071722E+02  0.65695402879E+02  0.41800000000E+01 0. -1.
        -11    1    1    2    0    0  0.12423659869E+02 -0.51790706528E+02  0.58565709125E+02  0.79161650391E+02  0.00000000000E+00 0. -1.
         11    1    1    2    0    0  0.59228572380E+01  0.38869650678E+02  0.59468289607E+02  0.71291005396E+02  0.00000000000E+00 0.  1.
</event>
<event>
 7    1  0.2384639E-009  0.1993483E+03  0.7561462E-02  0.1150290E+00
         -2   -1    0    0    0  501 -0.00000000000E+00  0.00000000000E+00  0.42331959798E+02  0.42331959798E+02  0.00000000000E+00 0.  1.
          2   -1    0    0  501    0  0.00000000000E+00 -0.00000000000E+00 -0.12525055941E+04  0.12525055941E+04  0.00000000000E+00 0. -1.
         25    2    1    2    0    0  0.14964339435E+03 -0.74336783341E+02 -0.30294568537E+03  0.36788961890E+03  0.12509028972E+03 0.  0.
          5    1    3    3  502    0  0.64524328947E+02  0.32085935668E+02 -0.11269129086E+03  0.13382711134E+03  0.41800000000E+01 0.  1.
         -5    1    3    3    0  502  0.85119065408E+02 -0.10642271901E+03 -0.19025439451E+03  0.23406250756E+03  0.41800000000E+01 0.  1.
        -11    1    1    2    0    0 -0.11236971689E+03  0.95361384400E+02 -0.70700324207E+03  0.72220103241E+03  0.00000000000E+00 0.  1.
         11    1    1    2    0    0 -0.37273677466E+02 -0.21024601059E+02 -0.20022470681E+03  0.20474690254E+03  0.00000000000E+00 0. -1.
</event>
<event>
 7    1  0.2384639E-009  0.1415623E+03  0.7561462E-02  0.1211242E+00
         -2   -1    0    0    0  501 -0.00000000000E+00  0.00000000000E+00  0.64346892877E+02  0.64346892877E+02  0.00000000000E+00 0.  1.
          2   -1    0    0  501    0  0.00000000000E+00 -0.00000000000E+00 -0.31764165967E+03  0.31764165967E+03  0.00000000000E+00 0. -1.
         25    2    1    2    0    0  0.89240243760E+02  0.24268537561E+02 -0.13595077722E+03  0.20659945358E+03  0.12509171584E+03 0.  0.
          5    1    3    3  502    0  0.85512289814E+01  0.63898881819E+02 -0.45594063695E+02  0.79072635337E+02  0.41800000000E+01 0. -1.
         -5    1    3    3    0  502  0.80689014778E+02 -0.39630344258E+02 -0.90356713525E+02  0.12752681824E+03  0.41800000000E+01 0. -1.
        -11    1    1    2    0    0 -0.89351265888E+02 -0.50272792928E+02 -0.80794001821E+02  0.13053226863E+03  0.00000000000E+00 0.  1.
         11    1    1    2    0    0  0.11102212801E+00  0.26004255366E+02 -0.36549987756E+02  0.44856830339E+02  0.00000000000E+00 0. -1.
</event>
<event>
 7    1  0.2384639E-009  0.8052909E+02  0.7561462E-02  0.1327557E+00
          2   -1    0    0  501    0  0.00000000000E+00  0.00000000000E+00  0.10757307681E+03  0.10757307681E+03  0.00000000000E+00 0. -1.
         -2   -1    0    0    0  501 -0.00000000000E+00 -0.00000000000E+00 -0.18928815856E+03  0.18928815856E+03  0.00000000000E+00 0.  1.
         25    2    1    2    0    0  0.11338501327E+02 -0.16845610058E+02 -0.13779976667E+03  0.18720692524E+03  0.12508125748E+03 0.  0.
          5    1    3    3  502    0 -0.45556364514E+02  0.37977422313E+01 -0.11854318488E+02  0.47410995145E+02  0.41800000000E+01 0.  1.
         -5    1    3    3    0  502  0.56894865841E+02 -0.20643352289E+02 -0.12594544818E+03  0.13979593009E+03  0.41800000000E+01 0.  1.
        -11    1    1    2    0    0  0.18059855023E+02 -0.39347976310E+01 -0.18924275624E+02  0.26453151112E+02  0.00000000000E+00 0.  1.
         11    1    1    2    0    0 -0.29398356350E+02  0.20780407689E+02  0.75008960545E+02  0.83201159017E+02  0.00000000000E+00 0. -1.
</event>
<event>
 7    1  0.2384639E-009  0.1163616E+03  0.7561462E-02  0.1249223E+00
         -1   -1    0    0    0  501 -0.00000000000E+00  0.00000000000E+00  0.26737194532E+02  0.26737194532E+02  0.00000000000E+00 0.  1.
          1   -1    0    0  501    0  0.00000000000E+00 -0.00000000000E+00 -0.52663286071E+03  0.52663286071E+03  0.00000000000E+00 0. -1.
         25    2    1    2    0    0  0.32870473489E+02 -0.33334699347E+02 -0.27579910728E+03  0.30643962438E+03  0.12509366734E+03 0.  0.
          5    1    3    3  502    0 -0.28966983100E+01 -0.76879507305E+02 -0.15695918003E+03  0.17484995311E+03  0.41800000000E+01 0.  1.
         -5    1    3    3    0  502  0.35767171799E+02  0.43544807958E+02 -0.11883992724E+03  0.13158967127E+03  0.41800000000E+01 0.  1.
        -11    1    1    2    0    0  0.29962098311E+02  0.16112405221E+02 -0.11434431912E+03  0.11929777974E+03  0.00000000000E+00 0. -1.
         11    1    1    2    0    0 -0.62832571800E+02  0.17222294126E+02 -0.10975223978E+03  0.12763265112E+03  0.00000000000E+00 0.  1.
</event>
<event>
 7    1  0.2384639E-009  0.8531698E+02  0.7561462E-02  0.1314606E+00
          4   -1    0    0  501    0  0.00000000000E+00  0.00000000000E+00  0.44973430173E+02  0.44973430173E+02  0.00000000000E+00 0. -1.
         -4   -1    0    0    0  501 -0.00000000000E+00 -0.00000000000E+00 -0.33836793305E+03  0.33836793305E+03  0.00000000000E+00 0.  1.
         25    2    1    2    0    0  0.23315862840E+02 -0.33370078382E+02 -0.98602152480E+02  0.16439953097E+03  0.12509048612E+03 0.  0.
          5    1    3    3  502    0  0.45949990684E+01  0.33203951159E+02  0.10310181702E+02  0.35318389483E+02  0.41800000000E+01 0.  1.
         -5    1    3    3    0  502  0.18720863771E+02 -0.66574029540E+02 -0.10891233418E+03  0.12908114148E+03  0.41800000000E+01 0.  1.
        -11    1    1    2    0    0 -0.20797542807E+02 -0.10728156615E+02 -0.48078745152E+01  0.23890307418E+02  0.00000000000E+00 0. -1.
         11    1    1    2    0    0 -0.25183200324E+01  0.44098234997E+02 -0.18998447588E+03  0.19505152483E+03  0.00000000000E+00 0.  1.
</event>
<event>
 7    1  0.2384639E-009  0.8704076E+02  0.7561462E-02  0.1310180E+00
          1   -1    0    0  501    0  0.00000000000E+00  0.00000000000E+00  0.22371513980E+02  0.22371513980E+02  0.00000000000E+00 0. -1.
         -1   -1    0    0    0  501 -0.00000000000E+00 -0.00000000000E+00 -0.54934584392E+03  0.54934584392E+03  0.00000000000E+00 0.  1.
         25    2    1    2    0    0 -0.45892718456E+02  0.18776649939E+02 -0.35070168733E+03  0.37562999448E+03  0.12509002783E+03 0.  0.
          5    1    3    3  502    0 -0.66683459928E+02  0.19618093431E+02 -0.88691949818E+02  0.11276208485E+03  0.41800000000E+01 0. -1.
         -5    1    3    3    0  502  0.20790741472E+02 -0.84144349185E+00 -0.26200973751E+03  0.26286790962E+03  0.41800000000E+01 0. -1.
        -11    1    1    2    0    0  0.21686333695E+01 -0.36119933319E+02 -0.10142245739E+03  0.10768410940E+03  0.00000000000E+00 0.  1.
         11    1    1    2    0    0  0.43724085087E+02  0.17343283380E+02 -0.74850185216E+02  0.88403254024E+02  0.00000000000E+00 0. -1.
</event>
<event>
 7    1  0.2384639E-009  0.2786042E+03  0.7561462E-02  0.1096454E+00
         -2   -1    0    0    0  501 -0.00000000000E+00  0.00000000000E+00  0.58558389723E+02  0.58558389723E+02  0.00000000000E+00 0.  1.
          2   -1    0    0  501    0  0.00000000000E+00 -0.00000000000E+00 -0.18805395352E+04  0.18805395352E+04  0.00000000000E+00 0. -1.
         25    2    1    2    0    0  0.14791350389E+03 -0.22784879876E+03 -0.13968446968E+04  0.14285012596E+04  0.12508901560E+03 0.  0.
          5    1    3    3  502    0  0.10793857218E+03 -0.21930126212E+03 -0.13075410354E+04  0.13301972826E+04  0.41800000000E+01 0. -1.
         -5    1    3    3    0  502  0.39974931710E+02 -0.85475366329E+01 -0.89303661387E+02  0.98303976953E+02  0.41800000000E+01 0. -1.
        -11    1    1    2    0    0 -0.69730751388E+02  0.10577343207E+03 -0.12859852383E+03  0.18052140304E+03  0.00000000000E+00 0.  1.
         11    1    1    2    0    0 -0.78182752505E+02  0.12207536668E+03 -0.29653792487E+03  0.33007526237E+03  0.00000000000E+00 0. -1.
</event>
<event>
 7    1  0.2384639E-009  0.1178683E+03  0.7561462E-02  0.1246656E+00
         -2   -1    0    0    0  501 -0.00000000000E+00  0.00000000000E+00  0.12826496616E+03  0.12826496616E+03  0.00000000000E+00 0.  1.
          2   -1    0    0  501    0  0.00000000000E+00 -0.00000000000E+00 -0.11800730539E+03  0.11800730539E+03  0.00000000000E+00 0. -1.
         25    2    1    2    0    0  0.92025063956E+01  0.50768083380E+02  0.29456728185E+02  0.13848618845E+03  0.12509452882E+03 0.  0.
          5    1    3    3  502    0 -0.54470939801E+01  0.90484863043E+02  0.31071930551E+02  0.95917248402E+02  0.41800000000E+01 0. -1.
         -5    1    3    3    0  502  0.14649600376E+02 -0.39716779663E+02 -0.16152023660E+01  0.42568940046E+02  0.41800000000E+01 0. -1.
        -11    1    1    2    0    0 -0.39639936892E+02  0.39532099944E+01  0.60060511319E+01  0.40286785877E+02  0.00000000000E+00 0.  1.
         11    1    1    2    0    0  0.30437430497E+02 -0.54721293375E+02 -0.25205118546E+02  0.67499297217E+02  0.00000000000E+00 0. -1.
</event>
<event>
 7    1  0.2384639E-009  0.1104556E+03  0.7561462E-02  0.1259729E+00
         -1   -1    0    0    0  501 -0.00000000000E+00  0.00000000000E+00  0.83471522708E+01  0.83471522708E+01  0.00000000000E+00 0.  1.
          1   -1    0    0  501    0  0.00000000000E+00 -0.00000000000E+00 -0.18263834958E+04  0.18263834958E+04  0.00000000000E+00 0. -1.
         25    2    1    2    0    0  0.33123059958E+02  0.74551565854E+01 -0.14075501853E+04  0.14135056337E+04  0.12509170918E+03 0.  0.
          5    1    3    3  502    0 -0.34104960088E+02  0.39041163187E+02 -0.73927521866E+03  0.74110234249E+03  0.41800000000E+01 0. -1.
         -5    1    3    3    0  502  0.67228020046E+02 -0.31586006601E+02 -0.66827496667E+03  0.67240329117E+03  0.41800000000E+01 0. -1.
        -11    1    1    2    0    0  0.26861457163E+02 -0.19667790129E+02 -0.14427272809E+03  0.14806410747E+03  0.00000000000E+00 0.  1.
         11    1    1    2    0    0 -0.59984517121E+02  0.12212633543E+02 -0.26621343013E+03  0.27316090697E+03  0.00000000000E+00 0. -1.
</event>
<event>
 7    1  0.2384639E-009  0.1281548E+03  0.7561462E-02  0.1230220E+00
          1   -1    0    0  501    0  0.00000000000E+00  0.00000000000E+00  0.10651883144E+03  0.10651883144E+03  0.00000000000E+00 0. -1.
         -1   -1    0    0    0  501 -0.00000000000E+00 -0.00000000000E+00 -0.21835612633E+03  0.21835612633E+03  0.00000000000E+00 0.  1.
         25    2    1    2    0    0 -0.31085390273E+02  0.82683129904E+02 -0.12220136804E+03  0.19591692440E+03  0.12508982956E+03 0.  0.
          5    1    3    3  502    0  0.30714951488E+02  0.63383334497E+02 -0.10878904920E+03  0.12966643730E+03  0.41800000000E+01 0.  1.
         -5    1    3    3    0  502 -0.61800341761E+02  0.19299795407E+02 -0.13412318838E+02  0.66250487101E+02  0.41800000000E+01 0.  1.
        -11    1    1    2    0    0 -0.26981191275E+01  0.16176987903E+02 -0.14134527778E+02  0.21650858180E+02  0.00000000000E+00 0.  1.
         11    1    1    2    0    0  0.33783509401E+02 -0.98860117807E+02  0.24498600926E+02  0.10730717519E+03  0.00000000000E+00 0. -1.
</event>
<event>
 7    1  0.2384639E-009  0.1060668E+03  0.7561462E-02  0.1268032E+00
         -2   -1    0    0    0  501 -0.00000000000E+00  0.00000000000E+00  0.45494652556E+02  0.45494652556E+02  0.00000000000E+00 0.  1.
          2   -1    0    0  501    0  0.00000000000E+00 -0.00000000000E+00 -0.40185718031E+03  0.40185718031E+03  0.00000000000E+00 0. -1.
         25    2    1    2    0    0 -0.30769385642E+02 -0.55471848203E+01 -0.74502444954E+02  0.14891556997E+03  0.12509079232E+03 0.  0.
          5    1    3    3  502    0 -0.48356272507E+02 -0.55888308512E+02 -0.54028507378E+02  0.91642698173E+02  0.41800000000E+01 0. -1.
         -5    1    3    3    0  502  0.17586886865E+02  0.50341123691E+02 -0.20473937577E+02  0.57272871798E+02  0.41800000000E+01 0. -1.
        -11    1    1    2    0    0 -0.26775927893E+02  0.38623344573E+01 -0.31408190487E+02  0.41452893405E+02  0.00000000000E+00 0.  1.
         11    1    1    2    0    0  0.57545313535E+02  0.16848503629E+01 -0.25045189232E+03  0.25698336949E+03  0.00000000000E+00 0. -1.
</event>
<event>
 7    1  0.2384639E-009  0.9166051E+02  0.7561462E-02  0.1298880E+00
         -1   -1    0    0    0  501 -0.00000000000E+00  0.00000000000E+00  0.59582935594E+02  0.59582935594E+02  0.00000000000E+00 0.  1.
          1   -1    0    0  501    0  0.00000000000E+00 -0.00000000000E+00 -0.31373463238E+03  0.31373463238E+03  0.00000000000E+00 0. -1.
         25    2    1    2    0    0 -0.51672509480E+02  0.29420395700E+02 -0.21611479596E+03  0.25668980596E+03  0.12509373899E+03 0.  0.
          5    1    3    3  502    0 -0.57327153711E+02  0.37642458774E+02 -0.38527144093E+02  0.78772904524E+02  0.41800000000E+01 0.  1.
         -5    1    3    3    0  502  0.56546442308E+01 -0.82220630740E+01 -0.17758765187E+03  0.17791690144E+03  0.41800000000E+01 0.  1.
        -11    1    1    2    0    0 -0.13763163342E+02  0.18233564410E+02  0.71285633109E+01  0.23931233799E+02  0.00000000000E+00 0.  1.
         11    1    1    2    0    0  0.65435672822E+02 -0.47653960110E+02 -0.45165464139E+02  0.92696528213E+02  0.00000000000E+00 0. -1.
</event>
<event>
 7    1  0.2384639E-009  0.1141749E+03  0.7561462E-02  0.1253028E+00
         -1   -1    0    0    0  501 -0.00000000000E+00  0.00000000000E+00  0.42458798797E+02  0.42458798797E+02  0.00000000000E+00 0.  1.
          1   -1    0    0  501    0  0.00000000000E+00 -0.00000000000E+00 -0.50644246236E+03  0.50644246236E+03  0.00000000000E+00 0. -1.
         25    2    1    2    0    0  0.14257284369E+01  0.98959994799E+02 -0.24866357909E+03  0.29542547299E+03  0.12509005257E+03 0.  0.
          5    1    3    3  502    0 -0.21850898326E+02  0.62075393447E+02 -0.30052479345E+02  0.72466820988E+02  0.41800000000E+01 0.  1.
         -5    1    3    3    0  502  0.23276626763E+02  0.36884601352E+02 -0.21861109975E+03  0.22295865200E+03  0.41800000000E+01 0.  1.
        -11    1    1    2    0    0  0.23930703728E+02 -0.97346723787E+01 -0.11061880040E+03  0.11359560480E+03  0.00000000000E+00 0. -1.
         11    1    1    2    0    0 -0.25356432165E+02 -0.89225322420E+02 -0.10470128407E+03  0.13988018337E+03  0.00000000000E+00 0.  1.
</event>
<event>
 7    1  0.2384639E-009  0.1753795E+03  0.7561462E-02  0.1172351E+00
          2   -1    0    0  501    0  0.00000000000E+00  0.00000000000E+00  0.62849870260E+03  0.62849870260E+03  0.00000000000E+00 0. -1.
         -2   -1    0    0    0  501 -0.00000000000E+00 -0.00000000000E+00 -0.66509451143E+02  0.66509451143E+02  0.00000000000E+00 0.  1.
         25    2    1    2    0    0 -0.99545004175E+02  0.12114631252E+03  0.42154421332E+03  0.46683231615E+03  0.12508897124E+03 0.  0.
          5    1    3    3  502    0 -0.79055472320E+02  0.14088653530E+03  0.39836567984E+03  0.42989704675E+03  0.41800000000E+01 0.  1.
         -5    1    3    3    0  502 -0.20489531855E+02 -0.19740222785E+02  0.23178533485E+02  0.36935269401E+02  0.41800000000E+01 0.  1.
        -11    1    1    2    0    0  0.67200660104E+02 -0.10390946492E+03  0.55422881411E+02  0.13559056531E+03  0.00000000000E+00 0.  1.
         11    1    1    2    0    0  0.32344344071E+02 -0.17236847600E+02  0.85022156728E+02  0.92585272281E+02  0.00000000000E+00 0. -1.
</event>
<event>
 7    1  0.2384639E-009  0.7222526E+02  0.7561462E-02  0.1352685E+00
          3   -1    0    0  501    0  0.00000000000E+00  0.00000000000E+00  0.97928721133E+02  0.97928721133E+02  0.00000000000E+00 0. -1.
         -3   -1    0    0    0  501 -0.00000000000E+00 -0.00000000000E+00 -0.15693959236E+03  0.15693959236E+03  0.00000000000E+00 0.  1.
         25    2    1    2    0    0  0.60378378983E+02  0.16240547130E+02 -0.38712675514E+02  0.14510472107E+03  0.12508958714E+03 0.  0.
          5    1    3    3  502    0 -0.59601703927E+01 -0.83095679844E+01  0.38648551167E+02  0.40196460771E+02  0.41800000000E+01 0.  1.
         -5    1    3    3    0  502  0.66338549376E+02  0.24550115114E+02 -0.77361226681E+02  0.10490826030E+03  0.41800000000E+01 0.  1.
        -11    1    1    2    0    0 -0.27923793950E+02 -0.83239014104E+01 -0.54596328418E+02  0.61885254140E+02  0.00000000000E+00 0.  1.
         11    1    1    2    0    0 -0.32454585033E+02 -0.79166457197E+01  0.34298132708E+02  0.47878338279E+02  0.00000000000E+00 0. -1.
</event>
<event>
 7    1  0.2384639E-009  0.3253670E+03  0.7561462E-02  0.1073205E+00
         -2   -1    0    0    0  501 -0.00000000000E+00  0.00000000000E+00  0.46836142166E+02  0.46836142166E+02  0.00000000000E+00 0.  1.
          2   -1    0    0  501    0  0.00000000000E+00 -0.00000000000E+00 -0.24932732796E+04  0.24932732796E+04  0.00000000000E+00 0. -1.
         25    2    1    2    0    0 -0.15807970774E+03  0.26817782611E+03 -0.91239737368E+03  0.97212384198E+03  0.12508899320E+03 0.  0.
          5    1    3    3  502    0 -0.79099768775E+02  0.46143497204E+02 -0.16907661196E+03  0.19232880405E+03  0.41800000000E+01 0.  1.
         -5    1    3    3    0  502 -0.78979938970E+02  0.22203432891E+03 -0.74332076172E+03  0.77979503793E+03  0.41800000000E+01 0.  1.
        -11    1    1    2    0    0  0.15862464567E+03 -0.20039135150E+03 -0.12628182435E+04  0.12884208894E+04  0.00000000000E+00 0.  1.
         11    1    1    2    0    0 -0.54493792964E+00 -0.67786474616E+02 -0.27122152025E+03  0.27956469045E+03  0.00000000000E+00 0. -1.
</event>
<event>
 7    1  0.2384639E-009  0.5462980E+02  0.7561462E-02  0.1421858E+00
          2   -1    0    0  501    0  0.00000000000E+00  0.00000000000E+00  0.94864971481E+03  0.94864971481E+03  0.00000000000E+00 0. -1.
         -2   -1    0    0    0  501 -0.00000000000E+00 -0.00000000000E+00 -0.13678792603E+02  0.13678792603E+02  0.00000000000E+00 0.  1.
         25    2    1    2    0    0  0.13915562277E+02 -0.33550018739E+01  0.65577609896E+03  0.66775324378E+03  0.12508878330E+03 0.  0.
          5    1    3    3  502    0  0.53153987673E+01 -0.87697793539E+01  0.65663731438E+03  0.65673068874E+03  0.41800000000E+01 0. -1.
         -5    1    3    3    0  502  0.86001635099E+01  0.54147774800E+01 -0.86121542950E+00  0.11022555038E+02  0.41800000000E+01 0. -1.
        -11    1    1    2    0    0 -0.43785688313E+02  0.24896837387E+02  0.10404876988E+03  0.11559924535E+03  0.00000000000E+00 0.  1.
         11    1    1    2    0    0  0.29870126036E+02 -0.21541835513E+02  0.17514605337E+03  0.17897601828E+03  0.00000000000E+00 0. -1.
</event>
<event>
 7    1  0.2384639E-009  0.1438520E+03  0.7561462E-02  0.1208238E+00
         -1   -1    0    0    0  501 -0.00000000000E+00  0.00000000000E+00  0.23146268001E+03  0.23146268001E+03  0.00000000000E+00 0.  1.
          1   -1    0    0  501    0  0.00000000000E+00 -0.00000000000E+00 -0.12491364659E+03  0.12491364659E+03  0.00000000000E+00 0. -1.
         25    2    1    2    0    0 -0.54040028413E+02  0.79838879670E+02 -0.35640954730E+02  0.16190083713E+03  0.12508809708E+03 0.  0.
          5    1    3    3  502    0 -0.29973644616E+02  0.11187990600E+03 -0.15743128443E+02  0.11696517102E+03  0.41800000000E+01 0.  1.
         -5    1    3    3    0  502 -0.24066383797E+02 -0.32041026333E+02 -0.19897826287E+02  0.44935666107E+02  0.41800000000E+01 0.  1.
        -11    1    1    2    0    0 -0.10207117827E+02 -0.64708177599E+02  0.57989161980E+02  0.87487578602E+02  0.00000000000E+00 0.  1.
         11    1    1    2    0    0  0.64247146239E+02 -0.15130702071E+02  0.84200826174E+02  0.10698791088E+03  0.00000000000E+00 0. -1.
</event>
<event>
 7    1  0.2384639E-009  0.1351261E+03  0.7561462E-02  0.1220042E+00
          2   -1    0    0  501    0  0.00000000000E+00  0.00000000000E+00  0.67330140750E+03  0.67330140750E+03  0.00000000000E+00 0. -1.
         -2   -1    0    0    0  501 -0.00000000000E+00 -0.00000000000E+00 -0.35851445602E+02  0.35851445602E+02  0.00000000000E+00 0.  1.
         25    2    1    2    0    0  0.70911761507E+02  0.61011179319E+02  0.48475933688E+03  0.50930312276E+03  0.12508882540E+03 0.  0.
          5    1    3    3  502    0  0.57123279876E+02  0.98333068090E+02  0.39427817804E+03  0.41037204517E+03  0.41800000000E+01 0. -1.
         -5    1    3    3    0  502  0.13788481631E+02 -0.37321888771E+02  0.90481158840E+02  0.98931077585E+02  0.41800000000E+01 0. -1.
        -11    1    1    2    0    0 -0.18620338118E+02 -0.61393545292E+02  0.12541344283E+03  0.14087020990E+03  0.00000000000E+00 0. -1.
         11    1    1    2    0    0 -0.52291423389E+02  0.38236597213E+00  0.27277182198E+02  0.58979520450E+02  0.00000000000E+00 0.  1.
</event>
<event>
 7    1  0.2384639E-009  0.1590507E+03  0.7561462E-02  0.1189773E+00
         -4   -1    0    0    0  501 -0.00000000000E+00  0.00000000000E+00  0.20930717411E+03  0.20930717411E+03  0.00000000000E+00 0.  1.
          4   -1    0    0  501    0  0.00000000000E+00 -0.00000000000E+00 -0.14658049494E+03  0.14658049494E+03  0.00000000000E+00 0. -1.
         25    2    1    2    0    0 -0.11858755831E+03  0.54140474522E+02 -0.90795931825E+01  0.18089699215E+03  0.12508829997E+03 0.  0.
          5    1    3    3  502    0 -0.54114152924E+02 -0.22317494041E+02  0.38374755977E+02  0.70117803611E+02  0.41800000000E+01 0. -1.
         -5    1    3    3    0  502 -0.64473405389E+02  0.76457968563E+02 -0.47454349160E+02  0.11077918854E+03  0.41800000000E+01 0. -1.
        -11    1    1    2    0    0  0.58227701095E+02 -0.75449728190E+02  0.38007817846E+02  0.10260468253E+03  0.00000000000E+00 0.  1.
         11    1    1    2    0    0  0.60359857218E+02  0.21309253668E+02  0.33798454507E+02  0.72385994380E+02  0.00000000000E+00 0. -1.
</event>
<event>
 7    1  0.2384639E-009  0.2002262E+03  0.7561462E-02  0.1149548E+00
          4   -1    0    0  501    0  0.00000000000E+00  0.00000000000E+00  0.20719641593E+03  0.20719641593E+03  0.00000000000E+00 0. -1.
         -4   -1    0    0    0  501 -0.00000000000E+00 -0.00000000000E+00 -0.52774110005E+03  0.52774110005E+03  0.00000000000E+00 0.  1.
         25    2    1    2    0    0 -0.16441077806E+03  0.54517245939E+02 -0.45153192264E+03  0.49953038359E+03  0.12508594214E+03 0.  0.
          5    1    3    3  502    0  0.16970383790E+02  0.23966350893E+02 -0.64509409012E+02  0.71002226389E+02  0.41800000000E+01 0. -1.
         -5    1    3    3    0  502 -0.18138116185E+03  0.30550895046E+02 -0.38702251362E+03  0.42852815720E+03  0.41800000000E+01 0. -1.
        -11    1    1    2    0    0  0.12770707692E+03 -0.71504400386E+02  0.70030796448E+02  0.16225378030E+03  0.00000000000E+00 0.  1.
         11    1    1    2    0    0  0.36703701132E+02  0.16987154447E+02  0.60956442066E+02  0.73153352093E+02  0.00000000000E+00 0. -1.
</event>
<event>
 7    1  0.2490979E-009  0.8759147E+02  0.7561462E-02  0.1308791E+00
          2   -1    0    0  501    0  0.00000000000E+00  0.00000000000E+00  0.82093553060E+02  0.82093553060E+02  0.00000000000E+00 0.  1.
         -2   -1    0    0    0  501 -0.00000000000E+00 -0.00000000000E+00 -0.20779508989E+03  0.20779508989E+03  0.00000000000E+00 0. -1.
         25    2    1    2    0    0  0.15166094710E+02 -0.20080248165E+01 -0.14819233833E+03  0.19452279576E+03  0.12507640200E+03 0.  0.
          5    1    3    3  502    0  0.66211506489E+02 -0.22539535620E+02 -0.72188991831E+02  0.10060177533E+03  0.41800000000E+01 0.  1.
         -5    1    3    3    0  502 -0.51045411779E+02  0.20531510804E+02 -0.76003346496E+02  0.93921020428E+02  0.41800000000E+01 0.  1.
        -11    1    1    2    0    0 -0.15480968265E+02 -0.21463162555E+02 -0.28706786889E+02  0.39043659392E+02  0.00000000000E+00 0. -1.
         11    1    1    2    0    0  0.31487355491E+00  0.23471187371E+02  0.51197588387E+02  0.56322187800E+02  0.00000000000E+00 0.  1.
</event>
<event>
 7    1  0.2384639E-009  0.8185099E+02  0.7561462E-02  0.1323879E+00
          2   -1    0    0  501    0  0.00000000000E+00  0.00000000000E+00  0.79188160867E+02  0.79188160867E+02  0.00000000000E+00 0. -1.
         -2   -1    0    0    0  501 -0.00000000000E+00 -0.00000000000E+00 -0.15168949185E+03  0.15168949185E+03  0.00000000000E+00 0.  1.
         25    2    1    2    0    0 -0.12276231765E+02  0.12651140181E+02 -0.35167532654E+02  0.13113352760E+03  0.12509392269E+03 0.  0.
          5    1    3    3  502    0  0.16721419228E+02  0.38443725984E+02 -0.68089835391E+02  0.80070119346E+02  0.41800000000E+01 0. -1.
         -5    1    3    3    0  502 -0.28997650993E+02 -0.25792585802E+02  0.32922302737E+02  0.51063408258E+02  0.41800000000E+01 0. -1.
        -11    1    1    2    0    0  0.14083365010E+02 -0.46528138402E+02 -0.43534569068E+02  0.65256934782E+02  0.00000000000E+00 0.  1.
         11    1    1    2    0    0 -0.18071332457E+01  0.33876998221E+02  0.62007707411E+01  0.34487190329E+02  0.00000000000E+00 0. -1.
</event>
<event>
 7    1  0.2384639E-009  0.2080826E+03  0.7561462E-02  0.1143093E+00
         -1   -1    0    0    0  501 -0.00000000000E+00  0.00000000000E+00  0.52281895526E+02  0.52281895526E+02  0.00000000000E+00 0.  1.
          1   -1    0    0  501    0  0.00000000000E+00 -0.00000000000E+00 -0.86423569299E+03  0.86423569299E+03  0.00000000000E+00 0. -1.
         25    2    1    2    0    0 -0.17693684993E+03 -0.14956787790E+02 -0.50313564505E+03  0.54801715161E+03  0.12508783625E+03 0.  0.
          5    1    3    3  502    0 -0.70469585774E+02 -0.68140490471E+02 -0.22578040277E+03  0.24617747995E+03  0.41800000000E+01 0.  1.
         -5    1    3    3    0  502 -0.10646726415E+03  0.53183702681E+02 -0.27735524228E+03  0.30183967166E+03  0.41800000000E+01 0.  1.
        -11    1    1    2    0    0  0.68561098754E+02  0.50231598290E+02 -0.15861764730E+03  0.17995387121E+03  0.00000000000E+00 0.  1.
         11    1    1    2    0    0  0.10837575117E+03 -0.35274810500E+02 -0.15020050511E+03  0.18854656569E+03  0.00000000000E+00 0. -1.
</event>
<event>
 7    1  0.2384639E-009  0.7789088E+02  0.7561462E-02  0.1335146E+00
         -2   -1    0    0    0  501 -0.00000000000E+00  0.00000000000E+00  0.21141242656E+02  0.21141242656E+02  0.00000000000E+00 0.  1.
          2   -1    0    0  501    0  0.00000000000E+00 -0.00000000000E+00 -0.78986505266E+03  0.78986505266E+03  0.00000000000E+00 0. -1.
         25    2    1    2    0    0 -0.60136051336E+02  0.30010359949E+01 -0.55249859994E+03  0.56967348713E+03  0.12509127911E+03 0.  0.
          5    1    3    3  502    0 -0.21636420245E+02  0.66988551663E+01 -0.51541108633E+03  0.51592544971E+03  0.41800000000E+01 0.  1.
         -5    1    3    3    0  502 -0.38499631091E+02 -0.36978191714E+01 -0.37087513614E+02  0.53748037423E+02  0.41800000000E+01 0.  1.
        -11    1    1    2    0    0  0.13395148965E+02 -0.34817624927E+02 -0.33779645740E+02  0.50326548538E+02  0.00000000000E+00 0.  1.
         11    1    1    2    0    0  0.46740902371E+02  0.31816588932E+02 -0.18244556431E+03  0.19100625965E+03  0.00000000000E+00 0. -1.
</event>
<event>
 7    1  0.2384639E-009  0.1615063E+03  0.7561462E-02  0.1187007E+00
          1   -1    0    0  501    0  0.00000000000E+00  0.00000000000E+00  0.88659962960E+02  0.88659962960E+02  0.00000000000E+00 0. -1.
         -1   -1    0    0    0  501 -0.00000000000E+00 -0.00000000000E+00 -0.60920025094E+03  0.60920025094E+03  0.00000000000E+00 0.  1.
         25    2    1    2    0    0 -0.84028160971E+02 -0.11878475779E+03 -0.51501783231E+02  0.19867128621E+03  0.12508915129E+03 0.  0.
          5    1    3    3  502    0 -0.17933707246E+02 -0.88404125399E+02 -0.79797636089E+02  0.12050743698E+03  0.41800000000E+01 0.  1.
         -5    1    3    3    0  502 -0.66094453725E+02 -0.30380632389E+02  0.28295852858E+02  0.78163849230E+02  0.41800000000E+01 0.  1.
        -11    1    1    2    0    0  0.24822701507E+02  0.91226911003E+02 -0.35891246950E+03  0.37115586559E+03  0.00000000000E+00 0.  1.
         11    1    1    2    0    0  0.59205459463E+02  0.27557846784E+02 -0.11012603525E+03  0.12803306210E+03  0.00000000000E+00 0. -1.
</event>
<event>
 7    1  0.2384639E-009  0.8003568E+02  0.7561462E-02  0.1328950E+00
          2   -1    0    0  501    0  0.00000000000E+00  0.00000000000E+00  0.46544139291E+03  0.46544139291E+03  0.00000000000E+00 0.  1.
         -2   -1    0    0    0  501 -0.00000000000E+00 -0.00000000000E+00 -0.30785576348E+02  0.30785576348E+02  0.00000000000E+00 0. -1.
         25    2    1    2    0    0 -0.33594628817E+02  0.76047725223E+01  0.16206813162E+03  0.20760558235E+03  0.12509023496E+03 0.  0.
          5    1    3    3  502    0 -0.52171662412E+01  0.39083151006E+02  0.16013927022E+03  0.16497505807E+03  0.41800000000E+01 0.  1.
         -5    1    3    3    0  502 -0.28377462576E+02 -0.31478378483E+02  0.19288613993E+01  0.42630524281E+02  0.41800000000E+01 0.  1.
        -11    1    1    2    0    0  0.30893621759E+02 -0.37063981868E+02  0.23917979022E+03  0.24399821038E+03  0.00000000000E+00 0.  1.
         11    1    1    2    0    0  0.27010070580E+01  0.29459209346E+02  0.33407894715E+02  0.44623176531E+02  0.00000000000E+00 0. -1.
</event>
<event>
 7    1  0.2384639E-009  0.4528269E+02  0.7561462E-02  0.1472585E+00
         -1   -1    0    0    0  501 -0.00000000000E+00  0.00000000000E+00  0.83570086871E+02  0.83570086871E+02  0.00000000000E+00 0.  1.
          1   -1    0    0  501    0  0.00000000000E+00 -0.00000000000E+00 -0.13945306277E+03  0.13945306277E+03  0.00000000000E+00 0. -1.
         25    2    1    2    0    0  0.90782481518E+01 -0.12775692966E+02 -0.47363162435E+02  0.13466770159E+03  0.12508592157E+03 0.  0.
          5    1    3    3  502    0  0.82122816894E+01 -0.15321060412E+02  0.41749462877E+02  0.45416588525E+02  0.41800000000E+01 0.  1.
         -5    1    3    3    0  502  0.86596646241E+00  0.25453674457E+01 -0.89112625312E+02  0.89251113065E+02  0.41800000000E+01 0.  1.
        -11    1    1    2    0    0  0.27035539868E+02 -0.49536107358E+01  0.24105236822E+02  0.36558461641E+02  0.00000000000E+00 0.  1.
         11    1    1    2    0    0 -0.36113788020E+02  0.17729303702E+02 -0.32625050284E+02  0.51796986408E+02  0.00000000000E+00 0. -1.
</event>
<event>
 7    1  0.2691566E-009  0.1686537E+03  0.7561462E-02  0.1179259E+00
         -2   -1    0    0    0  501 -0.00000000000E+00  0.00000000000E+00  0.42345265020E+02  0.42345265020E+02  0.00000000000E+00 0.  1.
          2   -1    0    0  501    0  0.00000000000E+00 -0.00000000000E+00 -0.76262564217E+03  0.76262564217E+03  0.00000000000E+00 0. -1.
         25    2    1    2    0    0 -0.13659460410E+03 -0.32815588245E+01 -0.28740392429E+03  0.34193114441E+03  0.12508811824E+03 0.  0.
          5    1    3    3  502    0  0.59512037431E+01 -0.36551965143E+02 -0.77495612013E+02  0.85991309230E+02  0.41800000000E+01 0. -1.
         -5    1    3    3    0  502 -0.14254580784E+03  0.33270406319E+02 -0.20990831227E+03  0.25593983518E+03  0.41800000000E+01 0. -1.
        -11    1    1    2    0    0  0.70442779722E+02  0.36764429849E+02 -0.30541964502E+03  0.31558670454E+03  0.00000000000E+00 0. -1.
         11    1    1    2    0    0  0.66151824373E+02 -0.33482871024E+02 -0.12745680784E+03  0.14745305825E+03  0.00000000000E+00 0.  1.
</event>
<event>
 7    1  0.2384639E-009  0.1247902E+03  0.7561462E-02  0.1235398E+00
          1   -1    0    0  501    0  0.00000000000E+00  0.00000000000E+00  0.88552022474E+03  0.88552022474E+03  0.00000000000E+00 0. -1.
         -1   -1    0    0    0  501 -0.00000000000E+00 -0.00000000000E+00 -0.27126435728E+02  0.27126435728E+02  0.00000000000E+00 0.  1.
         25    2    1    2    0    0  0.46011600048E+02 -0.99985142588E+02  0.42325827229E+03  0.45487389747E+03  0.12509437023E+03 0.  0.
          5    1    3    3  502    0  0.47919914868E+02 -0.96542273709E+01  0.28807607944E+03  0.29222392492E+03  0.41800000000E+01 0. -1.
         -5    1    3    3    0  502 -0.19083148198E+01 -0.90330915217E+02  0.13518219285E+03  0.16264997256E+03  0.41800000000E+01 0. -1.
        -11    1    1    2    0    0 -0.30975048260E+02  0.65855775826E+02  0.39989011692E+03  0.40645853717E+03  0.00000000000E+00 0. -1.
         11    1    1    2    0    0 -0.15036551788E+02  0.34129366762E+02  0.35245399801E+02  0.51314225829E+02  0.00000000000E+00 0.  1.
</event>
<event>
 7    1  0.2384639E-009  0.1105353E+03  0.7561462E-02  0.1259582E+00
          2   -1    0    0  501    0  0.00000000000E+00  0.00000000000E+00  0.14339014474E+03  0.14339014474E+03  0.00000000000E+00 0. -1.
         -2   -1    0    0    0  501 -0.00000000000E+00 -0.00000000000E+00 -0.14385309231E+03  0.14385309231E+03  0.00000000000E+00 0.  1.
         25    2    1    2    0    0 -0.76561293351E+02  0.22195419464E+02  0.68287990188E+02  0.16329726988E+03  0.12509388658E+03 0.  0.
          5    1    3    3  502    0 -0.30902604538E+02  0.54586458529E+02  0.84077764096E+02  0.10498188052E+03  0.41800000000E+01 0.  1.
         -5    1    3    3    0  502 -0.45658688812E+02 -0.32391039066E+02 -0.15789773909E+02  0.58315389357E+02  0.41800000000E+01 0.  1.
        -11    1    1    2    0    0  0.21532836339E+02  0.22523102117E+02 -0.13074397122E+02  0.33791907757E+02  0.00000000000E+00 0. -1.
         11    1    1    2    0    0  0.55028457012E+02 -0.44718521581E+02 -0.55676540636E+02  0.90154059424E+02  0.00000000000E+00 0.  1.
</event>
<event>
 7    1  0.2384639E-009  0.1071279E+03  0.7561462E-02  0.1265983E+00
         -1   -1    0    0    0  501 -0.00000000000E+00  0.00000000000E+00  0.11428140832E+03  0.11428140832E+03  0.00000000000E+00 0.  1.
          1   -1    0    0  501    0  0.00000000000E+00 -0.00000000000E+00 -0.11224355446E+03  0.11224355446E+03  0.00000000000E+00 0. -1.
         25    2    1    2    0    0  0.23484283797E+02 -0.61390313780E+01 -0.21766668653E+02  0.12927822868E+03  0.12509945345E+03 0.  0.
          5    1    3    3  502    0  0.44163006169E+02  0.50158204702E+02 -0.66725163908E+01  0.67291986802E+02  0.41800000000E+01 0. -1.
         -5    1    3    3    0  502 -0.20678722371E+02 -0.56297236080E+02 -0.15094152262E+02  0.61986241874E+02  0.41800000000E+01 0. -1.
        -11    1    1    2    0    0  0.30090180341E+02  0.13713328100E+02  0.27507097589E+02  0.43012960120E+02  0.00000000000E+00 0.  1.
         11    1    1    2    0    0 -0.53574464138E+02 -0.75742967216E+01 -0.37025750695E+01  0.54233773985E+02  0.00000000000E+00 0. -1.
</event>
<event>
 7    1  0.2384639E-009  0.2194843E+03  0.7561462E-02  0.1134268E+00
         -1   -1    0    0    0  501 -0.00000000000E+00  0.00000000000E+00  0.70869412750E+02  0.70869412750E+02  0.00000000000E+00 0.  1.
          1   -1    0    0  501    0  0.00000000000E+00 -0.00000000000E+00 -0.71468576702E+03  0.71468576702E+03  0.00000000000E+00 0. -1.
         25    2    1    2    0    0  0.18058444271E+03  0.78138643221E+02 -0.31404055026E+03  0.39113449670E+03  0.12509332032E+03 0.  0.
          5    1    3    3  502    0  0.16175802118E+03  0.10954197456E+03 -0.25074585831E+03  0.31789315731E+03  0.41800000000E+01 0. -1.
         -5    1    3    3    0  502  0.18826421531E+02 -0.31403331336E+02 -0.63294691950E+02  0.73241339390E+02  0.41800000000E+01 0. -1.
        -11    1    1    2    0    0 -0.76140579777E+02 -0.67456975667E+02 -0.22076175103E+03  0.24307114632E+03  0.00000000000E+00 0. -1.
         11    1    1    2    0    0 -0.10444386294E+03 -0.10681667554E+02 -0.10901405298E+03  0.15134953675E+03  0.00000000000E+00 0.  1.
</event>
<event>
 7    1  0.2384639E-009  0.1058637E+03  0.7561462E-02  0.1268427E+00
          2   -1    0    0  501    0  0.00000000000E+00  0.00000000000E+00  0.83386238970E+03  0.83386238970E+03  0.00000000000E+00 0. -1.
         -2   -1    0    0    0  501 -0.00000000000E+00 -0.00000000000E+00 -0.14496069374E+02  0.14496069374E+02  0.00000000000E+00 0.  1.
         25    2    1    2    0    0 -0.18665986101E+02  0.20583186203E+00  0.46989578703E+03  0.48662073856E+03  0.12509688696E+03 0.  0.
          5    1    3    3  502    0 -0.68444310056E+02 -0.15211808954E+02  0.20743671630E+03  0.21900567659E+03  0.41800000000E+01 0. -1.
         -5    1    3    3    0  502  0.49778323954E+02  0.15417640816E+02  0.26245907073E+03  0.26761506197E+03  0.41800000000E+01 0. -1.
        -11    1    1    2    0    0  0.53278547584E+02 -0.75954129924E+01  0.15511004835E+03  0.16418106173E+03  0.00000000000E+00 0. -1.
         11    1    1    2    0    0 -0.34612561482E+02  0.73895811304E+01  0.19436048494E+03  0.19755665878E+03  0.00000000000E+00 0.  1.
</event>
<event>
 7    1  0.2384639E-009  0.2309318E+03  0.7561462E-02  0.1125986E+00
         -2   -1    0    0    0  501 -0.00000000000E+00  0.00000000000E+00  0.34378457938E+02  0.34378457938E+02  0.00000000000E+00 0.  1.
          2   -1    0    0  501    0  0.00000000000E+00 -0.00000000000E+00 -0.19605823780E+04  0.19605823780E+04  0.00000000000E+00 0. -1.
         25    2    1    2    0    0 -0.16291212983E+03  0.14358845088E+03 -0.13463267824E+04  0.13694523318E+04  0.12508348714E+03 0.  0.
          5    1    3    3  502    0 -0.30804782106E+02  0.75657864391E+02 -0.24856600746E+03  0.26167838946E+03  0.41800000000E+01 0. -1.
         -5    1    3    3    0  502 -0.13210734772E+03  0.67930586490E+02 -0.10977607750E+04  0.11077739424E+04  0.41800000000E+01 0. -1.
        -11    1    1    2    0    0  0.16023002218E+03 -0.10233947906E+03 -0.43249532051E+03  0.47243965884E+03  0.00000000000E+00 0.  1.
         11    1    1    2    0    0  0.26821076507E+01 -0.41248971820E+02 -0.14738181710E+03  0.15306884527E+03  0.00000000000E+00 0. -1.
</event>
<event>
 7    1  0.2384639E-009  0.8824762E+02  0.7561462E-02  0.1307152E+00
          1   -1    0    0  501    0  0.00000000000E+00  0.00000000000E+00  0.57704451641E+02  0.57704451641E+02  0.00000000000E+00 0. -1.
         -1   -1    0    0    0  501 -0.00000000000E+00 -0.00000000000E+00 -0.28007622626E+03  0.28007622626E+03  0.00000000000E+00 0.  1.
         25    2    1    2    0    0 -0.54328813213E+02 -0.35985270689E+02 -0.11387511769E+03  0.18127822865E+03  0.12509074347E+03 0.  0.
          5    1    3    3  502    0 -0.45395122899E+02  0.53634988023E+01 -0.12839865059E+03  0.13635677532E+03  0.41800000000E+01 0.  1.
         -5    1    3    3    0  502 -0.89336903136E+01 -0.41348769492E+02  0.14523532900E+02  0.44921453327E+02  0.41800000000E+01 0.  1.
        -11    1    1    2    0    0  0.44691198011E+02 -0.59235507143E+01 -0.10389477515E+03  0.11325420935E+03  0.00000000000E+00 0.  1.
         11    1    1    2    0    0  0.96376152019E+01  0.41908821404E+02 -0.46018817726E+01  0.43248239896E+02  0.00000000000E+00 0. -1.
</event>
<event>
 7    1  0.2384639E-009  0.6863828E+02  0.7561462E-02  0.1364786E+00
         -1   -1    0    0    0  501 -0.00000000000E+00  0.00000000000E+00  0.33695114008E+02  0.33695114008E+02  0.00000000000E+00 0.  1.
          1   -1    0    0  501    0  0.00000000000E+00 -0.00000000000E+00 -0.39692632425E+03  0.39692632425E+03  0.00000000000E+00 0. -1.
         25    2    1    2    0    0  0.15801240320E+02  0.20424848740E+02 -0.16004922474E+03  0.20476795505E+03  0.12508919791E+03 0.  0.
          5    1    3    3  502    0 -0.15996389434E+02 -0.29267374983E+01 -0.16403888684E+03  0.16489596436E+03  0.41800000000E+01 0.  1.
         -5    1    3    3    0  502  0.31797629754E+02  0.23351586239E+02  0.39896620980E+01  0.39871990689E+02  0.41800000000E+01 0.  1.
        -11    1    1    2    0    0 -0.46726986658E+01 -0.49480283012E+02 -0.53708359109E+02  0.73175954779E+02  0.00000000000E+00 0.  1.
         11    1    1    2    0    0 -0.11128541654E+02  0.29055434271E+02 -0.14947362639E+03  0.15267752843E+03  0.00000000000E+00 0. -1.
</event>
<event>
 7    1  0.3549165E-009  0.1915276E+03  0.7561462E-02  0.1157091E+00
         -1   -1    0    0    0  501 -0.00000000000E+00  0.00000000000E+00  0.24400447048E+02  0.24400447048E+02  0.00000000000E+00 0.  1.
          1   -1    0    0  501    0  0.00000000000E+00 -0.00000000000E+00 -0.20755436977E+04  0.20755436977E+04  0.00000000000E+00 0. -1.
         25    2    1    2    0    0 -0.11472101262E+03 -0.12879673075E+03 -0.15049864496E+04  0.15199941376E+04  0.12509378946E+03 0.  0.
          5    1    3    3  502    0 -0.14368153653E+02  0.19104576674E+02 -0.73874287065E+02  0.77758030959E+02  0.41800000000E+01 0. -1.
         -5    1    3    3    0  502 -0.10035285897E+03 -0.14790130742E+03 -0.14311121626E+04  0.14422361066E+04  0.41800000000E+01 0. -1.
        -11    1    1    2    0    0  0.71267583408E+02  0.11334201706E+03 -0.48625554339E+03  0.50435100352E+03  0.00000000000E+00 0. -1.
         11    1    1    2    0    0  0.43453429217E+02  0.15454713683E+02 -0.59901257683E+02  0.75599003682E+02  0.00000000000E+00 0.  1.
</event>
<event>
 7    1  0.2384639E-009  0.1114913E+03  0.7561462E-02  0.1257833E+00
          1   -1    0    0  501    0  0.00000000000E+00  0.00000000000E+00  0.44008905007E+02  0.44008905007E+02  0.00000000000E+00 0. -1.
         -1   -1    0    0    0  501 -0.00000000000E+00 -0.00000000000E+00 -0.47761243472E+03  0.47761243472E+03  0.00000000000E+00 0.  1.
         25    2    1    2    0    0 -0.80365878017E+02  0.45506597154E+02 -0.18355799763E+03  0.24055946420E+03  0.12508314270E+03 0.  0.
          5    1    3    3  502    0 -0.41604574395E+02  0.12730836885E+02  0.61441329545E+01  0.44138844436E+02  0.41800000000E+01 0.  1.
         -5    1    3    3    0  502 -0.38761303622E+02  0.32775760269E+02 -0.18970213059E+03  0.19642061977E+03  0.41800000000E+01 0.  1.
        -11    1    1    2    0    0 -0.12507130784E+02 -0.32168975021E+02 -0.68513598286E+02  0.76716259193E+02  0.00000000000E+00 0.  1.
         11    1    1    2    0    0  0.92873008801E+02 -0.13337622133E+02 -0.18153193379E+03  0.20434561633E+03  0.00000000000E+00 0. -1.
</event>
<event>
 7    1  0.2384639E-009  0.1097287E+03  0.7561462E-02  0.1261073E+00
         -1   -1    0    0    0  501 -0.00000000000E+00  0.00000000000E+00  0.24182611371E+03  0.24182611371E+03  0.00000000000E+00 0.  1.
          1   -1    0    0  501    0  0.00000000000E+00 -0.00000000000E+00 -0.89202901761E+02  0.89202901761E+02  0.00000000000E+00 0. -1.
         25    2    1    2    0    0 -0.72068017153E+02  0.45103559120E+02  0.22712574978E+02  0.15294356769E+03  0.12509094170E+03 0.  0.
          5    1    3    3  502    0 -0.46177647727E+02  0.72030373011E+02  0.56322704443E+02  0.10252057950E+03  0.41800000000E+01 0.  1.
         -5    1    3    3    0  502 -0.25890369426E+02 -0.26926813892E+02 -0.33610129465E+02  0.50422988191E+02  0.41800000000E+01 0.  1.
        -11    1    1    2    0    0  0.40560204860E+02  0.75453681573E+00  0.11280273875E+03  0.11987559140E+03  0.00000000000E+00 0.  1.
         11    1    1    2    0    0  0.31507812293E+02 -0.45858095935E+02  0.17107898226E+02  0.58209856382E+02  0.00000000000E+00 0. -1.
</event>
<event>
 7    1  0.2384639E-009  0.1013718E+03  0.7561462E-02  0.1277437E+00
         -1   -1    0    0    0  501 -0.00000000000E+00  0.00000000000E+00  0.42849477660E+02  0.42849477660E+02  0.00000000000E+00 0.  1.
          1   -1    0    0  501    0  0.00000000000E+00 -0.00000000000E+00 -0.25262357328E+03  0.25262357328E+03  0.00000000000E+00 0. -1.
         25    2    1    2    0    0 -0.20659387887E+02 -0.36640591442E+02 -0.15297973085E+03  0.20203588763E+03  0.12508540519E+03 0.  0.
          5    1    3    3  502    0  0.33997138449E+02  0.29572406945E+02 -0.63307482299E+02  0.77818008136E+02  0.41800000000E+01 0.  1.
         -5    1    3    3    0  502 -0.54656526337E+02 -0.66212998387E+02 -0.89672248548E+02  0.12421787949E+03  0.41800000000E+01 0.  1.
        -11    1    1    2    0    0 -0.15977853870E+02  0.30433037278E+02 -0.39764823139E+02  0.52561418660E+02  0.00000000000E+00 0.  1.
         11    1    1    2    0    0  0.36637241757E+02  0.62075541637E+01 -0.17029541631E+02  0.40875744647E+02  0.00000000000E+00 0. -1.
</event>
<event>
 7    1  0.2384639E-009  0.1072101E+03  0.7561462E-02  0.1265825E+00
          2   -1    0    0  501    0  0.00000000000E+00  0.00000000000E+00  0.76950568437E+02  0.76950568437E+02  0.00000000000E+00 0. -1.
         -2   -1    0    0    0  501 -0.00000000000E+00 -0.00000000000E+00 -0.21769262302E+03  0.21769262302E+03  0.00000000000E+00 0.  1.
         25    2    1    2    0    0 -0.18889313420E+02 -0.52654840029E+02 -0.12511692119E+03  0.18556137379E+03  0.12509772634E+03 0.  0.
          5    1    3    3  502    0  0.31495096330E+02 -0.71208699172E+02 -0.98086975587E+02  0.12530421825E+03  0.41800000000E+01 0.  1.
         -5    1    3    3    0  502 -0.50384409750E+02  0.18553859143E+02 -0.27029945599E+02  0.60257155542E+02  0.41800000000E+01 0.  1.
        -11    1    1    2    0    0  0.35153698953E+02  0.94141020791E+01 -0.42248217846E+02  0.55761274906E+02  0.00000000000E+00 0.  1.
         11    1    1    2    0    0 -0.16264385534E+02  0.43240737950E+02  0.26623084447E+02  0.53320542764E+02  0.00000000000E+00 0. -1.
</event>
<event>
 7    1  0.2384639E-009  0.5855865E+02  0.7561462E-02  0.1403982E+00
         -2   -1    0    0    0  501 -0.00000000000E+00  0.00000000000E+00  0.88231386660E+02  0.88231386660E+02  0.00000000000E+00 0. -1.
          2   -1    0    0  501    0  0.00000000000E+00 -0.00000000000E+00 -0.25222745290E+03  0.25222745290E+03  0.00000000000E+00 0.  1.
         25    2    1    2    0    0 -0.22234286615E+01 -0.36678575016E+02 -0.19525180622E+03  0.23477840494E+03  0.12508944838E+03 0.  0.
          5    1    3    3  502    0 -0.29417814387E+02 -0.31504411927E+02 -0.20149372388E+03  0.20609495127E+03  0.41800000000E+01 0. -1.
         -5    1    3    3    0  502  0.27194385725E+02 -0.51741630890E+01  0.62419176625E+01  0.28683453676E+02  0.41800000000E+01 0. -1.
        -11    1    1    2    0    0 -0.11426155056E+02  0.26278263474E+02 -0.30343689861E+02  0.41735400621E+02  0.00000000000E+00 0.  1.
         11    1    1    2    0    0  0.13649583718E+02  0.10400311542E+02  0.61599429842E+02  0.63945033996E+02  0.00000000000E+00 0. -1.
</event>
<event>
 7    1  0.2384639E-009  0.1086097E+03  0.7561462E-02  0.1263166E+00
          1   -1    0    0  501    0  0.00000000000E+00  0.00000000000E+00  0.78710782012E+02  0.78710782012E+02  0.00000000000E+00 0. -1.
         -1   -1    0    0    0  501 -0.00000000000E+00 -0.00000000000E+00 -0.22613603846E+03  0.22613603846E+03  0.00000000000E+00 0.  1.
         25    2    1    2    0    0 -0.36054193538E+01  0.70596200542E+02 -0.11466178354E+03  0.18382532763E+03  0.12509038291E+03 0.  0.
          5    1    3    3  502    0 -0.36526556604E+02  0.81953754791E+02 -0.34311108934E+02  0.96152648731E+02  0.41800000000E+01 0.  1.
         -5    1    3    3    0  502  0.32921137250E+02 -0.11357554249E+02 -0.80350674607E+02  0.87672678904E+02  0.41800000000E+01 0.  1.
        -11    1    1    2    0    0 -0.15482220459E+02 -0.71554292788E+02 -0.55097371082E+02  0.91626613311E+02  0.00000000000E+00 0.  1.
         11    1    1    2    0    0  0.19087639813E+02  0.95809224540E+00  0.22333898178E+02  0.29394879523E+02  0.00000000000E+00 0. -1.
</event>
<event>
 7    1  0.2384639E-009  0.1021285E+03  0.7561462E-02  0.1275883E+00
          3   -1    0    0  501    0  0.00000000000E+00  0.00000000000E+00  0.52457916324E+02  0.52457916324E+02  0.00000000000E+00 0. -1.
         -3   -1    0    0    0  501 -0.00000000000E+00 -0.00000000000E+00 -0.27860196972E+03  0.27860196972E+03  0.00000000000E+00 0.  1.
         25    2    1    2    0    0 -0.12461365181E+02 -0.20290783628E+01 -0.20426622400E+03  0.23985396177E+03  0.12508329196E+03 0.  0.
          5    1    3    3  502    0  0.21596346835E+02  0.49468078901E+02 -0.50225630289E+02  0.73848353838E+02  0.41800000000E+01 0.  1.
         -5    1    3    3    0  502 -0.34057712016E+02 -0.51497157264E+02 -0.15404059371E+03  0.16600560793E+03  0.41800000000E+01 0.  1.
        -11    1    1    2    0    0  0.39264417580E+02  0.30062687823E+02 -0.84893483328E+01  0.50174981038E+02  0.00000000000E+00 0.  1.
         11    1    1    2    0    0 -0.26803052399E+02 -0.28033609460E+02 -0.13388481056E+02  0.41030943229E+02  0.00000000000E+00 0. -1.
</event>
<event>
 7    1  0.2384639E-009  0.1277404E+03  0.7561462E-02  0.1230848E+00
          1   -1    0    0  501    0  0.00000000000E+00  0.00000000000E+00  0.62889303951E+03  0.62889303951E+03  0.00000000000E+00 0. -1.
         -1   -1    0    0    0  501 -0.00000000000E+00 -0.00000000000E+00 -0.27862352087E+02  0.27862352087E+02  0.00000000000E+00 0.  1.
         25    2    1    2    0    0 -0.72957329506E+02  0.17495613109E+02  0.30704653381E+03  0.33993142804E+03  0.12508770300E+03 0.  0.
          5    1    3    3  502    0 -0.96470809203E+02  0.40678708101E+02  0.27254365098E+03  0.29199124715E+03  0.41800000000E+01 0. -1.
         -5    1    3    3    0  502  0.23513479697E+02 -0.23183094992E+02  0.34502882831E+02  0.47940180897E+02  0.41800000000E+01 0. -1.
        -11    1    1    2    0    0  0.43354339976E+02  0.35950062891E+02  0.12392279643E+03  0.13612077465E+03  0.00000000000E+00 0. -1.
         11    1    1    2    0    0  0.29602989531E+02 -0.53445676000E+02  0.17006135718E+03  0.18070318890E+03  0.00000000000E+00 0.  1.
</event>
<event>
 7    1  0.2384639E-009  0.1214450E+03  0.7561462E-02  0.1240732E+00
         -2   -1    0    0    0  501 -0.00000000000E+00  0.00000000000E+00  0.33031222676E+02  0.33031222676E+02  0.00000000000E+00 0. -1.
          2   -1    0    0  501    0  0.00000000000E+00 -0.00000000000E+00 -0.51373477318E+03  0.51373477318E+03  0.00000000000E+00 0.  1.
         25    2    1    2    0    0  0.24415723398E+02 -0.81371373276E+02 -0.25797431019E+03  0.29902869363E+03  0.12509990790E+03 0.  0.
          5    1    3    3  502    0  0.54813104541E+02 -0.87327532319E+02 -0.12333567735E+03  0.16080962670E+03  0.41800000000E+01 0. -1.
         -5    1    3    3    0  502 -0.30397381143E+02  0.59561590435E+01 -0.13463863284E+03  0.13821906693E+03  0.41800000000E+01 0. -1.
        -11    1    1    2    0    0 -0.47961939737E+02  0.58097396649E+02 -0.15712727153E+03  0.17425451104E+03  0.00000000000E+00 0.  1.
         11    1    1    2    0    0  0.23546216339E+02  0.23273976627E+02 -0.65601968788E+02  0.73482791188E+02  0.00000000000E+00 0. -1.
</event>
<event>
 7    1  0.2384639E-009  0.1335153E+03  0.7561462E-02  0.1222331E+00
         -1   -1    0    0    0  501 -0.00000000000E+00  0.00000000000E+00  0.89863648716E+02  0.89863648716E+02  0.00000000000E+00 0.  1.
          1   -1    0    0  501    0  0.00000000000E+00 -0.00000000000E+00 -0.22212156145E+03  0.22212156145E+03  0.00000000000E+00 0. -1.
         25    2    1    2    0    0 -0.35737658400E+02  0.75413243089E+02 -0.10944490938E+03  0.18598004841E+03  0.12508418267E+03 0.  0.
          5    1    3    3  502    0  0.23621678501E+02  0.81953426743E+02 -0.40008024997E+02  0.94299853204E+02  0.41800000000E+01 0. -1.
         -5    1    3    3    0  502 -0.59359336901E+02 -0.65401836535E+01 -0.69436884382E+02  0.91680195202E+02  0.41800000000E+01 0. -1.
        -11    1    1    2    0    0 -0.29489248709E+02 -0.16031492043E+02  0.40213117533E+01  0.33805258093E+02  0.00000000000E+00 0. -1.
         11    1    1    2    0    0  0.65226907109E+02 -0.59381751046E+02 -0.26834315104E+02  0.92199903663E+02  0.00000000000E+00 0.  1.
</event>
<event>
 7    1  0.2384639E-009  0.7951016E+02  0.7561462E-02  0.1330447E+00
         -1   -1    0    0    0  501 -0.00000000000E+00  0.00000000000E+00  0.35697673056E+03  0.35697673056E+03  0.00000000000E+00 0.  1.
          1   -1    0    0  501    0  0.00000000000E+00 -0.00000000000E+00 -0.49915977260E+02  0.49915977260E+02  0.00000000000E+00 0. -1.
         25    2    1    2    0    0  0.43743775520E+02  0.19591072846E+00  0.26925888626E+03  0.30010287404E+03  0.12509129026E+03 0.  0.
          5    1    3    3  502    0  0.54920676982E+02 -0.27507957772E+02  0.51504862499E+02  0.80269494591E+02  0.41800000000E+01 0. -1.
         -5    1    3    3    0  502 -0.11176901461E+02  0.27703868500E+02  0.21775402376E+03  0.21983337945E+03  0.41800000000E+01 0. -1.
        -11    1    1    2    0    0 -0.48343846701E+02 -0.15926589385E+02  0.60328235120E+02  0.78932120940E+02  0.00000000000E+00 0.  1.
         11    1    1    2    0    0  0.46000711806E+01  0.15730678656E+02 -0.22526368079E+02  0.27857712840E+02  0.00000000000E+00 0. -1.
</event>
<event>
 7    1  0.2384639E-009  0.8845746E+02  0.7561462E-02  0.1306631E+00
         -2   -1    0    0    0  501 -0.00000000000E+00  0.00000000000E+00  0.80093631261E+02  0.80093631261E+02  0.00000000000E+00 0.  1.
          2   -1    0    0  501    0  0.00000000000E+00 -0.00000000000E+00 -0.15424580745E+03  0.15424580745E+03  0.00000000000E+00 0. -1.
         25    2    1    2    0    0 -0.28912025447E+02  0.69534197580E+01 -0.12302455224E+01  0.12858489850E+03  0.12509319468E+03 0.  0.
          5    1    3    3  502    0 -0.32478348588E+02  0.60743963229E+02  0.17793674037E+02  0.71265415396E+02  0.41800000000E+01 0. -1.
         -5    1    3    3    0  502  0.35663231404E+01 -0.53790543471E+02 -0.19023919559E+02  0.57319483102E+02  0.41800000000E+01 0. -1.
        -11    1    1    2    0    0  0.36130728712E+02 -0.18212730424E+02 -0.10343318540E+02  0.41762630966E+02  0.00000000000E+00 0.  1.
         11    1    1    2    0    0 -0.72187032651E+01  0.11259310666E+02 -0.62578612131E+02  0.63991909252E+02  0.00000000000E+00 0. -1.
</event>
<event>
 7    1  0.2384639E-009  0.9270658E+02  0.7561462E-02  0.1296427E+00
          2   -1    0    0  501    0  0.00000000000E+00  0.00000000000E+00  0.26067765241E+03  0.26067765241E+03  0.00000000000E+00 0. -1.
         -2   -1    0    0    0  501 -0.00000000000E+00 -0.00000000000E+00 -0.50974738425E+02  0.50974738425E+02  0.00000000000E+00 0.  1.
         25    2    1    2    0    0 -0.11629088728E+02  0.33784642324E+02  0.93187411471E+02  0.16002865329E+03  0.12509451808E+03 0.  0.
          5    1    3    3  502    0  0.42129803216E+01  0.66894030436E+02  0.85731358305E+01  0.67701784091E+02  0.41800000000E+01 0.  1.
         -5    1    3    3    0  502 -0.15842069050E+02 -0.33109388112E+02  0.84614275641E+02  0.92326869194E+02  0.41800000000E+01 0.  1.
        -11    1    1    2    0    0 -0.31037203737E+02 -0.10877392122E+02  0.91263580525E+02  0.97008591400E+02  0.00000000000E+00 0. -1.
         11    1    1    2    0    0  0.42666292465E+02 -0.22907250202E+02  0.25251921985E+02  0.54615146145E+02  0.00000000000E+00 0.  1.
</event>
<event>
 7    1  0.2384639E-009  0.1294133E+03  0.7561462E-02  0.1228329E+00
          2   -1    0    0  501    0  0.00000000000E+00  0.00000000000E+00  0.20594001894E+04  0.20594001894E+04  0.00000000000E+00 0. -1.
         -2   -1    0    0    0  501 -0.00000000000E+00 -0.00000000000E+00 -0.18287904363E+02  0.18287904363E+02  0.00000000000E+00 0.  1.
         25    2    1    2    0    0  0.81125988900E+01  0.10167137847E+03  0.17417939556E+04  0.17492556121E+04  0.12508448760E+03 0.  0.
          5    1    3    3  502    0 -0.40891496701E+02 -0.27119519940E+01  0.29419712494E+03  0.29706714714E+03  0.41800000000E+01 0. -1.
         -5    1    3    3    0  502  0.49004095591E+02  0.10438333047E+03  0.14475968307E+04  0.14521884649E+04  0.41800000000E+01 0. -1.
        -11    1    1    2    0    0 -0.20708006385E+00 -0.47257867220E+02  0.25045096993E+03  0.25487062842E+03  0.00000000000E+00 0. -1.
         11    1    1    2    0    0 -0.79055188262E+01 -0.54413511255E+02  0.48867359514E+02  0.73561853300E+02  0.00000000000E+00 0.  1.
</event>
<event>
 7    1  0.2384639E-009  0.8892228E+02  0.7561462E-02  0.1305483E+00
         -2   -1    0    0    0  501 -0.00000000000E+00  0.00000000000E+00  0.26893476705E+03  0.26893476705E+03  0.00000000000E+00 0.  1.
          2   -1    0    0  501    0  0.00000000000E+00 -0.00000000000E+00 -0.46222639076E+02  0.46222639076E+02  0.00000000000E+00 0. -1.
         25    2    1    2    0    0 -0.21575864452E+02  0.15453654670E+01  0.12640794861E+03  0.17915101455E+03  0.12509280739E+03 0.  0.
          5    1    3    3  502    0 -0.53074762644E+01  0.61787907995E+02  0.46216102218E+02  0.77455247614E+02  0.41800000000E+01 0. -1.
         -5    1    3    3    0  502 -0.16268388188E+02 -0.60242542528E+02  0.80191846391E+02  0.10169576693E+03  0.41800000000E+01 0. -1.
        -11    1    1    2    0    0  0.35005199083E+02  0.89184203672E+01 -0.20577684088E+01  0.36181992697E+02  0.00000000000E+00 0. -1.
         11    1    1    2    0    0 -0.13429334631E+02 -0.10463785834E+02  0.98361947776E+02  0.99824398886E+02  0.00000000000E+00 0.  1.
</event>
<event>
 7    1  0.2384639E-009  0.2232973E+03  0.7561462E-02  0.1131448E+00
          1   -1    0    0  501    0  0.00000000000E+00  0.00000000000E+00  0.20061176380E+03  0.20061176380E+03  0.00000000000E+00 0. -1.
         -1   -1    0    0    0  501 -0.00000000000E+00 -0.00000000000E+00 -0.31451682350E+03  0.31451682350E+03  0.00000000000E+00 0.  1.
         25    2    1    2    0    0  0.20872510126E+03 -0.41488979426E+02  0.19169607546E+02  0.24759338244E+03  0.12508999107E+03 0.  0.
          5    1    3    3  502    0  0.20339981330E+03 -0.61533012703E+02 -0.85571395122E+01  0.21271693101E+03  0.41800000000E+01 0. -1.
         -5    1    3    3    0  502  0.53252879571E+01  0.20044033277E+02  0.27726747058E+02  0.34876451428E+02  0.41800000000E+01 0. -1.
        -11    1    1    2    0    0 -0.43606976374E+02  0.11169786786E+02  0.10966566861E+02  0.46331394475E+02  0.00000000000E+00 0.  1.
         11    1    1    2    0    0 -0.16511812488E+03  0.30319192641E+02 -0.14404123410E+03  0.22120381038E+03  0.00000000000E+00 0. -1.
</event>
<event>
 7    1  0.2384639E-009  0.1161398E+03  0.7561462E-02  0.1249604E+00
         -1   -1    0    0    0  501 -0.00000000000E+00  0.00000000000E+00  0.56469524489E+03  0.56469524489E+03  0.00000000000E+00 0.  1.
          1   -1    0    0  501    0  0.00000000000E+00 -0.00000000000E+00 -0.27596008697E+02  0.27596008697E+02  0.00000000000E+00 0. -1.
         25    2    1    2    0    0  0.56219410462E+02 -0.27465370956E+02  0.27818397376E+03  0.31136646290E+03  0.12509109579E+03 0.  0.
          5    1    3    3  502    0 -0.24575523808E+02 -0.33961134078E+02  0.34281056160E+02  0.54313701861E+02  0.41800000000E+01 0.  1.
         -5    1    3    3    0  502  0.80794934270E+02  0.64957631222E+01  0.24390291760E+03  0.25705276104E+03  0.41800000000E+01 0.  1.
        -11    1    1    2    0    0 -0.26032450574E+02 -0.32626973947E+02  0.10141196666E+03  0.10966583284E+03  0.00000000000E+00 0.  1.
         11    1    1    2    0    0 -0.30186959888E+02  0.60092344903E+02  0.15750329577E+03  0.17125895785E+03  0.00000000000E+00 0. -1.
</event>
<event>
 7    1  0.2384639E-009  0.1482343E+03  0.7561462E-02  0.1202660E+00
         -2   -1    0    0    0  501 -0.00000000000E+00  0.00000000000E+00  0.20281532610E+03  0.20281532610E+03  0.00000000000E+00 0.  1.
          2   -1    0    0  501    0  0.00000000000E+00 -0.00000000000E+00 -0.13063907500E+03  0.13063907500E+03  0.00000000000E+00 0. -1.
         25    2    1    2    0    0  0.67390921321E+02  0.83236247520E+02  0.94182326452E+02  0.18969744933E+03  0.12507998437E+03 0.  0.
          5    1    3    3  502    0  0.60422685349E+02 -0.11541506265E+02  0.95872279230E+01  0.62397873449E+02  0.41800000000E+01 0.  1.
         -5    1    3    3    0  502  0.69682359713E+01  0.94777753785E+02  0.84595098529E+02  0.12729957588E+03  0.41800000000E+01 0.  1.
        -11    1    1    2    0    0 -0.85869350788E+02 -0.44379962554E+02 -0.29641234582E+01  0.96705286872E+02  0.00000000000E+00 0. -1.
         11    1    1    2    0    0  0.18478429468E+02 -0.38856284966E+02 -0.19041951896E+02  0.47051664890E+02  0.00000000000E+00 0.  1.
</event>
<event>
 7    1  0.2384639E-009  0.7809477E+02  0.7561462E-02  0.1334547E+00
         -1   -1    0    0    0  501 -0.00000000000E+00  0.00000000000E+00  0.18261173471E+03  0.18261173471E+03  0.00000000000E+00 0.  1.
          1   -1    0    0  501    0  0.00000000000E+00 -0.00000000000E+00 -0.66122287717E+02  0.66122287717E+02  0.00000000000E+00 0. -1.
         25    2    1    2    0    0  0.16211969489E+02  0.74284795286E+01  0.60036393803E+02  0.13989437671E+03  0.12509219716E+03 0.  0.
          5    1    3    3  502    0  0.28097126148E+02 -0.34962929040E+02 -0.19344484310E+02  0.49025874578E+02  0.41800000000E+01 0.  1.
         -5    1    3    3    0  502 -0.11885156659E+02  0.42391408569E+02  0.79380878113E+02  0.90868502129E+02  0.41800000000E+01 0.  1.
        -11    1    1    2    0    0 -0.39023941519E+02  0.73866482322E+01 -0.65150530039E+01  0.40247689368E+02  0.00000000000E+00 0. -1.
         11    1    1    2    0    0  0.22811972030E+02 -0.14815127761E+02  0.62968106199E+02  0.68591956356E+02  0.00000000000E+00 0.  1.
</event>
<event>
 7    1  0.2384639E-009  0.1078923E+03  0.7561462E-02  0.1264524E+00
         -1   -1    0    0    0  501 -0.00000000000E+00  0.00000000000E+00  0.14846937081E+03  0.14846937081E+03  0.00000000000E+00 0.  1.
          1   -1    0    0  501    0  0.00000000000E+00 -0.00000000000E+00 -0.10542274174E+03  0.10542274174E+03  0.00000000000E+00 0. -1.
         25    2    1    2    0    0 -0.52336205986E+02  0.17197076178E+02  0.51729203831E+02  0.14614207662E+03  0.12508708224E+03 0.  0.
          5    1    3    3  502    0 -0.84947858185E+02 -0.84828926308E+01  0.58913447596E+02  0.10380927119E+03  0.41800000000E+01 0. -1.
         -5    1    3    3    0  502  0.32611652199E+02  0.25679968808E+02 -0.71842437653E+01  0.42332805431E+02  0.41800000000E+01 0. -1.
        -11    1    1    2    0    0  0.69547903648E+02 -0.15834571814E+02 -0.32459051907E+02  0.78366029738E+02  0.00000000000E+00 0. -1.
         11    1    1    2    0    0 -0.17211697662E+02 -0.13625043636E+01  0.23776477138E+02  0.29384006188E+02  0.00000000000E+00 0.  1.
</event>
<event>
 7    1  0.2384639E-009  0.1052452E+03  0.7561462E-02  0.1269637E+00
         -1   -1    0    0    0  501 -0.00000000000E+00  0.00000000000E+00  0.13479478380E+03  0.13479478380E+03  0.00000000000E+00 0. -1.
          1   -1    0    0  501    0  0.00000000000E+00 -0.00000000000E+00 -0.11514463132E+03  0.11514463132E+03  0.00000000000E+00 0.  1.
         25    2    1    2    0    0 -0.75483025125E+01  0.19860009765E+02  0.68129664741E+02  0.14401370120E+03  0.12508756156E+03 0.  0.
          5    1    3    3  502    0  0.50679230751E+02 -0.14425810948E+02  0.52566925905E+02  0.74546915095E+02  0.41800000000E+01 0.  1.
         -5    1    3    3    0  502 -0.58227533264E+02  0.34285820713E+02  0.15562738836E+02  0.69466786107E+02  0.41800000000E+01 0.  1.
        -11    1    1    2    0    0 -0.38131857271E+02  0.40950042149E+01 -0.36561905226E+02  0.52986606913E+02  0.00000000000E+00 0.  1.
         11    1    1    2    0    0  0.45680159783E+02 -0.23955013980E+02 -0.11917607034E+02  0.52939107000E+02  0.00000000000E+00 0. -1.
</event>
<event>
 7    1  0.2384639E-009  0.2004499E+03  0.7561462E-02  0.1149360E+00
         -2   -1    0    0    0  501 -0.00000000000E+00  0.00000000000E+00  0.10516326945E+03  0.10516326945E+03  0.00000000000E+00 0. -1.
          2   -1    0    0  501    0  0.00000000000E+00 -0.00000000000E+00 -0.51018354158E+03  0.51018354158E+03  0.00000000000E+00 0.  1.
         25    2    1    2    0    0  0.19258146017E+03  0.13212739454E+02 -0.29830358112E+03  0.37668731800E+03  0.12508442648E+03 0.  0.
          5    1    3    3  502    0  0.26706784111E+02  0.24711009658E+02 -0.14815371863E+03  0.15261350878E+03  0.41800000000E+01 0. -1.
         -5    1    3    3    0  502  0.16587467606E+03 -0.11498270205E+02 -0.15014986249E+03  0.22407380923E+03  0.41800000000E+01 0. -1.
        -11    1    1    2    0    0 -0.12954412585E+03  0.11911065700E+02 -0.11051186380E+03  0.17069395440E+03  0.00000000000E+00 0.  1.
         11    1    1    2    0    0 -0.63037334323E+02 -0.25123805153E+02  0.37951727843E+01  0.67965538623E+02  0.00000000000E+00 0. -1.
</event>
<event>
 7    1  0.2384639E-009  0.1712339E+03  0.7561462E-02  0.1176567E+00
          1   -1    0    0  501    0  0.00000000000E+00  0.00000000000E+00  0.36076453595E+02  0.36076453595E+02  0.00000000000E+00 0. -1.
         -1   -1    0    0    0  501 -0.00000000000E+00 -0.00000000000E+00 -0.10759406152E+04  0.10759406152E+04  0.00000000000E+00 0.  1.
         25    2    1    2    0    0  0.15874158404E+03  0.40631520598E+02 -0.59363022922E+03  0.62840596043E+03  0.12508953231E+03 0.  0.
          5    1    3    3  502    0  0.29860574188E+02 -0.45516087038E+01 -0.33060501942E+03  0.33200831661E+03  0.41800000000E+01 0. -1.
         -5    1    3    3    0  502  0.12888100985E+03  0.45183129301E+02 -0.26302520980E+03  0.29639764382E+03  0.41800000000E+01 0. -1.
        -11    1    1    2    0    0 -0.32746925451E+02  0.16877100395E+02 -0.39827556408E+02  0.54253404444E+02  0.00000000000E+00 0. -1.
         11    1    1    2    0    0 -0.12599465858E+03 -0.57508620992E+02 -0.40640637598E+03  0.42935770392E+03  0.00000000000E+00 0.  1.
</event>
<event>
 7    1  0.2384639E-009  0.1375246E+03  0.7561462E-02  0.1216699E+00
          2   -1    0    0  501    0  0.00000000000E+00  0.00000000000E+00  0.26578120658E+03  0.26578120658E+03  0.00000000000E+00 0.  1.
         -2   -1    0    0    0  501 -0.00000000000E+00 -0.00000000000E+00 -0.11110740345E+03  0.11110740345E+03  0.00000000000E+00 0. -1.
         25    2    1    2    0    0  0.77234747296E+02 -0.73896953650E+02  0.16879426396E+03  0.23572075298E+03  0.12508718516E+03 0.  0.
          5    1    3    3  502    0  0.11157026014E+03 -0.49777619131E+02  0.12138372089E+03  0.17227075901E+03  0.41800000000E+01 0. -1.
         -5    1    3    3    0  502 -0.34335512844E+02 -0.24119334519E+02  0.47410543068E+02  0.63449993963E+02  0.41800000000E+01 0. -1.
        -11    1    1    2    0    0 -0.16175755126E+02  0.34136724964E+02 -0.47777165396E+02  0.60906720306E+02  0.00000000000E+00 0. -1.
         11    1    1    2    0    0 -0.61058992170E+02  0.39760228686E+02  0.33656704573E+02  0.80261136752E+02  0.00000000000E+00 0.  1.
</event>
<event>
 7    1  0.2384639E-009  0.1641296E+03  0.7561462E-02  0.1184112E+00
          2   -1    0    0  501    0  0.00000000000E+00  0.00000000000E+00  0.58623143688E+03  0.58623143688E+03  0.00000000000E+00 0. -1.
         -2   -1    0    0    0  501 -0.00000000000E+00 -0.00000000000E+00 -0.11527294972E+03  0.11527294972E+03  0.00000000000E+00 0.  1.
         25    2    1    2    0    0 -0.82700149058E+02  0.12950894010E+03  0.15224690636E+00  0.19814052286E+03  0.12509102046E+03 0.  0.
          5    1    3    3  502    0 -0.45640210794E+02  0.12812313208E+03 -0.41454611116E+02  0.14224810368E+03  0.41800000000E+01 0.  1.
         -5    1    3    3    0  502 -0.37059938263E+02  0.13858080192E+01  0.41606858023E+02  0.55892419186E+02  0.41800000000E+01 0.  1.
        -11    1    1    2    0    0  0.25692262511E+02 -0.57828104104E+02  0.80166919417E+02  0.10213186058E+03  0.00000000000E+00 0.  1.
         11    1    1    2    0    0  0.57007886547E+02 -0.71680836000E+02  0.39063932084E+03  0.40123200316E+03  0.00000000000E+00 0. -1.
</event>
<event>
 7    1  0.2384639E-009  0.1025029E+03  0.7561462E-02  0.1275119E+00
          2   -1    0    0  501    0  0.00000000000E+00  0.00000000000E+00  0.17300959855E+03  0.17300959855E+03  0.00000000000E+00 0.  1.
         -2   -1    0    0    0  501 -0.00000000000E+00 -0.00000000000E+00 -0.71061544733E+02  0.71061544733E+02  0.00000000000E+00 0. -1.
         25    2    1    2    0    0 -0.23163750327E+02 -0.13042910984E+02  0.62812474419E+02  0.14247445512E+03  0.12508751561E+03 0.  0.
          5    1    3    3  502    0 -0.60574330641E+02 -0.41467496944E+02  0.14480768445E+02  0.74939761744E+02  0.41800000000E+01 0. -1.
         -5    1    3    3    0  502  0.37410580314E+02  0.28424585960E+02  0.48331705974E+02  0.67534693372E+02  0.41800000000E+01 0. -1.
        -11    1    1    2    0    0 -0.27984545804E+02 -0.78392927468E+01  0.35992269345E+02  0.46260488187E+02  0.00000000000E+00 0.  1.
         11    1    1    2    0    0  0.51148296131E+02  0.20882203731E+02  0.31433100482E+01  0.55336199977E+02  0.00000000000E+00 0. -1.
</event>
<event>
 7    1  0.2384639E-009  0.6924729E+02  0.7561462E-02  0.1362672E+00
         -3   -1    0    0    0  501 -0.00000000000E+00  0.00000000000E+00  0.41177611176E+02  0.41177611176E+02  0.00000000000E+00 0.  1.
          3   -1    0    0  501    0  0.00000000000E+00 -0.00000000000E+00 -0.33930797544E+03  0.33930797544E+03  0.00000000000E+00 0. -1.
         25    2    1    2    0    0  0.15474896212E+02 -0.11725281639E+02 -0.23629982869E+03  0.26806841430E+03  0.12508441576E+03 0.  0.
          5    1    3    3  502    0  0.27779269922E+02  0.89189929089E+00  0.28348722289E+01  0.28248756120E+02  0.41800000000E+01 0. -1.
         -5    1    3    3    0  502 -0.12304373710E+02 -0.12617180930E+02 -0.23913470092E+03  0.23981965818E+03  0.41800000000E+01 0. -1.
        -11    1    1    2    0    0  0.98415199472E+01  0.47466978186E+02 -0.22076330418E+02  0.53266630246E+02  0.00000000000E+00 0. -1.
         11    1    1    2    0    0 -0.25316416159E+02 -0.35741696547E+02 -0.39754205152E+02  0.59150542064E+02  0.00000000000E+00 0.  1.
</event>
<event>
 7    1  0.2384639E-009  0.1220992E+03  0.7561462E-02  0.1239674E+00
          2   -1    0    0  501    0  0.00000000000E+00  0.00000000000E+00  0.20843207941E+03  0.20843207941E+03  0.00000000000E+00 0. -1.
         -2   -1    0    0    0  501 -0.00000000000E+00 -0.00000000000E+00 -0.12886787730E+03  0.12886787730E+03  0.00000000000E+00 0.  1.
         25    2    1    2    0    0  0.10586874738E+03  0.28858301997E+02 -0.13420026074E+02  0.16694249988E+03  0.12509479566E+03 0.  0.
          5    1    3    3  502    0  0.30464184958E+02  0.44902075483E+02 -0.56569188377E+02  0.78497187347E+02  0.41800000000E+01 0.  1.
         -5    1    3    3    0  502  0.75404562423E+02 -0.16043773486E+02  0.43149162303E+02  0.88445312534E+02  0.41800000000E+01 0.  1.
        -11    1    1    2    0    0 -0.40711879922E+02 -0.23938931900E+02 -0.10111399208E+02  0.48298757968E+02  0.00000000000E+00 0.  1.
         11    1    1    2    0    0 -0.65156867459E+02 -0.49193700970E+01  0.10309562739E+03  0.12205869886E+03  0.00000000000E+00 0. -1.
</event>
<event>
 7    1  0.2384639E-009  0.9725474E+02  0.7561462E-02  0.1286177E+00
          2   -1    0    0  501    0  0.00000000000E+00  0.00000000000E+00  0.13667832844E+03  0.13667832844E+03  0.00000000000E+00 0. -1.
         -2   -1    0    0    0  501 -0.00000000000E+00 -0.00000000000E+00 -0.10096600251E+03  0.10096600251E+03  0.00000000000E+00 0.  1.
         25    2    1    2    0    0  0.61843406774E+01 -0.40631727175E+02  0.25338259052E+02  0.13408168577E+03  0.12508672097E+03 0.  0.
          5    1    3    3  502    0  0.60247969616E+02 -0.45479803806E+02  0.43252500121E+01  0.75725891112E+02  0.41800000000E+01 0.  1.
         -5    1    3    3    0  502 -0.54063628938E+02  0.48480766313E+01  0.21013009040E+02  0.58355794656E+02  0.41800000000E+01 0.  1.
        -11    1    1    2    0    0  0.94652895941E+01 -0.86110646973E+01 -0.33447958628E+02  0.35812121952E+02  0.00000000000E+00 0.  1.
         11    1    1    2    0    0 -0.15649630271E+02  0.49242791872E+02  0.43822025499E+02  0.67750523229E+02  0.00000000000E+00 0. -1.
</event>
<event>
 7    1  0.2384639E-009  0.8905300E+02  0.7561462E-02  0.1305161E+00
          1   -1    0    0  501    0  0.00000000000E+00  0.00000000000E+00  0.49959572776E+02  0.49959572776E+02  0.00000000000E+00 0. -1.
         -1   -1    0    0    0  501 -0.00000000000E+00 -0.00000000000E+00 -0.48139339600E+03  0.48139339600E+03  0.00000000000E+00 0.  1.
         25    2    1    2    0    0 -0.78236366626E+02 -0.13880114259E+01 -0.36057911979E+03  0.38960213675E+03  0.12509863188E+03 0.  0.
          5    1    3    3  502    0 -0.10962569217E+02 -0.22448712306E+02 -0.34563960495E+01  0.25564461303E+02  0.41800000000E+01 0.  1.
         -5    1    3    3    0  502 -0.67273797409E+02  0.21060700880E+02 -0.35712272374E+03  0.36403767545E+03  0.41800000000E+01 0.  1.
        -11    1    1    2    0    0  0.57113837514E+02 -0.10274684101E+02 -0.92592463418E+02  0.10927453432E+03  0.00000000000E+00 0.  1.
         11    1    1    2    0    0  0.21122529112E+02  0.11662695527E+02  0.21737759984E+02  0.32476297698E+02  0.00000000000E+00 0. -1.
</event>
<event>
 7    1  0.2384639E-009  0.1267934E+03  0.7561462E-02  0.1232293E+00
         -2   -1    0    0    0  501 -0.00000000000E+00  0.00000000000E+00  0.53933952997E+02  0.53933952997E+02  0.00000000000E+00 0.  1.
          2   -1    0    0  501    0  0.00000000000E+00 -0.00000000000E+00 -0.47457100087E+03  0.47457100087E+03  0.00000000000E+00 0. -1.
         25    2    1    2    0    0  0.10200032719E+03 -0.34553107160E+02 -0.30282707583E+03  0.34488652961E+03  0.12507796165E+03 0.  0.
          5    1    3    3  502    0  0.21014617390E+02  0.58151938878E+01  0.60411799280E+01  0.23008669647E+02  0.41800000000E+01 0.  1.
         -5    1    3    3    0  502  0.80985709797E+02 -0.40368301048E+02 -0.30886825576E+03  0.32187785997E+03  0.41800000000E+01 0.  1.
        -11    1    1    2    0    0  0.16529586486E+02  0.11266261645E+02 -0.15186553907E+02  0.25115479299E+02  0.00000000000E+00 0.  1.
         11    1    1    2    0    0 -0.11852991367E+03  0.23286845514E+02 -0.10262341813E+03  0.15850294495E+03  0.00000000000E+00 0. -1.
</event>
<event>
 7    1  0.2384639E-009  0.1869523E+03  0.7561462E-02  0.1161239E+00
         -2   -1    0    0    0  501 -0.00000000000E+00  0.00000000000E+00  0.27496273723E+03  0.27496273723E+03  0.00000000000E+00 0.  1.
          2   -1    0    0  501    0  0.00000000000E+00 -0.00000000000E+00 -0.16761271162E+03  0.16761271162E+03  0.00000000000E+00 0. -1.
         25    2    1    2    0    0  0.63425430544E+02 -0.16102219983E+03 -0.12215532589E+02  0.21389237493E+03  0.12509913963E+03 0.  0.
          5    1    3    3  502    0  0.78399581655E+02 -0.67046753702E+02  0.33086408969E+02  0.10841560978E+03  0.41800000000E+01 0.  1.
         -5    1    3    3    0  502 -0.14974151110E+02 -0.93975446130E+02 -0.45301941558E+02  0.10547676515E+03  0.41800000000E+01 0.  1.
        -11    1    1    2    0    0 -0.30669542017E+02  0.11433050935E+03  0.29361261857E+02  0.12195970594E+03  0.00000000000E+00 0. -1.
         11    1    1    2    0    0 -0.32755888527E+02  0.46691690481E+02  0.90204296344E+02  0.10672336798E+03  0.00000000000E+00 0.  1.
</event>
<event>
 7    1  0.2384639E-009  0.9624831E+02  0.7561462E-02  0.1288389E+00
          1   -1    0    0  501    0  0.00000000000E+00  0.00000000000E+00  0.47173539330E+03  0.47173539330E+03  0.00000000000E+00 0. -1.
         -1   -1    0    0    0  501 -0.00000000000E+00 -0.00000000000E+00 -0.51530153172E+02  0.51530153172E+02  0.00000000000E+00 0.  1.
         25    2    1    2    0    0  0.60994299206E+02  0.71748923062E+02  0.12353578816E+03  0.19944087110E+03  0.12508939849E+03 0.  0.
          5    1    3    3  502    0  0.32914889945E+02  0.19213650628E+02 -0.20528587440E+02  0.43490799634E+02  0.41800000000E+01 0. -1.
         -5    1    3    3    0  502  0.28079409262E+02  0.52535272434E+02  0.14406437560E+03  0.15595007147E+03  0.41800000000E+01 0. -1.
        -11    1    1    2    0    0 -0.13695296783E+02 -0.11787810790E+02  0.61684673817E+00  0.18080213967E+02  0.00000000000E+00 0.  1.
         11    1    1    2    0    0 -0.47299002424E+02 -0.59961112272E+02  0.29605260523E+03  0.30574446140E+03  0.00000000000E+00 0. -1.
</event>
<event>
 7    1  0.2384639E-009  0.1096239E+03  0.7561462E-02  0.1261268E+00
         -1   -1    0    0    0  501 -0.00000000000E+00  0.00000000000E+00  0.66082483716E+02  0.66082483716E+02  0.00000000000E+00 0.  1.
          1   -1    0    0  501    0  0.00000000000E+00 -0.00000000000E+00 -0.18993328260E+03  0.18993328260E+03  0.00000000000E+00 0. -1.
         25    2    1    2    0    0 -0.29050898462E+02  0.17198493437E+01 -0.63537535535E+02  0.14328779335E+03  0.12508981061E+03 0.  0.
          5    1    3    3  502    0 -0.68917707486E+02  0.30288639919E+02 -0.55009496924E+02  0.93330430541E+02  0.41800000000E+01 0.  1.
         -5    1    3    3    0  502  0.39866809024E+02 -0.28568790575E+02 -0.85280386110E+01  0.49957362813E+02  0.41800000000E+01 0.  1.
        -11    1    1    2    0    0 -0.85764575876E+01  0.38562890053E+02 -0.31516686440E+02  0.50536656381E+02  0.00000000000E+00 0.  1.
         11    1    1    2    0    0  0.37627356049E+02 -0.40282739396E+02 -0.28796576912E+02  0.62191316583E+02  0.00000000000E+00 0. -1.
</event>
<event>
 7    1  0.2384639E-009  0.9348495E+02  0.7561462E-02  0.1294625E+00
          1   -1    0    0  501    0  0.00000000000E+00  0.00000000000E+00  0.69364657585E+03  0.69364657585E+03  0.00000000000E+00 0. -1.
         -1   -1    0    0    0  501 -0.00000000000E+00 -0.00000000000E+00 -0.17663655897E+02  0.17663655897E+02  0.00000000000E+00 0.  1.
         25    2    1    2    0    0  0.25646610545E+02  0.80002925587E+01  0.44130966003E+03  0.45948214200E+03  0.12509144442E+03 0.  0.
          5    1    3    3  502    0 -0.21377647124E+02 -0.28752182884E+02  0.33937530736E+03  0.34128692249E+03  0.41800000000E+01 0. -1.
         -5    1    3    3    0  502  0.47024257670E+02  0.36752475443E+02  0.10193435267E+03  0.11819521951E+03  0.41800000000E+01 0. -1.
        -11    1    1    2    0    0 -0.22728064407E+02 -0.46870146423E+02  0.12426616473E+03  0.13474218061E+03  0.00000000000E+00 0.  1.
         11    1    1    2    0    0 -0.29185461381E+01  0.38869853864E+02  0.11040709520E+03  0.11708590915E+03  0.00000000000E+00 0. -1.
</event>
<event>
 7    1  0.2384639E-009  0.2314684E+03  0.7561462E-02  0.1125610E+00
         -1   -1    0    0    0  501 -0.00000000000E+00  0.00000000000E+00  0.47407071821E+03  0.47407071821E+03  0.00000000000E+00 0.  1.
          1   -1    0    0  501    0  0.00000000000E+00 -0.00000000000E+00 -0.15729550234E+03  0.15729550234E+03  0.00000000000E+00 0. -1.
         25    2    1    2    0    0  0.17176444534E+02 -0.22194526403E+03  0.30018669858E+02  0.25710602034E+03  0.12509058590E+03 0.  0.
          5    1    3    3  502    0 -0.25929394767E+01  0.47389125101E+01 -0.22523647561E+02  0.23536518994E+02  0.41800000000E+01 0.  1.
         -5    1    3    3    0  502  0.19769384011E+02 -0.22668417654E+03  0.52542317419E+02  0.23356950134E+03  0.41800000000E+01 0.  1.
        -11    1    1    2    0    0 -0.35569266128E+02  0.13140773658E+03  0.11081237137E+03  0.17553503233E+03  0.00000000000E+00 0.  1.
         11    1    1    2    0    0  0.18392821593E+02  0.90537527448E+02  0.17594417464E+03  0.19872516789E+03  0.00000000000E+00 0. -1.
</event>
<event>
 7    1  0.2384639E-009  0.1057218E+03  0.7561462E-02  0.1268704E+00
          2   -1    0    0  501    0  0.00000000000E+00  0.00000000000E+00  0.81008888177E+03  0.81008888177E+03  0.00000000000E+00 0. -1.
         -2   -1    0    0    0  501 -0.00000000000E+00 -0.00000000000E+00 -0.23860140406E+02  0.23860140406E+02  0.00000000000E+00 0.  1.
         25    2    1    2    0    0 -0.47825351058E+02 -0.44685009439E+02  0.59347317994E+03  0.61003336516E+03  0.12508507912E+03 0.  0.
          5    1    3    3  502    0 -0.37692828261E+02  0.12816059054E+02  0.48605884392E+03  0.48770449334E+03  0.41800000000E+01 0. -1.
         -5    1    3    3    0  502 -0.10132522797E+02 -0.57501068493E+02  0.10741433603E+03  0.12232887182E+03  0.41800000000E+01 0. -1.
        -11    1    1    2    0    0 -0.10290583596E+02 -0.22080201316E+02  0.29978619711E+02  0.38628345042E+02  0.00000000000E+00 0.  1.
         11    1    1    2    0    0  0.58115934654E+02  0.66765210755E+02  0.16277694171E+03  0.18528731198E+03  0.00000000000E+00 0. -1.
</event>
<event>
 7    1  0.2384639E-009  0.7377764E+02  0.7561462E-02  0.1347699E+00
          2   -1    0    0  501    0  0.00000000000E+00  0.00000000000E+00  0.20593541894E+03  0.20593541894E+03  0.00000000000E+00 0.  1.
         -2   -1    0    0    0  501 -0.00000000000E+00 -0.00000000000E+00 -0.61688628390E+02  0.61688628390E+02  0.00000000000E+00 0. -1.
         25    2    1    2    0    0 -0.20342478283E+02  0.22021978380E+02  0.88018765202E+02  0.15586750500E+03  0.12509433294E+03 0.  0.
          5    1    3    3  502    0  0.24379296886E+02 -0.40238232442E+00 -0.23154900030E+02  0.33884123474E+02  0.41800000000E+01 0.  1.
         -5    1    3    3    0  502 -0.44721775169E+02  0.22424360705E+02  0.11117366523E+03  0.12198338153E+03  0.41800000000E+01 0.  1.
        -11    1    1    2    0    0 -0.22123390822E+02 -0.20436941702E+02  0.61944438612E+02  0.68878345527E+02  0.00000000000E+00 0.  1.
         11    1    1    2    0    0  0.42465869105E+02 -0.15850366785E+01 -0.57164132681E+01  0.42878196800E+02  0.00000000000E+00 0. -1.
</event>
<event>
 7    1  0.2384639E-009  0.1266565E+03  0.7561462E-02  0.1232503E+00
          1   -1    0    0  501    0  0.00000000000E+00  0.00000000000E+00  0.33169542437E+03  0.33169542437E+03  0.00000000000E+00 0. -1.
         -1   -1    0    0    0  501 -0.00000000000E+00 -0.00000000000E+00 -0.73440864302E+02  0.73440864302E+02  0.00000000000E+00 0.  1.
         25    2    1    2    0    0 -0.37390425365E+02  0.99975371571E+02  0.99847599535E+02  0.19237772234E+03  0.12508607472E+03 0.  0.
          5    1    3    3  502    0  0.28125994704E+02  0.17922452098E+02  0.78158182835E+02  0.85079138521E+02  0.41800000000E+01 0. -1.
         -5    1    3    3    0  502 -0.65516420069E+02  0.82052919473E+02  0.21689416699E+02  0.10729858382E+03  0.41800000000E+01 0. -1.
        -11    1    1    2    0    0  0.14401077742E+02 -0.26865356440E+01 -0.94179694050E+01  0.17415701583E+02  0.00000000000E+00 0.  1.
         11    1    1    2    0    0  0.22989347623E+02 -0.97288835927E+02  0.16782492994E+03  0.19534286475E+03  0.00000000000E+00 0. -1.
</event>
<event>
 7    1  0.2384639E-009  0.1506620E+03  0.7561462E-02  0.1199662E+00
         -4   -1    0    0    0  501 -0.00000000000E+00  0.00000000000E+00  0.30750037680E+03  0.30750037680E+03  0.00000000000E+00 0.  1.
          4   -1    0    0  501    0  0.00000000000E+00 -0.00000000000E+00 -0.94547359668E+02  0.94547359668E+02  0.00000000000E+00 0. -1.
         25    2    1    2    0    0  0.26667288515E+01 -0.11997667761E+03  0.17576035423E+03  0.24686318427E+03  0.12509282560E+03 0.  0.
          5    1    3    3  502    0  0.48820542680E+02 -0.74577543354E+02  0.42901986922E+02  0.99011657102E+02  0.41800000000E+01 0. -1.
         -5    1    3    3    0  502 -0.46153813829E+02 -0.45399134252E+02  0.13285836731E+03  0.14785152717E+03  0.41800000000E+01 0. -1.
        -11    1    1    2    0    0  0.47696405266E+01 -0.13094620964E+02 -0.58692306214E+01  0.15121720704E+02  0.00000000000E+00 0. -1.
         11    1    1    2    0    0 -0.74363693781E+01  0.13307129857E+03  0.43061893525E+02  0.14006283150E+03  0.00000000000E+00 0.  1.
</event>
<event>
 7    1  0.2384639E-009  0.1285012E+03  0.7561462E-02  0.1229697E+00
          4   -1    0    0  501    0  0.00000000000E+00  0.00000000000E+00  0.11359156177E+03  0.11359156177E+03  0.00000000000E+00 0. -1.
         -4   -1    0    0    0  501 -0.00000000000E+00 -0.00000000000E+00 -0.19678483786E+03  0.19678483786E+03  0.00000000000E+00 0.  1.
         25    2    1    2    0    0 -0.29652262933E+01  0.10179847685E+03 -0.63239848697E+02  0.17325691246E+03  0.12508779636E+03 0.  0.
          5    1    3    3  502    0  0.47478908037E+02  0.31862109574E+02  0.12191693401E+02  0.58613569444E+02  0.41800000000E+01 0. -1.
         -5    1    3    3    0  502 -0.50444134331E+02  0.69936367271E+02 -0.75431542097E+02  0.11464334302E+03  0.41800000000E+01 0. -1.
        -11    1    1    2    0    0  0.16419969402E+02 -0.74415052095E+01 -0.36193255650E+02  0.40434430248E+02  0.00000000000E+00 0.  1.
         11    1    1    2    0    0 -0.13454743108E+02 -0.94356971636E+02  0.16239828259E+02  0.96685056913E+02  0.00000000000E+00 0. -1.
</event>
<event>
 7    1  0.2384639E-009  0.2050523E+03  0.7561462E-02  0.1145545E+00
          1   -1    0    0  501    0  0.00000000000E+00  0.00000000000E+00  0.48265936119E+03  0.48265936119E+03  0.00000000000E+00 0. -1.
         -1   -1    0    0    0  501 -0.00000000000E+00 -0.00000000000E+00 -0.10416585535E+03  0.10416585535E+03  0.00000000000E+00 0.  1.
         25    2    1    2    0    0 -0.12986550549E+03 -0.13130578569E+03  0.99643304547E+02  0.24429890315E+03  0.12508759757E+03 0.  0.
          5    1    3    3  502    0 -0.10031234907E+03 -0.16714335556E+02  0.65591513118E+02  0.12108532274E+03  0.41800000000E+01 0. -1.
         -5    1    3    3    0  502 -0.29553156421E+02 -0.11459145013E+03  0.34051791428E+02  0.12321358041E+03  0.41800000000E+01 0. -1.
        -11    1    1    2    0    0  0.11358575588E+03  0.13132123899E+03  0.27589097564E+03  0.32597978801E+03  0.00000000000E+00 0. -1.
         11    1    1    2    0    0  0.16279749607E+02 -0.15453299848E-01  0.29592256524E+01  0.16546525392E+02  0.00000000000E+00 0.  1.
</event>
<event>
 7    1  0.2384639E-009  0.1083716E+03  0.7561462E-02  0.1263615E+00
         -4   -1    0    0    0  501 -0.00000000000E+00  0.00000000000E+00  0.31779265405E+03  0.31779265405E+03  0.00000000000E+00 0.  1.
          4   -1    0    0  501    0  0.00000000000E+00 -0.00000000000E+00 -0.77347778810E+02  0.77347778810E+02  0.00000000000E+00 0. -1.
         25    2    1    2    0    0 -0.82173130929E+02  0.26814712981E+02  0.36207289105E+02  0.15629984554E+03  0.12508885502E+03 0.  0.
          5    1    3    3  502    0  0.15304742362E+02  0.22568274754E+02 -0.28092546138E+02  0.39372905820E+02  0.41800000000E+01 0. -1.
         -5    1    3    3    0  502 -0.97477873291E+02  0.42464382268E+01  0.64299835243E+02  0.11692693972E+03  0.41800000000E+01 0. -1.
        -11    1    1    2    0    0  0.26046207309E+02  0.56568234444E+01  0.23055824231E+01  0.26752948940E+02  0.00000000000E+00 0. -1.
         11    1    1    2    0    0  0.56126923620E+02 -0.32471536426E+02  0.20193200371E+03  0.21208763838E+03  0.00000000000E+00 0.  1.
</event>
<event>
 7    1  0.2384639E-009  0.1031389E+03  0.7561462E-02  0.1273830E+00
         -2   -1    0    0    0  501 -0.00000000000E+00  0.00000000000E+00  0.88433262084E+02  0.88433262084E+02  0.00000000000E+00 0.  1.
          2   -1    0    0  501    0  0.00000000000E+00 -0.00000000000E+00 -0.49562777814E+03  0.49562777814E+03  0.00000000000E+00 0. -1.
         25    2    1    2    0    0 -0.47033329494E+02  0.31551649710E+02 -0.44991892414E+03  0.47040464281E+03  0.12508336817E+03 0.  0.
          5    1    3    3  502    0 -0.68324412161E+02 -0.26404388041E+02 -0.20309056464E+03  0.21593671955E+03  0.41800000000E+01 0. -1.
         -5    1    3    3    0  502  0.21291082667E+02  0.57956037751E+02 -0.24682835950E+03  0.25446792326E+03  0.41800000000E+01 0. -1.
        -11    1    1    2    0    0  0.24432774675E+02  0.77979620743E+01 -0.22555215314E+02  0.34154156829E+02  0.00000000000E+00 0. -1.
         11    1    1    2    0    0  0.22600554820E+02 -0.39349611784E+02  0.65279623404E+02  0.79502240582E+02  0.00000000000E+00 0.  1.
</event>
<event>
 7    1  0.2384639E-009  0.1043800E+03  0.7561462E-02  0.1271346E+00
          2   -1    0    0  501    0  0.00000000000E+00  0.00000000000E+00  0.54481260184E+02  0.54481260184E+02  0.00000000000E+00 0. -1.
         -2   -1    0    0    0  501 -0.00000000000E+00 -0.00000000000E+00 -0.26373370296E+03  0.26373370296E+03  0.00000000000E+00 0.  1.
         25    2    1    2    0    0  0.16203222291E+02 -0.46990199141E+02 -0.13782929192E+03  0.19265358621E+03  0.12509143592E+03 0.  0.
          5    1    3    3  502    0 -0.37688630950E+01  0.28745643661E+02  0.49896026275E+01  0.29713379022E+02  0.41800000000E+01 0.  1.
         -5    1    3    3    0  502  0.19972085386E+02 -0.75735842801E+02 -0.14281889455E+03  0.16294020719E+03  0.41800000000E+01 0.  1.
        -11    1    1    2    0    0  0.27776450169E+02  0.49736197029E+02 -0.52969383542E+02  0.77788020104E+02  0.00000000000E+00 0.  1.
         11    1    1    2    0    0 -0.43979672461E+02 -0.27459978888E+01 -0.18453767309E+02  0.47773356822E+02  0.00000000000E+00 0. -1.
</event>
<event>
 7    1  0.2384639E-009  0.2326968E+03  0.7561462E-02  0.1124756E+00
         -1   -1    0    0    0  501 -0.00000000000E+00  0.00000000000E+00  0.35109068073E+03  0.35109068073E+03  0.00000000000E+00 0.  1.
          1   -1    0    0  501    0  0.00000000000E+00 -0.00000000000E+00 -0.21363870053E+03  0.21363870053E+03  0.00000000000E+00 0. -1.
         25    2    1    2    0    0  0.21785603245E+03 -0.53880423333E+02 -0.45703218234E+02  0.26095618513E+03  0.12507995646E+03 0.  0.
          5    1    3    3  502    0  0.11137171111E+03  0.16783091082E+02  0.24133697885E+02  0.11526160659E+03  0.41800000000E+01 0.  1.
         -5    1    3    3    0  502  0.10648432135E+03 -0.70663514415E+02 -0.69836916119E+02  0.14569457854E+03  0.41800000000E+01 0.  1.
        -11    1    1    2    0    0 -0.16717952634E+03  0.35448177828E+02  0.82914119803E+02  0.18994819979E+03  0.00000000000E+00 0. -1.
         11    1    1    2    0    0 -0.50676506110E+02  0.18432245505E+02  0.10024107863E+03  0.11382499634E+03  0.00000000000E+00 0.  1.
</event>
<event>
 7    1  0.2384639E-009  0.1150013E+03  0.7561462E-02  0.1251579E+00
         -1   -1    0    0    0  501 -0.00000000000E+00  0.00000000000E+00  0.27143999216E+02  0.27143999216E+02  0.00000000000E+00 0.  1.
          1   -1    0    0  501    0  0.00000000000E+00 -0.00000000000E+00 -0.71380390043E+03  0.71380390043E+03  0.00000000000E+00 0. -1.
         25    2    1    2    0    0 -0.61438629055E+02  0.20851540955E+02 -0.21233557592E+03  0.25484027129E+03  0.12509066779E+03 0.  0.
          5    1    3    3  502    0 -0.76556976626E+02 -0.21675801687E+02 -0.72080292948E+02  0.10744231978E+03  0.41800000000E+01 0. -1.
         -5    1    3    3    0  502  0.15118347571E+02  0.42527342641E+02 -0.14025528298E+03  0.14739795151E+03  0.41800000000E+01 0. -1.
        -11    1    1    2    0    0  0.11570835831E+02  0.30981589247E+02 -0.11530074137E+03  0.11995000656E+03  0.00000000000E+00 0.  1.
         11    1    1    2    0    0  0.49867793223E+02 -0.51833130202E+02 -0.35902358392E+03  0.36615762179E+03  0.00000000000E+00 0. -1.
</event>
<event>
 7    1  0.2384639E-009  0.3686154E+03  0.7561462E-02  0.1055224E+00
          2   -1    0    0  501    0  0.00000000000E+00  0.00000000000E+00  0.58511344512E+03  0.58511344512E+03  0.00000000000E+00 0. -1.
         -2   -1    0    0    0  501 -0.00000000000E+00 -0.00000000000E+00 -0.40701599446E+03  0.40701599446E+03  0.00000000000E+00 0.  1.
         25    2    1    2    0    0 -0.44315545594E+02 -0.35549017136E+03 -0.22769090898E+03  0.44252448152E+03  0.12509051602E+03 0.  0.
          5    1    3    3  502    0  0.31063656185E+02 -0.25374884700E+02 -0.31392098586E+02  0.51105496404E+02  0.41800000000E+01 0.  1.
         -5    1    3    3    0  502 -0.75379201779E+02 -0.33011528666E+03 -0.19629881039E+03  0.39141898511E+03  0.41800000000E+01 0.  1.
        -11    1    1    2    0    0  0.14657219489E+02  0.13369331544E+03  0.87223983814E+02  0.16030208991E+03  0.00000000000E+00 0.  1.
         11    1    1    2    0    0  0.29658326105E+02  0.22179685592E+03  0.31856437583E+03  0.38930286815E+03  0.00000000000E+00 0. -1.
</event>
<event>
 7    1  0.2384639E-009  0.1048034E+03  0.7561462E-02  0.1270507E+00
          2   -1    0    0  501    0  0.00000000000E+00  0.00000000000E+00  0.14239777536E+04  0.14239777536E+04  0.00000000000E+00 0. -1.
         -2   -1    0    0    0  501 -0.00000000000E+00 -0.00000000000E+00 -0.14626815893E+02  0.14626815893E+02  0.00000000000E+00 0.  1.
         25    2    1    2    0    0 -0.22723380255E+02 -0.81078853882E+02  0.98168846473E+03  0.99320208434E+03  0.12509199017E+03 0.  0.
          5    1    3    3  502    0 -0.37225602360E+01 -0.32523154994E+02  0.86140628736E+03  0.86203821108E+03  0.41800000000E+01 0.  1.
         -5    1    3    3    0  502 -0.19000820019E+02 -0.48555698888E+02  0.12028217737E+03  0.13116387326E+03  0.41800000000E+01 0.  1.
        -11    1    1    2    0    0  0.42341427211E+02  0.92405367363E+02  0.34081736717E+03  0.35565155158E+03  0.00000000000E+00 0.  1.
         11    1    1    2    0    0 -0.19618046956E+02 -0.11326513481E+02  0.86845105815E+02  0.89750933577E+02  0.00000000000E+00 0. -1.
</event>
<event>
 7    1  0.2384639E-009  0.4989008E+02  0.7561462E-02  0.1445935E+00
         -2   -1    0    0    0  501 -0.00000000000E+00  0.00000000000E+00  0.14679440733E+03  0.14679440733E+03  0.00000000000E+00 0. -1.
          2   -1    0    0  501    0  0.00000000000E+00 -0.00000000000E+00 -0.83039265923E+02  0.83039265923E+02  0.00000000000E+00 0.  1.
         25    2    1    2    0    0  0.10048984183E+02  0.73506939998E+01  0.25247729305E+02  0.12821608142E+03  0.12508757298E+03 0.  0.
          5    1    3    3  502    0  0.28302418833E+02 -0.44755368820E+01 -0.45583178907E+02  0.54003295654E+02  0.41800000000E+01 0.  1.
         -5    1    3    3    0  502 -0.18253434650E+02  0.11826230882E+02  0.70830908212E+02  0.74212785769E+02  0.41800000000E+01 0.  1.
        -11    1    1    2    0    0  0.73377893736E+01 -0.23699308071E+02  0.62824479499E+02  0.67545655525E+02  0.00000000000E+00 0. -1.
         11    1    1    2    0    0 -0.17386773556E+02  0.16348614071E+02 -0.24317067398E+02  0.34071936305E+02  0.00000000000E+00 0.  1.
</event>
<event>
 7    1  0.2384639E-009  0.5456129E+02  0.7561462E-02  0.1422185E+00
          2   -1    0    0  501    0  0.00000000000E+00  0.00000000000E+00  0.16820298364E+03  0.16820298364E+03  0.00000000000E+00 0.  1.
         -2   -1    0    0    0  501 -0.00000000000E+00 -0.00000000000E+00 -0.11063380749E+03  0.11063380749E+03  0.00000000000E+00 0. -1.
         25    2    1    2    0    0  0.24916736328E+02  0.57766935833E+01  0.11563294349E+03  0.17226106415E+03  0.12509469479E+03 0.  0.
          5    1    3    3  502    0 -0.28390275157E+01 -0.82526894372E+01  0.13502610454E+03  0.13537240586E+03  0.41800000000E+01 0. -1.
         -5    1    3    3    0  502  0.27755763844E+02  0.14029383021E+02 -0.19393161057E+02  0.36888658287E+02  0.41800000000E+01 0. -1.
        -11    1    1    2    0    0 -0.46111370629E+02 -0.49257693631E-01 -0.68254742066E+02  0.82370933843E+02  0.00000000000E+00 0. -1.
         11    1    1    2    0    0  0.21194634301E+02 -0.57274358897E+01  0.10190974730E+02  0.24204793141E+02  0.00000000000E+00 0.  1.
</event>
<event>
 7    1  0.2384639E-009  0.2386899E+03  0.7561462E-02  0.1120669E+00
         -1   -1    0    0    0  501 -0.00000000000E+00  0.00000000000E+00  0.78342118068E+03  0.78342118068E+03  0.00000000000E+00 0.  1.
          1   -1    0    0  501    0  0.00000000000E+00 -0.00000000000E+00 -0.78194604562E+02  0.78194604562E+02  0.00000000000E+00 0. -1.
         25    2    1    2    0    0  0.21322241546E+03  0.22395163338E+02  0.25951451506E+03  0.35911125594E+03  0.12509104212E+03 0.  0.
          5    1    3    3  502    0  0.19942271524E+03  0.58930290326E+02  0.20608436576E+03  0.29279760361E+03  0.41800000000E+01 0. -1.
         -5    1    3    3    0  502  0.13799700218E+02 -0.36535126988E+02  0.53430149304E+02  0.66313652326E+02  0.41800000000E+01 0. -1.
        -11    1    1    2    0    0 -0.23029518963E+02 -0.32291690024E+02  0.54577464287E+02  0.67467114924E+02  0.00000000000E+00 0. -1.
         11    1    1    2    0    0 -0.19019289650E+03  0.98965266858E+01  0.39113459677E+03  0.43503741437E+03  0.00000000000E+00 0.  1.
</event>
<event>
 7    1  0.2384639E-009  0.6860328E+02  0.7561462E-02  0.1364908E+00
          2   -1    0    0  501    0  0.00000000000E+00  0.00000000000E+00  0.29842085301E+03  0.29842085301E+03  0.00000000000E+00 0. -1.
         -2   -1    0    0    0  501 -0.00000000000E+00 -0.00000000000E+00 -0.45943257936E+02  0.45943257936E+02  0.00000000000E+00 0.  1.
         25    2    1    2    0    0  0.16836707586E+02  0.23655433143E+02  0.99096277959E+02  0.16220914493E+03  0.12509468475E+03 0.  0.
          5    1    3    3  502    0  0.28154300511E+02  0.29817071717E+02  0.12573713812E+03  0.13232166378E+03  0.41800000000E+01 0. -1.
         -5    1    3    3    0  502 -0.11317592925E+02 -0.61616385744E+01 -0.26640860157E+02  0.29887481149E+02  0.41800000000E+01 0. -1.
        -11    1    1    2    0    0  0.25389720649E+02 -0.30473792313E+02  0.25121333807E+02  0.46950733166E+02  0.00000000000E+00 0.  1.
         11    1    1    2    0    0 -0.42226428235E+02  0.68183591708E+01  0.12825998331E+03  0.13520423285E+03  0.00000000000E+00 0. -1.
</event>
<event>
 7    1  0.2384639E-009  0.1856897E+03  0.7561462E-02  0.1162407E+00
          1   -1    0    0  501    0  0.00000000000E+00  0.00000000000E+00  0.34000949866E+03  0.34000949866E+03  0.00000000000E+00 0. -1.
         -1   -1    0    0    0  501 -0.00000000000E+00 -0.00000000000E+00 -0.31119350892E+03  0.31119350892E+03  0.00000000000E+00 0.  1.
         25    2    1    2    0    0 -0.12823072567E+03  0.96256700241E+02 -0.24650733758E+03  0.31956532825E+03  0.12509060793E+03 0.  0.
          5    1    3    3  502    0 -0.49616136463E+02  0.10244460422E+03 -0.93434177802E+02  0.14732303253E+03  0.41800000000E+01 0. -1.
         -5    1    3    3    0  502 -0.78614589211E+02 -0.61879039813E+01 -0.15307315977E+03  0.17224229572E+03  0.41800000000E+01 0. -1.
        -11    1    1    2    0    0  0.71981299407E+02 -0.98752444761E+02  0.14470988926E+03  0.18940513420E+03  0.00000000000E+00 0.  1.
         11    1    1    2    0    0  0.56249426267E+02  0.24957445207E+01  0.13061343806E+03  0.14223254514E+03  0.00000000000E+00 0. -1.
</event>
<event>
 7    1  0.2384639E-009  0.1030338E+03  0.7561462E-02  0.1274043E+00
         -1   -1    0    0    0  501 -0.00000000000E+00  0.00000000000E+00  0.62148929732E+02  0.62148929732E+02  0.00000000000E+00 0.  1.
          1   -1    0    0  501    0  0.00000000000E+00 -0.00000000000E+00 -0.23865625474E+03  0.23865625474E+03  0.00000000000E+00 0. -1.
         25    2    1    2    0    0 -0.11975777083E+02  0.52153319110E+02 -0.10879944368E+03  0.17420794372E+03  0.12509077015E+03 0.  0.
          5    1    3    3  502    0  0.42394241358E+02 -0.44620649210E+00 -0.84517163679E+02  0.94647208923E+02  0.41800000000E+01 0.  1.
         -5    1    3    3    0  502 -0.54370018441E+02  0.52599525602E+02 -0.24282280004E+02  0.79560734794E+02  0.41800000000E+01 0.  1.
        -11    1    1    2    0    0  0.23903725623E+02 -0.65544683549E+02 -0.15600670675E+02  0.71490380931E+02  0.00000000000E+00 0.  1.
         11    1    1    2    0    0 -0.11927948541E+02  0.13391364439E+02 -0.52107210653E+02  0.55106859827E+02  0.00000000000E+00 0. -1.
</event>
<event>
 7    1  0.2384639E-009  0.1455898E+03  0.7561462E-02  0.1205999E+00
          1   -1    0    0  501    0  0.00000000000E+00  0.00000000000E+00  0.44222900968E+03  0.44222900968E+03  0.00000000000E+00 0. -1.
         -1   -1    0    0    0  501 -0.00000000000E+00 -0.00000000000E+00 -0.62994710472E+02  0.62994710472E+02  0.00000000000E+00 0.  1.
         25    2    1    2    0    0 -0.10037819185E+03  0.65497852583E+02  0.14329995390E+03  0.22482804625E+03  0.12508806299E+03 0.  0.
          5    1    3    3  502    0 -0.77466356639E+02  0.33999435205E+01  0.13156804807E+02  0.78760205305E+02  0.41800000000E+01 0.  1.
         -5    1    3    3    0  502 -0.22911835209E+02  0.62097909062E+02  0.13014314910E+03  0.14606784095E+03  0.41800000000E+01 0.  1.
        -11    1    1    2    0    0  0.22914801525E+02 -0.65868004727E+02  0.78964677438E+02  0.10535227790E+03  0.00000000000E+00 0.  1.
         11    1    1    2    0    0  0.77463390323E+02  0.37015214401E+00  0.15696966787E+03  0.17504339600E+03  0.00000000000E+00 0. -1.
</event>
<event>
 7    1  0.2384639E-009  0.1125813E+03  0.7561462E-02  0.1255863E+00
          2   -1    0    0  501    0  0.00000000000E+00  0.00000000000E+00  0.76669152139E+03  0.76669152139E+03  0.00000000000E+00 0. -1.
         -2   -1    0    0    0  501 -0.00000000000E+00 -0.00000000000E+00 -0.24647060817E+02  0.24647060817E+02  0.00000000000E+00 0.  1.
         25    2    1    2    0    0 -0.42112807567E+02  0.60312896773E+02  0.29011530108E+03  0.32438495748E+03  0.12509028198E+03 0.  0.
          5    1    3    3  502    0 -0.96714396670E+01  0.73008473914E+02  0.27743996918E+03  0.28707870508E+03  0.41800000000E+01 0. -1.
         -5    1    3    3    0  502 -0.32441367900E+02 -0.12695577140E+02  0.12675331894E+02  0.37306252408E+02  0.41800000000E+01 0. -1.
        -11    1    1    2    0    0  0.64094387154E+02 -0.14819722215E+02  0.22219285084E+03  0.23172694620E+03  0.00000000000E+00 0.  1.
         11    1    1    2    0    0 -0.21981579587E+02 -0.45493174559E+02  0.22973630866E+03  0.23522667852E+03  0.00000000000E+00 0. -1.
</event>
<event>
 7    1  0.2384639E-009  0.1043211E+03  0.7561462E-02  0.1271463E+00
          1   -1    0    0  501    0  0.00000000000E+00  0.00000000000E+00  0.11981822783E+03  0.11981822783E+03  0.00000000000E+00 0.  1.
         -1   -1    0    0    0  501 -0.00000000000E+00 -0.00000000000E+00 -0.16634135600E+03  0.16634135600E+03  0.00000000000E+00 0. -1.
         25    2    1    2    0    0 -0.53854434237E+02  0.40693335580E+02 -0.85386591894E+02  0.16581419762E+03  0.12508889003E+03 0.  0.
          5    1    3    3  502    0 -0.64494082806E+02 -0.26802110900E+02 -0.61966890721E+02  0.93462333650E+02  0.41800000000E+01 0.  1.
         -5    1    3    3    0  502  0.10639648569E+02  0.67495446480E+02 -0.23419701173E+02  0.72351863972E+02  0.41800000000E+01 0.  1.
        -11    1    1    2    0    0  0.40045411603E+02 -0.39676622365E+02 -0.20045878300E+02  0.59830649249E+02  0.00000000000E+00 0. -1.
         11    1    1    2    0    0  0.13809022634E+02 -0.10167132156E+01  0.58909342023E+02  0.60514736961E+02  0.00000000000E+00 0.  1.
</event>
<event>
 7    1  0.2384639E-009  0.1019405E+03  0.7561462E-02  0.1276268E+00
         -1   -1    0    0    0  501 -0.00000000000E+00  0.00000000000E+00  0.70951913913E+03  0.70951913913E+03  0.00000000000E+00 0.  1.
          1   -1    0    0  501    0  0.00000000000E+00 -0.00000000000E+00 -0.26653148423E+02  0.26653148423E+02  0.00000000000E+00 0. -1.
         25    2    1    2    0    0 -0.84746224796E+02  0.14599813780E+02  0.33670348446E+03  0.36933986517E+03  0.12509045677E+03 0.  0.
          5    1    3    3  502    0  0.37823922666E+01 -0.43593148310E+01  0.22668760651E+03  0.22679958877E+03  0.41800000000E+01 0.  1.
         -5    1    3    3    0  502 -0.88528617062E+02  0.18959128611E+02  0.11001587794E+03  0.14254027640E+03  0.41800000000E+01 0.  1.
        -11    1    1    2    0    0  0.18520114958E+02  0.23342619904E+02  0.32822266579E+02  0.44330280231E+02  0.00000000000E+00 0. -1.
         11    1    1    2    0    0  0.66226109837E+02 -0.37942433684E+02  0.31334023967E+03  0.32250214216E+03  0.00000000000E+00 0.  1.
</event>
<event>
 7    1  0.2384639E-009  0.1068962E+03  0.7561462E-02  0.1266428E+00
          4   -1    0    0  501    0  0.00000000000E+00  0.00000000000E+00  0.26131016615E+02  0.26131016615E+02  0.00000000000E+00 0. -1.
         -4   -1    0    0    0  501 -0.00000000000E+00 -0.00000000000E+00 -0.53466634653E+03  0.53466634653E+03  0.00000000000E+00 0.  1.
         25    2    1    2    0    0 -0.24577607929E+02  0.69249814114E+01 -0.19688911914E+03  0.23465614285E+03  0.12508463520E+03 0.  0.
          5    1    3    3  502    0 -0.52481576193E+02 -0.43468220050E+02 -0.87790728717E+02  0.11121369719E+03  0.41800000000E+01 0. -1.
         -5    1    3    3    0  502  0.27903968264E+02  0.50393201461E+02 -0.10909839042E+03  0.12344244566E+03  0.41800000000E+01 0. -1.
        -11    1    1    2    0    0  0.35245391904E+02  0.31877144252E+02 -0.10018191568E+03  0.11088194716E+03  0.00000000000E+00 0. -1.
         11    1    1    2    0    0 -0.10667783975E+02 -0.38802125663E+02 -0.21146429510E+03  0.21525927314E+03  0.00000000000E+00 0.  1.
</event>
<event>
 7    1  0.2384639E-009  0.2285999E+03  0.7561462E-02  0.1127629E+00
         -1   -1    0    0    0  501 -0.00000000000E+00  0.00000000000E+00  0.39883240496E+03  0.39883240496E+03  0.00000000000E+00 0.  1.
          1   -1    0    0  501    0  0.00000000000E+00 -0.00000000000E+00 -0.15609170739E+03  0.15609170739E+03  0.00000000000E+00 0. -1.
         25    2    1    2    0    0 -0.10923344302E+03 -0.18860975000E+03  0.18676673935E+03  0.31310322315E+03  0.12508489337E+03 0.  0.
          5    1    3    3  502    0 -0.55400422286E+02 -0.17113387428E+03  0.18235805010E+03  0.25617950845E+03  0.41800000000E+01 0. -1.
         -5    1    3    3    0  502 -0.53833020734E+02 -0.17475875728E+02  0.44086892436E+01  0.56923714695E+02  0.41800000000E+01 0. -1.
        -11    1    1    2    0    0  0.72952547151E+02  0.92601340664E+02  0.71714965489E+02  0.13798593662E+03  0.00000000000E+00 0.  1.
         11    1    1    2    0    0  0.36280895869E+02  0.96008409341E+02 -0.15741007267E+02  0.10383495259E+03  0.00000000000E+00 0. -1.
</event>
<event>
 7    1  0.2384639E-009  0.1405997E+03  0.7561462E-02  0.1212524E+00
          2   -1    0    0  501    0  0.00000000000E+00  0.00000000000E+00  0.19621355250E+02  0.19621355250E+02  0.00000000000E+00 0.  1.
         -2   -1    0    0    0  501 -0.00000000000E+00 -0.00000000000E+00 -0.10152498078E+04  0.10152498078E+04  0.00000000000E+00 0. -1.
         25    2    1    2    0    0 -0.75768210531E+02 -0.47551013505E+02 -0.57988173558E+03  0.59992634106E+03  0.12508743673E+03 0.  0.
          5    1    3    3  502    0  0.18074867644E+02  0.27751984810E+02 -0.12361461932E+03  0.12804264919E+03  0.41800000000E+01 0.  1.
         -5    1    3    3    0  502 -0.93843078175E+02 -0.75302998314E+02 -0.45626711626E+03  0.47188369187E+03  0.41800000000E+01 0.  1.
        -11    1    1    2    0    0  0.86159126788E+02  0.79985151123E+01 -0.29735882567E+03  0.30969281971E+03  0.00000000000E+00 0. -1.
         11    1    1    2    0    0 -0.10390916257E+02  0.39552498393E+02 -0.11838789132E+03  0.12525200231E+03  0.00000000000E+00 0.  1.
</event>
<event>
 7    1  0.2384639E-009  0.1437843E+03  0.7561462E-02  0.1208326E+00
         -4   -1    0    0    0  501 -0.00000000000E+00  0.00000000000E+00  0.46586666797E+03  0.46586666797E+03  0.00000000000E+00 0.  1.
          4   -1    0    0  501    0  0.00000000000E+00 -0.00000000000E+00 -0.12969382644E+03  0.12969382644E+03  0.00000000000E+00 0. -1.
         25    2    1    2    0    0 -0.55644822569E+02  0.10424381058E+03 -0.92053869902E+01  0.17232721503E+03  0.12509521001E+03 0.  0.
          5    1    3    3  502    0 -0.87103478772E+02  0.61831448871E+02 -0.36214714498E+02  0.11286771917E+03  0.41800000000E+01 0. -1.
         -5    1    3    3    0  502  0.31458656203E+02  0.42412361713E+02  0.27009327508E+02  0.59459495865E+02  0.41800000000E+01 0. -1.
        -11    1    1    2    0    0 -0.38206830802E+01 -0.39902986342E+02 -0.21880847440E+02  0.45668560552E+02  0.00000000000E+00 0. -1.
         11    1    1    2    0    0  0.59465505650E+02 -0.64340824241E+02  0.36725907596E+03  0.37756471883E+03  0.00000000000E+00 0.  1.
</event>
<event>
 7    1  0.2384639E-009  0.1054432E+03  0.7561462E-02  0.1269249E+00
         -2   -1    0    0    0  501 -0.00000000000E+00  0.00000000000E+00  0.48387004982E+02  0.48387004982E+02  0.00000000000E+00 0. -1.
          2   -1    0    0  501    0  0.00000000000E+00 -0.00000000000E+00 -0.40830016254E+03  0.40830016254E+03  0.00000000000E+00 0.  1.
         25    2    1    2    0    0  0.26055068180E+02  0.53110245522E+02 -0.89413525442E+02  0.16474555937E+03  0.12508699390E+03 0.  0.
          5    1    3    3  502    0 -0.27353081832E+02 -0.32362328744E+01 -0.82048206818E+02  0.86648975360E+02  0.41800000000E+01 0.  1.
         -5    1    3    3    0  502  0.53408150011E+02  0.56346478397E+02 -0.73653186238E+01  0.78096584008E+02  0.41800000000E+01 0.  1.
        -11    1    1    2    0    0 -0.30513842122E+01 -0.74085239378E+02 -0.14782780969E+03  0.16538136218E+03  0.00000000000E+00 0. -1.
         11    1    1    2    0    0 -0.23003683967E+02  0.20974993856E+02 -0.12267182242E+03  0.12656024597E+03  0.00000000000E+00 0.  1.
</event>
<event>
 7    1  0.2384639E-009  0.1160550E+03  0.7561462E-02  0.1249751E+00
          2   -1    0    0  501    0  0.00000000000E+00  0.00000000000E+00  0.37524636505E+03  0.37524636505E+03  0.00000000000E+00 0. -1.
         -2   -1    0    0    0  501 -0.00000000000E+00 -0.00000000000E+00 -0.48992303486E+02  0.48992303486E+02  0.00000000000E+00 0.  1.
         25    2    1    2    0    0 -0.47029885296E+02  0.99674859199E+01  0.27965006846E+03  0.31010212714E+03  0.12509199648E+03 0.  0.
          5    1    3    3  502    0 -0.88477234338E+02  0.16799097683E+02  0.21183448827E+03  0.23022109699E+03  0.41800000000E+01 0. -1.
         -5    1    3    3    0  502  0.41447349042E+02 -0.68316117631E+01  0.67815580194E+02  0.79881030157E+02  0.41800000000E+01 0. -1.
        -11    1    1    2    0    0  0.23269256041E+01  0.35735128927E+02  0.13982057365E+01  0.35838094278E+02  0.00000000000E+00 0.  1.
         11    1    1    2    0    0  0.44702959692E+02 -0.45702614847E+02  0.45205787372E+02  0.78298447118E+02  0.00000000000E+00 0. -1.
</event>
<event>
 7    1  0.2514042E-009  0.7151553E+02  0.7561462E-02  0.1355014E+00
         -2   -1    0    0    0  501 -0.00000000000E+00  0.00000000000E+00  0.23340121551E+02  0.23340121551E+02  0.00000000000E+00 0. -1.
          2   -1    0    0  501    0  0.00000000000E+00 -0.00000000000E+00 -0.63983867742E+03  0.63983867742E+03  0.00000000000E+00 0.  1.
         25    2    1    2    0    0  0.38830405026E+02  0.36593049758E+02 -0.30015272439E+03  0.32952424271E+03  0.12509083473E+03 0.  0.
          5    1    3    3  502    0  0.25977082630E+02  0.29896862127E+02 -0.30931994383E+03  0.31187326150E+03  0.41800000000E+01 0. -1.
         -5    1    3    3    0  502  0.12853322396E+02  0.66961876312E+01  0.91672194437E+01  0.17650981212E+02  0.41800000000E+01 0. -1.
        -11    1    1    2    0    0 -0.16185551211E+01 -0.48900346585E+02 -0.26269252226E+03  0.26721007629E+03  0.00000000000E+00 0.  1.
         11    1    1    2    0    0 -0.37211849905E+02  0.12307296826E+02 -0.53653309214E+02  0.66444479967E+02  0.00000000000E+00 0. -1.
</event>
<event>
 7    1  0.2384639E-009  0.1683579E+03  0.7561462E-02  0.1179571E+00
          1   -1    0    0  501    0  0.00000000000E+00  0.00000000000E+00  0.13928032986E+03  0.13928032986E+03  0.00000000000E+00 0. -1.
         -1   -1    0    0    0  501 -0.00000000000E+00 -0.00000000000E+00 -0.27616842233E+03  0.27616842233E+03  0.00000000000E+00 0.  1.
         25    2    1    2    0    0 -0.74336131978E+02  0.14505206812E+03 -0.47942577663E+02  0.21098790306E+03  0.12510572129E+03 0.  0.
          5    1    3    3  502    0 -0.31320316218E+02  0.45573954944E+02 -0.80493662486E+02  0.97747888354E+02  0.41800000000E+01 0. -1.
         -5    1    3    3    0  502 -0.43015815760E+02  0.99478113180E+02  0.32551084823E+02  0.11324001471E+03  0.41800000000E+01 0. -1.
        -11    1    1    2    0    0  0.31967390706E+02 -0.11864057567E+03 -0.28631546697E+02  0.12616364662E+03  0.00000000000E+00 0. -1.
         11    1    1    2    0    0  0.42368741272E+02 -0.26411492457E+02 -0.60313968110E+02  0.78297202504E+02  0.00000000000E+00 0.  1.
</event>
<event>
 7    1  0.2384639E-009  0.1140876E+03  0.7561462E-02  0.1253182E+00
          2   -1    0    0  501    0  0.00000000000E+00  0.00000000000E+00  0.15913668025E+03  0.15913668025E+03  0.00000000000E+00 0. -1.
         -2   -1    0    0    0  501 -0.00000000000E+00 -0.00000000000E+00 -0.13596323820E+03  0.13596323820E+03  0.00000000000E+00 0.  1.
         25    2    1    2    0    0 -0.48317735571E+02 -0.60845046947E+02  0.74369024986E+02  0.16498115380E+03  0.12510517944E+03 0.  0.
          5    1    3    3  502    0 -0.69582593177E+02 -0.22096453954E+02  0.91729323932E+02  0.11731040798E+03  0.41800000000E+01 0. -1.
         -5    1    3    3    0  502  0.21264857606E+02 -0.38748592992E+02 -0.17360298947E+02  0.47670745824E+02  0.41800000000E+01 0. -1.
        -11    1    1    2    0    0  0.13189595914E+02  0.72461793325E+02 -0.93204919185E+01  0.74239804026E+02  0.00000000000E+00 0. -1.
         11    1    1    2    0    0  0.35128139657E+02 -0.11616746379E+02 -0.41875091015E+02  0.55878960618E+02  0.00000000000E+00 0.  1.
</event>
<event>
 7    1  0.2384639E-009  0.1113471E+03  0.7561462E-02  0.1258095E+00
         -2   -1    0    0    0  501 -0.00000000000E+00  0.00000000000E+00  0.44310778269E+02  0.44310778269E+02  0.00000000000E+00 0.  1.
          2   -1    0    0  501    0  0.00000000000E+00 -0.00000000000E+00 -0.37005672549E+03  0.37005672549E+03  0.00000000000E+00 0. -1.
         25    2    1    2    0    0 -0.19610225999E+02 -0.46208716718E+02 -0.24964758155E+03  0.28370924262E+03  0.12508882008E+03 0.  0.
          5    1    3    3  502    0 -0.10838292953E+02 -0.89544645131E+02 -0.16274994888E+03  0.18612020397E+03  0.41800000000E+01 0. -1.
         -5    1    3    3    0  502 -0.87719330456E+01  0.43335928413E+02 -0.86897632674E+02  0.97589038652E+02  0.41800000000E+01 0. -1.
        -11    1    1    2    0    0 -0.24897827774E+02  0.15643128998E+01  0.74124620830E+01  0.26024863051E+02  0.00000000000E+00 0.  1.
         11    1    1    2    0    0  0.44508053773E+02  0.44644403819E+02 -0.83510827749E+02  0.10463339808E+03  0.00000000000E+00 0. -1.
</event>
<event>
 7    1  0.2544824E-009  0.5352069E+02  0.7561462E-02  0.1427227E+00
         -1   -1    0    0    0  501 -0.00000000000E+00  0.00000000000E+00  0.16167373996E+03  0.16167373996E+03  0.00000000000E+00 0.  1.
          1   -1    0    0  501    0  0.00000000000E+00 -0.00000000000E+00 -0.78063608522E+02  0.78063608522E+02  0.00000000000E+00 0. -1.
         25    2    1    2    0    0 -0.55282950097E+01 -0.55971868358E+01  0.76876080560E+02  0.14703684703E+03  0.12509201444E+03 0.  0.
          5    1    3    3  502    0 -0.85407885267E+01  0.12617582639E+02 -0.32445862316E+02  0.36088153759E+02  0.41800000000E+01 0. -1.
         -5    1    3    3    0  502  0.30124935170E+01 -0.18214769475E+02  0.10932194288E+03  0.11094869327E+03  0.41800000000E+01 0. -1.
        -11    1    1    2    0    0  0.24771361058E+02  0.31481600573E+02  0.32367654232E+02  0.51501228566E+02  0.00000000000E+00 0.  1.
         11    1    1    2    0    0 -0.19243066049E+02 -0.25884413737E+02 -0.25633603354E+02  0.41199272887E+02  0.00000000000E+00 0. -1.
</event>
<event>
 7    1  0.2384639E-009  0.1722559E+03  0.7561462E-02  0.1175516E+00
         -3   -1    0    0    0  501 -0.00000000000E+00  0.00000000000E+00  0.27194621865E+03  0.27194621865E+03  0.00000000000E+00 0.  1.
          3   -1    0    0  501    0  0.00000000000E+00 -0.00000000000E+00 -0.12449159194E+03  0.12449159194E+03  0.00000000000E+00 0. -1.
         25    2    1    2    0    0 -0.91403512989E+02 -0.11497268510E+03  0.90249802002E+02  0.21299055083E+03  0.12508647999E+03 0.  0.
          5    1    3    3  502    0  0.11827325313E+02  0.17039493588E+02 -0.26683758812E+01  0.21326570179E+02  0.41800000000E+01 0.  1.
         -5    1    3    3    0  502 -0.10323083830E+03 -0.13201217869E+03  0.92918177883E+02  0.19166398065E+03  0.41800000000E+01 0.  1.
        -11    1    1    2    0    0  0.38401274392E+01  0.40748738843E+02  0.55100700384E+02  0.68638862744E+02  0.00000000000E+00 0.  1.
         11    1    1    2    0    0  0.87563385549E+02  0.74223946258E+02  0.21041243231E+01  0.11480839702E+03  0.00000000000E+00 0. -1.
</event>
<event>
 7    1  0.2384639E-009  0.1899918E+03  0.7561462E-02  0.1158469E+00
          1   -1    0    0  501    0  0.00000000000E+00  0.00000000000E+00  0.89931494850E+03  0.89931494850E+03  0.00000000000E+00 0. -1.
         -1   -1    0    0    0  501 -0.00000000000E+00 -0.00000000000E+00 -0.54188578616E+02  0.54188578616E+02  0.00000000000E+00 0.  1.
         25    2    1    2    0    0  0.37601089566E+02  0.16924344701E+03  0.63502679409E+03  0.67004718488E+03  0.12508802684E+03 0.  0.
          5    1    3    3  502    0 -0.34450092570E+02  0.32026325346E+02  0.25971000705E+03  0.26396828324E+03  0.41800000000E+01 0. -1.
         -5    1    3    3    0  502  0.72051182137E+02  0.13721712166E+03  0.37531678704E+03  0.40607890164E+03  0.41800000000E+01 0. -1.
        -11    1    1    2    0    0 -0.82965117824E+00 -0.93698614429E+02  0.59476121564E+02  0.11098435792E+03  0.00000000000E+00 0.  1.
         11    1    1    2    0    0 -0.36771438388E+02 -0.75544832576E+02  0.15062345423E+03  0.17247198432E+03  0.00000000000E+00 0. -1.
</event>
<event>
 7    1  0.2384639E-009  0.1213921E+03  0.7561462E-02  0.1240818E+00
          2   -1    0    0  501    0  0.00000000000E+00  0.00000000000E+00  0.52467684230E+03  0.52467684230E+03  0.00000000000E+00 0. -1.
         -2   -1    0    0    0  501 -0.00000000000E+00 -0.00000000000E+00 -0.38727680483E+02  0.38727680483E+02  0.00000000000E+00 0.  1.
         25    2    1    2    0    0  0.73338827603E+02  0.26528798692E+02  0.17225745310E+03  0.22673163817E+03  0.12510893174E+03 0.  0.
          5    1    3    3  502    0  0.82610980269E+02 -0.11776067402E+02  0.48110996508E+02  0.96412603997E+02  0.41800000000E+01 0.  1.
         -5    1    3    3    0  502 -0.92721526656E+01  0.38304866094E+02  0.12414645660E+03  0.13031903417E+03  0.41800000000E+01 0.  1.
        -11    1    1    2    0    0 -0.42561550942E+02  0.32150954360E+02  0.10594490787E+03  0.11861489362E+03  0.00000000000E+00 0.  1.
         11    1    1    2    0    0 -0.30777276661E+02 -0.58679753052E+02  0.20774680085E+03  0.21805799100E+03  0.00000000000E+00 0. -1.
</event>
<event>
 7    1  0.2384639E-009  0.1071466E+03  0.7561462E-02  0.1265947E+00
         -2   -1    0    0    0  501 -0.00000000000E+00  0.00000000000E+00  0.69167214806E+03  0.69167214806E+03  0.00000000000E+00 0.  1.
          2   -1    0    0  501    0  0.00000000000E+00 -0.00000000000E+00 -0.24813135779E+02  0.24813135779E+02  0.00000000000E+00 0. -1.
         25    2    1    2    0    0 -0.43767670688E+02 -0.57062260381E+02  0.41429345541E+03  0.43870042846E+03  0.12508912093E+03 0.  0.
          5    1    3    3  502    0 -0.15056368063E+02 -0.90435095442E+02  0.20230345231E+03  0.22214715826E+03  0.41800000000E+01 0. -1.
         -5    1    3    3    0  502 -0.28711302625E+02  0.33372835061E+02  0.21199000310E+03  0.21655327020E+03  0.41800000000E+01 0. -1.
        -11    1    1    2    0    0  0.17436026860E+02  0.46961427916E+02  0.24283935689E+03  0.24795230187E+03  0.00000000000E+00 0.  1.
         11    1    1    2    0    0  0.26331643828E+02  0.10100832464E+02  0.97261999754E+01  0.29832553513E+02  0.00000000000E+00 0. -1.
</event>
<event>
 7    1  0.2384639E-009  0.1165971E+03  0.7561462E-02  0.1248819E+00
         -1   -1    0    0    0  501 -0.00000000000E+00  0.00000000000E+00  0.18810725213E+03  0.18810725213E+03  0.00000000000E+00 0.  1.
          1   -1    0    0  501    0  0.00000000000E+00 -0.00000000000E+00 -0.91937102763E+02  0.91937102763E+02  0.00000000000E+00 0. -1.
         25    2    1    2    0    0 -0.45621884614E+02 -0.23913443429E+02  0.11235611691E+03  0.17585274543E+03  0.12508829656E+03 0.  0.
          5    1    3    3  502    0 -0.82949670969E+02  0.59415634597E+01  0.49829364700E+02  0.97038075397E+02  0.41800000000E+01 0. -1.
         -5    1    3    3    0  502  0.37327786355E+02 -0.29855006889E+02  0.62526752212E+02  0.78814670034E+02  0.41800000000E+01 0. -1.
        -11    1    1    2    0    0  0.69897001337E+02  0.31281422345E+02 -0.58582647526E+01  0.76801285443E+02  0.00000000000E+00 0.  1.
         11    1    1    2    0    0 -0.24275116722E+02 -0.73679789154E+01 -0.10327702788E+02  0.27390324023E+02  0.00000000000E+00 0. -1.
</event>
<event>
 7    1  0.2384639E-009  0.8436766E+02  0.7561462E-02  0.1317095E+00
         -2   -1    0    0    0  501 -0.00000000000E+00  0.00000000000E+00  0.17787565244E+03  0.17787565244E+03  0.00000000000E+00 0.  1.
          2   -1    0    0  501    0  0.00000000000E+00 -0.00000000000E+00 -0.91206811739E+02  0.91206811739E+02  0.00000000000E+00 0. -1.
         25    2    1    2    0    0 -0.42916934554E+02 -0.23409922940E+02  0.84773090566E+02  0.15882286530E+03  0.12509331674E+03 0.  0.
          5    1    3    3  502    0 -0.35344259426E+01 -0.40354280784E+02  0.10397117592E+03  0.11166215996E+03  0.41800000000E+01 0. -1.
         -5    1    3    3    0  502 -0.39382508611E+02  0.16944357844E+02 -0.19198085351E+02  0.47160705343E+02  0.41800000000E+01 0. -1.
        -11    1    1    2    0    0 -0.66040730640E+01  0.33712979795E+02 -0.33923107544E+02  0.48279975281E+02  0.00000000000E+00 0. -1.
         11    1    1    2    0    0  0.49521007618E+02 -0.10303056854E+02  0.35818857679E+02  0.61979623599E+02  0.00000000000E+00 0.  1.
</event>
<event>
 7    1  0.2384639E-009  0.1784161E+03  0.7561462E-02  0.1169345E+00
          2   -1    0    0  501    0  0.00000000000E+00  0.00000000000E+00  0.70426256072E+03  0.70426256072E+03  0.00000000000E+00 0. -1.
         -2   -1    0    0    0  501 -0.00000000000E+00 -0.00000000000E+00 -0.62035373265E+02  0.62035373265E+02  0.00000000000E+00 0.  1.
         25    2    1    2    0    0 -0.14336934056E+03 -0.84975415844E+02  0.45227317067E+03  0.49797054092E+03  0.12509216446E+03 0.  0.
          5    1    3    3  502    0 -0.13144385573E+03 -0.77126077306E+02  0.23458109156E+03  0.27977076318E+03  0.41800000000E+01 0. -1.
         -5    1    3    3    0  502 -0.11925484834E+02 -0.78493385388E+01  0.21769207910E+03  0.21819977775E+03  0.41800000000E+01 0. -1.
        -11    1    1    2    0    0  0.76702671709E+02  0.94981169609E+02  0.12051962610E+03  0.17155087497E+03  0.00000000000E+00 0. -1.
         11    1    1    2    0    0  0.66666668852E+02 -0.10005753764E+02  0.69434390692E+02  0.96776518097E+02  0.00000000000E+00 0.  1.
</event>
<event>
 7    1  0.2384639E-009  0.1853999E+03  0.7561462E-02  0.1162677E+00
          1   -1    0    0  501    0  0.00000000000E+00  0.00000000000E+00  0.11968187681E+04  0.11968187681E+04  0.00000000000E+00 0. -1.
         -1   -1    0    0    0  501 -0.00000000000E+00 -0.00000000000E+00 -0.37296531855E+02  0.37296531855E+02  0.00000000000E+00 0.  1.
         25    2    1    2    0    0  0.67457456215E+02  0.14891629556E+03  0.37589058587E+03  0.42856433845E+03  0.12508832145E+03 0.  0.
          5    1    3    3  502    0  0.74523847807E+02  0.43016859098E+02  0.24673310156E+03  0.26134067778E+03  0.41800000000E+01 0.  1.
         -5    1    3    3    0  502 -0.70663915918E+01  0.10589943646E+03  0.12915748431E+03  0.16722366066E+03  0.41800000000E+01 0.  1.
        -11    1    1    2    0    0 -0.68777598851E+02 -0.65404778590E+02  0.29678410932E+03  0.31159099908E+03  0.00000000000E+00 0. -1.
         11    1    1    2    0    0  0.13201426361E+01 -0.83511516968E+02  0.48684754107E+03  0.49395996243E+03  0.00000000000E+00 0.  1.
</event>
<event>
 7    1  0.2384639E-009  0.8096295E+02  0.7561462E-02  0.1326341E+00
         -2   -1    0    0    0  501 -0.00000000000E+00  0.00000000000E+00  0.12726671929E+03  0.12726671929E+03  0.00000000000E+00 0.  1.
          2   -1    0    0  501    0  0.00000000000E+00 -0.00000000000E+00 -0.12060969815E+03  0.12060969815E+03  0.00000000000E+00 0. -1.
         25    2    1    2    0    0  0.14398860131E+02 -0.33267740392E+02  0.51839600623E+02  0.14018436115E+03  0.12510092404E+03 0.  0.
          5    1    3    3  502    0  0.11336854785E+02  0.26825705069E+02  0.71035271693E+02  0.76887092241E+02  0.41800000000E+01 0.  1.
         -5    1    3    3    0  502  0.30620053464E+01 -0.60093445460E+02 -0.19195671070E+02  0.63297268913E+02  0.41800000000E+01 0.  1.
        -11    1    1    2    0    0 -0.36777278552E+02  0.33588848678E+02  0.75782225804E+01  0.50380635473E+02  0.00000000000E+00 0.  1.
         11    1    1    2    0    0  0.22378418421E+02 -0.32110828607E+00 -0.52760802057E+02  0.57311420810E+02  0.00000000000E+00 0. -1.
</event>
<event>
 7    1  0.2384639E-009  0.1408878E+03  0.7561462E-02  0.1212139E+00
         -2   -1    0    0    0  501 -0.00000000000E+00  0.00000000000E+00  0.61051870481E+02  0.61051870481E+02  0.00000000000E+00 0.  1.
          2   -1    0    0  501    0  0.00000000000E+00 -0.00000000000E+00 -0.41063457421E+03  0.41063457421E+03  0.00000000000E+00 0. -1.
         25    2    1    2    0    0 -0.52835339303E+01  0.10926629536E+03 -0.23059506262E+03  0.28423244327E+03  0.12508780865E+03 0.  0.
          5    1    3    3  502    0 -0.47961860726E+02  0.54747603396E+02 -0.19082409529E+03  0.20427664552E+03  0.41800000000E+01 0.  1.
         -5    1    3    3    0  502  0.42678326795E+02  0.54518691966E+02 -0.39770967325E+02  0.79955797749E+02  0.41800000000E+01 0.  1.
        -11    1    1    2    0    0  0.42389075950E+02 -0.29830902684E+02 -0.20884787588E+02  0.55882831599E+02  0.00000000000E+00 0.  1.
         11    1    1    2    0    0 -0.37105542020E+02 -0.79435392677E+02 -0.98102853521E+02  0.13157116982E+03  0.00000000000E+00 0. -1.
</event>
<event>
 7    1  0.2384639E-009  0.2541965E+03  0.7561462E-02  0.1110681E+00
          2   -1    0    0  501    0  0.00000000000E+00  0.00000000000E+00  0.13256809770E+04  0.13256809770E+04  0.00000000000E+00 0. -1.
         -2   -1    0    0    0  501 -0.00000000000E+00 -0.00000000000E+00 -0.59822763204E+02  0.59822763204E+02  0.00000000000E+00 0.  1.
         25    2    1    2    0    0  0.11213245323E+03 -0.21555861131E+03  0.86331767887E+03  0.90554067851E+03  0.12508918344E+03 0.  0.
          5    1    3    3  502    0  0.50287679141E+01 -0.12333064109E+03  0.51529139137E+03  0.52988529509E+03  0.41800000000E+01 0.  1.
         -5    1    3    3    0  502  0.10710368532E+03 -0.92227970222E+02  0.34802628751E+03  0.37565538342E+03  0.41800000000E+01 0.  1.
        -11    1    1    2    0    0 -0.11445666996E+02  0.13262151036E+02 -0.90926093513E+00  0.17541798612E+02  0.00000000000E+00 0.  1.
         11    1    1    2    0    0 -0.10068678624E+03  0.20229646028E+03  0.40344979583E+03  0.46242126305E+03  0.00000000000E+00 0. -1.
</event>
<event>
 7    1  0.2384639E-009  0.1153757E+03  0.7561462E-02  0.1250927E+00
         -2   -1    0    0    0  501 -0.00000000000E+00  0.00000000000E+00  0.49352796984E+02  0.49352796984E+02  0.00000000000E+00 0.  1.
          2   -1    0    0  501    0  0.00000000000E+00 -0.00000000000E+00 -0.65983196021E+03  0.65983196021E+03  0.00000000000E+00 0. -1.
         25    2    1    2    0    0  0.10134486231E+03 -0.13476312032E+02 -0.51996843078E+03  0.54448700047E+03  0.12508610064E+03 0.  0.
          5    1    3    3  502    0  0.10775646035E+03 -0.23271378324E+02 -0.52048249790E+03  0.53204559468E+03  0.41800000000E+01 0.  1.
         -5    1    3    3    0  502 -0.64115980406E+01  0.97950662919E+01  0.51406712069E+00  0.12441405793E+02  0.41800000000E+01 0.  1.
        -11    1    1    2    0    0 -0.66293930324E+02  0.25376369656E+02 -0.10347020079E+03  0.12547879417E+03  0.00000000000E+00 0. -1.
         11    1    1    2    0    0 -0.35050931982E+02 -0.11900057624E+02  0.12959468342E+02  0.39218962556E+02  0.00000000000E+00 0.  1.
</event>
<event>
 7    1  0.2872919E-009  0.1428198E+03  0.7561462E-02  0.1209584E+00
         -1   -1    0    0    0  501 -0.00000000000E+00  0.00000000000E+00  0.17040463595E+02  0.17040463595E+02  0.00000000000E+00 0.  1.
          1   -1    0    0  501    0  0.00000000000E+00 -0.00000000000E+00 -0.12527560936E+04  0.12527560936E+04  0.00000000000E+00 0. -1.
         25    2    1    2    0    0 -0.17643829794E+01  0.94475031110E+02 -0.77527813387E+03  0.79096949385E+03  0.12509160960E+03 0.  0.
          5    1    3    3  502    0 -0.26382206242E+02  0.11884116768E+03 -0.61259449191E+03  0.62458684573E+03  0.41800000000E+01 0.  1.
         -5    1    3    3    0  502  0.24617823263E+02 -0.24366136570E+02 -0.16268364196E+03  0.16638264812E+03  0.41800000000E+01 0.  1.
        -11    1    1    2    0    0 -0.42083423691E+02 -0.33228303224E+02 -0.14725595000E+03  0.15671454781E+03  0.00000000000E+00 0.  1.
         11    1    1    2    0    0  0.43847806671E+02 -0.61246727886E+02 -0.31318154617E+03  0.32211251557E+03  0.00000000000E+00 0. -1.
</event>
<event>
 7    1  0.2384639E-009  0.7008647E+02  0.7561462E-02  0.1359799E+00
         -4   -1    0    0    0  501 -0.00000000000E+00  0.00000000000E+00  0.17934335759E+03  0.17934335759E+03  0.00000000000E+00 0. -1.
          4   -1    0    0  501    0  0.00000000000E+00 -0.00000000000E+00 -0.81210810471E+02  0.81210810471E+02  0.00000000000E+00 0.  1.
         25    2    1    2    0    0 -0.17576210614E+02  0.15257409172E+02  0.10694342340E+03  0.16621473147E+03  0.12509488173E+03 0.  0.
          5    1    3    3  502    0 -0.42759747007E+02  0.31208007774E+02  0.12163366381E+03  0.13271984134E+03  0.41800000000E+01 0.  1.
         -5    1    3    3    0  502  0.25183536394E+02 -0.15950598602E+02 -0.14690240417E+02  0.33494890126E+02  0.41800000000E+01 0.  1.
        -11    1    1    2    0    0 -0.16215448312E+02  0.57215281404E+01  0.32639996787E+02  0.36892357453E+02  0.00000000000E+00 0. -1.
         11    1    1    2    0    0  0.33791658925E+02 -0.20978937313E+02 -0.41450873065E+02  0.57447079138E+02  0.00000000000E+00 0.  1.
</event>
<event>
 7    1  0.2384639E-009  0.1496005E+03  0.7561462E-02  0.1200965E+00
          2   -1    0    0  501    0  0.00000000000E+00  0.00000000000E+00  0.61863159815E+03  0.61863159815E+03  0.00000000000E+00 0. -1.
         -2   -1    0    0    0  501 -0.00000000000E+00 -0.00000000000E+00 -0.50073680214E+02  0.50073680214E+02  0.00000000000E+00 0.  1.
         25    2    1    2    0    0  0.22085547633E+02 -0.13335655842E+03  0.24701971877E+03  0.30812062966E+03  0.12509131813E+03 0.  0.
          5    1    3    3  502    0  0.58368780798E+02 -0.77767737985E+02  0.72515750294E+02  0.12137026853E+03  0.41800000000E+01 0. -1.
         -5    1    3    3    0  502 -0.36283233166E+02 -0.55588820430E+02  0.17450396848E+03  0.18675036113E+03  0.41800000000E+01 0. -1.
        -11    1    1    2    0    0 -0.42705962027E+01  0.46597544639E+02  0.29275113958E+02  0.55196027534E+02  0.00000000000E+00 0.  1.
         11    1    1    2    0    0 -0.17814951430E+02  0.86759013776E+02  0.29226308521E+03  0.30538862117E+03  0.00000000000E+00 0. -1.
</event>
<event>
 7    1  0.2384639E-009  0.1087010E+03  0.7561462E-02  0.1262994E+00
          2   -1    0    0  501    0  0.00000000000E+00  0.00000000000E+00  0.27162168009E+02  0.27162168009E+02  0.00000000000E+00 0. -1.
         -2   -1    0    0    0  501 -0.00000000000E+00 -0.00000000000E+00 -0.64848826192E+03  0.64848826192E+03  0.00000000000E+00 0.  1.
         25    2    1    2    0    0  0.38245466188E+02 -0.40699382521E+02 -0.47665549027E+03  0.49595223511E+03  0.12509599388E+03 0.  0.
          5    1    3    3  502    0 -0.45209266131E+02 -0.11506833463E+02 -0.13017666497E+03  0.13834638218E+03  0.41800000000E+01 0. -1.
         -5    1    3    3    0  502  0.83454732319E+02 -0.29192549058E+02 -0.34647882530E+03  0.35760585293E+03  0.41800000000E+01 0. -1.
        -11    1    1    2    0    0  0.13139719154E+02  0.25134227101E+02 -0.11481225110E+03  0.11826341190E+03  0.00000000000E+00 0.  1.
         11    1    1    2    0    0 -0.51385185342E+02  0.15565155420E+02 -0.29858352541E+02  0.61434782919E+02  0.00000000000E+00 0. -1.
</event>
<event>
 7    1  0.2384639E-009  0.1656137E+03  0.7561462E-02  0.1182501E+00
          1   -1    0    0  501    0  0.00000000000E+00  0.00000000000E+00  0.98750977426E+02  0.98750977426E+02  0.00000000000E+00 0. -1.
         -1   -1    0    0    0  501 -0.00000000000E+00 -0.00000000000E+00 -0.36357838593E+03  0.36357838593E+03  0.00000000000E+00 0.  1.
         25    2    1    2    0    0  0.53070981725E+02  0.14049236514E+03 -0.18161672000E+03  0.26680947703E+03  0.12509208723E+03 0.  0.
          5    1    3    3  502    0  0.19742281247E+02  0.14349491289E+03 -0.18255112185E+03  0.23307280447E+03  0.41800000000E+01 0.  1.
         -5    1    3    3    0  502  0.33328700478E+02 -0.30025477585E+01  0.93440185325E+00  0.33736672560E+02  0.41800000000E+01 0.  1.
        -11    1    1    2    0    0 -0.49374724348E+02 -0.96018222640E+02 -0.82545153684E+01  0.10828434563E+03  0.00000000000E+00 0. -1.
         11    1    1    2    0    0 -0.36962573770E+01 -0.44474142496E+02 -0.74956173139E+02  0.87235540699E+02  0.00000000000E+00 0.  1.
</event>
<event>
 7    1  0.2384639E-009  0.1133177E+03  0.7561462E-02  0.1254547E+00
          1   -1    0    0  501    0  0.00000000000E+00  0.00000000000E+00  0.62819106527E+02  0.62819106527E+02  0.00000000000E+00 0. -1.
         -1   -1    0    0    0  501 -0.00000000000E+00 -0.00000000000E+00 -0.24550199412E+03  0.24550199412E+03  0.00000000000E+00 0.  1.
         25    2    1    2    0    0 -0.52832265437E+02  0.18350622996E+02 -0.70619204338E+02  0.15414905749E+03  0.12508743449E+03 0.  0.
          5    1    3    3  502    0 -0.40881394105E+02  0.69529799174E+02 -0.25327771618E+02  0.84644254219E+02  0.41800000000E+01 0.  1.
         -5    1    3    3    0  502 -0.11950871333E+02 -0.51179176178E+02 -0.45291432720E+02  0.69504803271E+02  0.41800000000E+01 0.  1.
        -11    1    1    2    0    0  0.56033315822E+02 -0.41531386733E+02 -0.44654736235E+02  0.82816870468E+02  0.00000000000E+00 0. -1.
         11    1    1    2    0    0 -0.32010503847E+01  0.23180763738E+02 -0.67408947018E+02  0.71355172687E+02  0.00000000000E+00 0.  1.
</event>
<event>
 7    1  0.2384639E-009  0.1186624E+03  0.7561462E-02  0.1245320E+00
          1   -1    0    0  501    0  0.00000000000E+00  0.00000000000E+00  0.14687952666E+03  0.14687952666E+03  0.00000000000E+00 0. -1.
         -1   -1    0    0    0  501 -0.00000000000E+00 -0.00000000000E+00 -0.14411665928E+03  0.14411665928E+03  0.00000000000E+00 0.  1.
         25    2    1    2    0    0  0.79788657624E+02 -0.25977131075E+02 -0.46765075688E+02  0.15771855100E+03  0.12508847988E+03 0.  0.
          5    1    3    3  502    0 -0.13765784597E+02 -0.42574723381E+02 -0.43516167588E+02  0.62555840160E+02  0.41800000000E+01 0.  1.
         -5    1    3    3    0  502  0.93554442221E+02  0.16597592306E+02 -0.32489080998E+01  0.95162710836E+02  0.41800000000E+01 0.  1.
        -11    1    1    2    0    0 -0.74023647128E+02  0.35359656598E+01  0.70309138686E+02  0.10215369974E+03  0.00000000000E+00 0. -1.
         11    1    1    2    0    0 -0.57650104969E+01  0.22441165415E+02 -0.20781195619E+02  0.31123935203E+02  0.00000000000E+00 0.  1.
</event>
<event>
 7    1  0.2384639E-009  0.1170710E+03  0.7561462E-02  0.1248009E+00
          1   -1    0    0  501    0  0.00000000000E+00  0.00000000000E+00  0.20021034214E+03  0.20021034214E+03  0.00000000000E+00 0. -1.
         -1   -1    0    0    0  501 -0.00000000000E+00 -0.00000000000E+00 -0.11835717797E+03  0.11835717797E+03  0.00000000000E+00 0.  1.
         25    2    1    2    0    0  0.89385545039E+02  0.25219726075E+02  0.10373397245E+03  0.18717393545E+03  0.12509010683E+03 0.  0.
          5    1    3    3  502    0  0.10418100482E+03  0.17794873322E+02  0.12247158414E+03  0.16182428929E+03  0.41800000000E+01 0.  1.
         -5    1    3    3    0  502 -0.14795459782E+02  0.74248527529E+01 -0.18737611693E+02  0.25349646162E+02  0.41800000000E+01 0.  1.
        -11    1    1    2    0    0 -0.75850654697E+02  0.71732011303E+01  0.17974921121E+02  0.78280741065E+02  0.00000000000E+00 0. -1.
         11    1    1    2    0    0 -0.13534890342E+02 -0.32392927206E+02 -0.39855729388E+02  0.53112843594E+02  0.00000000000E+00 0.  1.
</event>
<event>
 7    1  0.2384639E-009  0.1317439E+03  0.7561462E-02  0.1224891E+00
          2   -1    0    0  501    0  0.00000000000E+00  0.00000000000E+00  0.16887908992E+03  0.16887908992E+03  0.00000000000E+00 0. -1.
         -2   -1    0    0    0  501 -0.00000000000E+00 -0.00000000000E+00 -0.16122227990E+03  0.16122227990E+03  0.00000000000E+00 0.  1.
         25    2    1    2    0    0  0.95410273441E+02 -0.69405906304E+02 -0.35487134164E+02  0.17557797441E+03  0.12509191940E+03 0.  0.
          5    1    3    3  502    0  0.67610972664E+02 -0.31167003245E+02  0.41350880155E+02  0.85264256318E+02  0.41800000000E+01 0. -1.
         -5    1    3    3    0  502  0.27799300777E+02 -0.38238903059E+02 -0.76838014319E+02  0.90313718090E+02  0.41800000000E+01 0. -1.
        -11    1    1    2    0    0 -0.29845418256E+02  0.69780812718E+02 -0.25426836802E+00  0.75895819825E+02  0.00000000000E+00 0.  1.
         11    1    1    2    0    0 -0.65564855186E+02 -0.37490641481E+00  0.43398212545E+02  0.78627575586E+02  0.00000000000E+00 0. -1.
</event>
<event>
 7    1  0.2384639E-009  0.9993727E+02  0.7561462E-02  0.1280428E+00
          2   -1    0    0  501    0  0.00000000000E+00  0.00000000000E+00  0.10070620297E+04  0.10070620297E+04  0.00000000000E+00 0.  1.
         -2   -1    0    0    0  501 -0.00000000000E+00 -0.00000000000E+00 -0.18263819685E+02  0.18263819685E+02  0.00000000000E+00 0. -1.
         25    2    1    2    0    0  0.50563382663E+02 -0.38427080644E+02  0.72468405970E+03  0.73813807596E+03  0.12509011391E+03 0.  0.
          5    1    3    3  502    0 -0.12370234204E+02 -0.24815589267E+02  0.32382657015E+02  0.42836258477E+02  0.41800000000E+01 0. -1.
         -5    1    3    3    0  502  0.62933616867E+02 -0.13611491377E+02  0.69230140269E+03  0.69530181748E+03  0.41800000000E+01 0. -1.
        -11    1    1    2    0    0 -0.23112562394E+02  0.65071151079E+02  0.12384659935E+03  0.14179712767E+03  0.00000000000E+00 0. -1.
         11    1    1    2    0    0 -0.27450820269E+02 -0.26644070435E+02  0.14026755098E+03  0.14539064579E+03  0.00000000000E+00 0.  1.
</event>
<event>
 7    1  0.2466636E-009  0.1415525E+03  0.7561462E-02  0.1211255E+00
          2   -1    0    0  501    0  0.00000000000E+00  0.00000000000E+00  0.33749811557E+03  0.33749811557E+03  0.00000000000E+00 0. -1.
         -2   -1    0    0    0  501 -0.00000000000E+00 -0.00000000000E+00 -0.72865353354E+02  0.72865353354E+02  0.00000000000E+00 0.  1.
         25    2    1    2    0    0 -0.13237443809E+02 -0.11003684211E+03  0.17073115491E+03  0.23891371934E+03  0.12508917416E+03 0.  0.
          5    1    3    3  502    0 -0.26758895283E+02 -0.12421922679E+03  0.17699205696E+03  0.21792226919E+03  0.41800000000E+01 0. -1.
         -5    1    3    3    0  502  0.13521451474E+02  0.14182384684E+02 -0.62609020445E+01  0.20991450157E+02  0.41800000000E+01 0. -1.
        -11    1    1    2    0    0 -0.32100340019E+02  0.62374664725E+02  0.20932096603E+02  0.73206443002E+02  0.00000000000E+00 0.  1.
         11    1    1    2    0    0  0.45337783828E+02  0.47662177382E+02  0.72969510694E+02  0.98243306572E+02  0.00000000000E+00 0. -1.
</event>
<event>
 7    1  0.2384639E-009  0.1640962E+03  0.7561462E-02  0.1184148E+00
         -2   -1    0    0    0  501 -0.00000000000E+00  0.00000000000E+00  0.17581028170E+02  0.17581028170E+02  0.00000000000E+00 0.  1.
          2   -1    0    0  501    0  0.00000000000E+00 -0.00000000000E+00 -0.18977173374E+04  0.18977173374E+04  0.00000000000E+00 0. -1.
         25    2    1    2    0    0 -0.11512999439E+03  0.78050495327E+02 -0.10417917882E+04  0.10584541091E+04  0.12509266769E+03 0.  0.
          5    1    3    3  502    0 -0.76827407586E+02  0.83108100681E+02 -0.40671520624E+03  0.42218969474E+03  0.41800000000E+01 0. -1.
         -5    1    3    3    0  502 -0.38302586808E+02 -0.50576053542E+01 -0.63507658200E+03  0.63626441432E+03  0.41800000000E+01 0. -1.
        -11    1    1    2    0    0 -0.81059428366E+01  0.18058376106E+02 -0.68796131437E+02  0.71587142404E+02  0.00000000000E+00 0.  1.
         11    1    1    2    0    0  0.12323593723E+03 -0.96108871434E+02 -0.76954838956E+03  0.78525711411E+03  0.00000000000E+00 0. -1.
</event>
<event>
 7    1  0.2384639E-009  0.1802634E+03  0.7561462E-02  0.1167548E+00
         -2   -1    0    0    0  501 -0.00000000000E+00  0.00000000000E+00  0.13923099487E+03  0.13923099487E+03  0.00000000000E+00 0.  1.
          2   -1    0    0  501    0  0.00000000000E+00 -0.00000000000E+00 -0.39469051859E+03  0.39469051859E+03  0.00000000000E+00 0. -1.
         25    2    1    2    0    0  0.12172313822E+03  0.88434121755E+02 -0.29469160248E+03  0.35373479776E+03  0.12509216726E+03 0.  0.
          5    1    3    3  502    0  0.10300752112E+03  0.11996948269E+03 -0.24906223776E+03  0.29504694010E+03  0.41800000000E+01 0. -1.
         -5    1    3    3    0  502  0.18715617104E+02 -0.31535360933E+02 -0.45629364715E+02  0.58687857663E+02  0.41800000000E+01 0. -1.
        -11    1    1    2    0    0 -0.10468154995E+03 -0.36632183324E+02 -0.34139413933E+01  0.11095854519E+03  0.00000000000E+00 0. -1.
         11    1    1    2    0    0 -0.17041588278E+02 -0.51801938430E+02  0.42646020158E+02  0.69228170505E+02  0.00000000000E+00 0.  1.
</event>
<event>
 7    1  0.2384639E-009  0.1617901E+03  0.7561462E-02  0.1186690E+00
         -1   -1    0    0    0  501 -0.00000000000E+00  0.00000000000E+00  0.81778881983E+03  0.81778881983E+03  0.00000000000E+00 0.  1.
          1   -1    0    0  501    0  0.00000000000E+00 -0.00000000000E+00 -0.54165238962E+02  0.54165238962E+02  0.00000000000E+00 0. -1.
         25    2    1    2    0    0  0.11394598290E+03  0.81560479861E+02  0.62969252859E+03  0.65711133730E+03  0.12508729014E+03 0.  0.
          5    1    3    3  502    0 -0.25246161483E+01 -0.80012943544E+01 -0.10839087750E+01  0.94361886519E+01  0.41800000000E+01 0.  1.
         -5    1    3    3    0  502  0.11647059905E+03  0.89561774215E+02  0.63077643736E+03  0.64767514865E+03  0.41800000000E+01 0.  1.
        -11    1    1    2    0    0 -0.36384188546E+02  0.18342198920E+02  0.24140919790E+02  0.47360631813E+02  0.00000000000E+00 0.  1.
         11    1    1    2    0    0 -0.77561794355E+02 -0.99902678781E+02  0.10979013249E+03  0.16748208968E+03  0.00000000000E+00 0. -1.
</event>
<event>
 7    1  0.2384639E-009  0.1489877E+03  0.7561462E-02  0.1201722E+00
         -1   -1    0    0    0  501 -0.00000000000E+00  0.00000000000E+00  0.51327936951E+03  0.51327936951E+03  0.00000000000E+00 0.  1.
          1   -1    0    0  501    0  0.00000000000E+00 -0.00000000000E+00 -0.10159308864E+03  0.10159308864E+03  0.00000000000E+00 0. -1.
         25    2    1    2    0    0  0.29767912652E+02  0.13146818329E+03  0.41230808032E+03  0.45145907728E+03  0.12508930219E+03 0.  0.
          5    1    3    3  502    0  0.27869578127E+02  0.85846654109E+02  0.95952839415E+02  0.13179825947E+03  0.41800000000E+01 0. -1.
         -5    1    3    3    0  502  0.18983345248E+01  0.45621529182E+02  0.31635524091E+03  0.31966081782E+03  0.41800000000E+01 0. -1.
        -11    1    1    2    0    0 -0.55762274217E+02 -0.45539331893E+02 -0.11765182580E+02  0.72949856040E+02  0.00000000000E+00 0. -1.
         11    1    1    2    0    0  0.25994361565E+02 -0.85928851398E+02  0.11143383127E+02  0.90463524822E+02  0.00000000000E+00 0.  1.
</event>
<event>
 7    1  0.2384639E-009  0.1019049E+03  0.7561462E-02  0.1276341E+00
          2   -1    0    0  501    0  0.00000000000E+00  0.00000000000E+00  0.31481575662E+03  0.31481575662E+03  0.00000000000E+00 0.  1.
         -2   -1    0    0    0  501 -0.00000000000E+00 -0.00000000000E+00 -0.58992227006E+02  0.58992227006E+02  0.00000000000E+00 0. -1.
         25    2    1    2    0    0  0.31403280640E+02 -0.38542191476E+02  0.51173600411E+02  0.14400407803E+03  0.12508705189E+03 0.  0.
          5    1    3    3  502    0 -0.18709115363E+02 -0.53624261221E+02  0.68165388434E+02  0.88823335726E+02  0.41800000000E+01 0. -1.
         -5    1    3    3    0  502  0.50112396003E+02  0.15082069746E+02 -0.16991788023E+02  0.55180742304E+02  0.41800000000E+01 0. -1.
        -11    1    1    2    0    0 -0.42186956879E+02 -0.11050916385E+02  0.14534836530E+03  0.15174982497E+03  0.00000000000E+00 0.  1.
         11    1    1    2    0    0  0.10783676240E+02  0.49593107861E+02  0.59301563904E+02  0.78054080624E+02  0.00000000000E+00 0. -1.
</event>
<event>
 7    1  0.2384639E-009  0.1384020E+03  0.7561462E-02  0.1215495E+00
         -1   -1    0    0    0  501 -0.00000000000E+00  0.00000000000E+00  0.52086138424E+02  0.52086138424E+02  0.00000000000E+00 0.  1.
          1   -1    0    0  501    0  0.00000000000E+00 -0.00000000000E+00 -0.53699426950E+03  0.53699426950E+03  0.00000000000E+00 0. -1.
         25    2    1    2    0    0  0.81713590102E+02 -0.73595313779E+02 -0.37170366390E+03  0.40731220623E+03  0.12508492543E+03 0.  0.
          5    1    3    3  502    0  0.11537331292E+03 -0.55399254789E+02 -0.28406525564E+03  0.31159367874E+03  0.41800000000E+01 0. -1.
         -5    1    3    3    0  502 -0.33659722822E+02 -0.18196058990E+02 -0.87638408251E+02  0.95718527486E+02  0.41800000000E+01 0. -1.
        -11    1    1    2    0    0 -0.47734952971E+02  0.48227599107E+02 -0.12092938083E+03  0.13866665857E+03  0.00000000000E+00 0. -1.
         11    1    1    2    0    0 -0.33978637131E+02  0.25367714672E+02  0.77249136516E+01  0.43101543126E+02  0.00000000000E+00 0.  1.
</event>
<event>
 7    1  0.2384639E-009  0.1733181E+03  0.7561462E-02  0.1174431E+00
          2   -1    0    0  501    0  0.00000000000E+00  0.00000000000E+00  0.63924486595E+03  0.63924486595E+03  0.00000000000E+00 0. -1.
         -2   -1    0    0    0  501 -0.00000000000E+00 -0.00000000000E+00 -0.53653766646E+02  0.53653766646E+02  0.00000000000E+00 0.  1.
         25    2    1    2    0    0 -0.14129014731E+03  0.53012770897E+02  0.31950486812E+03  0.37483880760E+03  0.12509001289E+03 0.  0.
          5    1    3    3  502    0  0.10738027838E+02  0.40945162038E+02  0.85447751979E+02  0.95449474877E+02  0.41800000000E+01 0. -1.
         -5    1    3    3    0  502 -0.15202817515E+03  0.12067608859E+02  0.23405711614E+03  0.27938933273E+03  0.41800000000E+01 0. -1.
        -11    1    1    2    0    0  0.53443651234E+02 -0.27253979905E+02  0.18928781829E+03  0.19856707036E+03  0.00000000000E+00 0. -1.
         11    1    1    2    0    0  0.87846496080E+02 -0.25758790992E+02  0.76798412885E+02  0.11949275463E+03  0.00000000000E+00 0.  1.
</event>
<event>
 7    1  0.2384639E-009  0.1055832E+03  0.7561462E-02  0.1268975E+00
         -2   -1    0    0    0  501 -0.00000000000E+00  0.00000000000E+00  0.17990176877E+02  0.17990176877E+02  0.00000000000E+00 0.  1.
          2   -1    0    0  501    0  0.00000000000E+00 -0.00000000000E+00 -0.10038626998E+04  0.10038626998E+04  0.00000000000E+00 0. -1.
         25    2    1    2    0    0  0.25543909237E+02  0.50813907794E+02 -0.74744833038E+03  0.75997464682E+03  0.12509161719E+03 0.  0.
          5    1    3    3  502    0 -0.15635417410E+02  0.76206510425E+02 -0.30197764455E+03  0.31186514508E+03  0.41800000000E+01 0. -1.
         -5    1    3    3    0  502  0.41179326647E+02 -0.25392602630E+02 -0.44547068583E+03  0.44810950174E+03  0.41800000000E+01 0. -1.
        -11    1    1    2    0    0 -0.33185194565E+02  0.13179914608E+00 -0.18388593953E+03  0.18685639744E+03  0.00000000000E+00 0. -1.
         11    1    1    2    0    0  0.76412853277E+01 -0.50945706940E+02 -0.54538253008E+02  0.75021832411E+02  0.00000000000E+00 0.  1.
</event>
<event>
 7    1  0.2384639E-009  0.1147691E+03  0.7561462E-02  0.1251985E+00
          1   -1    0    0  501    0  0.00000000000E+00  0.00000000000E+00  0.41409088141E+03  0.41409088141E+03  0.00000000000E+00 0. -1.
         -1   -1    0    0    0  501 -0.00000000000E+00 -0.00000000000E+00 -0.44376792480E+02  0.44376792480E+02  0.00000000000E+00 0.  1.
         25    2    1    2    0    0 -0.28994676260E+02 -0.73428275231E+02  0.17841651424E+03  0.23175619947E+03  0.12508429391E+03 0.  0.
          5    1    3    3  502    0  0.28846301129E+01  0.14047338460E+02 -0.12388916746E+02  0.19406351198E+02  0.41800000000E+01 0. -1.
         -5    1    3    3    0  502 -0.31879306373E+02 -0.87475613690E+02  0.19080543099E+03  0.21234984827E+03  0.41800000000E+01 0. -1.
        -11    1    1    2    0    0 -0.11451114789E+02  0.79661564741E+02  0.11960373003E+03  0.14416013722E+03  0.00000000000E+00 0. -1.
         11    1    1    2    0    0  0.40445791049E+02 -0.62332895104E+01  0.71693844659E+02  0.82551337201E+02  0.00000000000E+00 0.  1.
</event>
<event>
 7    1  0.2384639E-009  0.9876517E+02  0.7561462E-02  0.1282914E+00
          2   -1    0    0  501    0  0.00000000000E+00  0.00000000000E+00  0.25754077406E+03  0.25754077406E+03  0.00000000000E+00 0. -1.
         -2   -1    0    0    0  501 -0.00000000000E+00 -0.00000000000E+00 -0.45148942534E+02  0.45148942534E+02  0.00000000000E+00 0.  1.
         25    2    1    2    0    0  0.18561243926E+02 -0.82650202635E+01  0.13022448292E+03  0.18171399339E+03  0.12509488041E+03 0.  0.
          5    1    3    3  502    0  0.57790177784E+02 -0.43340060176E+02  0.60871409285E+02  0.94556154388E+02  0.41800000000E+01 0.  1.
         -5    1    3    3    0  502 -0.39228933858E+02  0.35075039912E+02  0.69353073638E+02  0.87157839002E+02  0.41800000000E+01 0.  1.
        -11    1    1    2    0    0 -0.42173924920E+02 -0.90122886303E+01  0.80915153570E+02  0.91690366816E+02  0.00000000000E+00 0. -1.
         11    1    1    2    0    0  0.23612680995E+02  0.17277308894E+02  0.12521950327E+01  0.29285356388E+02  0.00000000000E+00 0.  1.
</event>
<event>
 7    1  0.2384639E-009  0.1989364E+03  0.7561462E-02  0.1150639E+00
         -1   -1    0    0    0  501 -0.00000000000E+00  0.00000000000E+00  0.56449844415E+03  0.56449844415E+03  0.00000000000E+00 0.  1.
          1   -1    0    0  501    0  0.00000000000E+00 -0.00000000000E+00 -0.13316937884E+03  0.13316937884E+03  0.00000000000E+00 0. -1.
         25    2    1    2    0    0  0.16193296459E+03  0.60338929138E+02  0.44889791538E+03  0.49701064968E+03  0.12508867283E+03 0.  0.
          5    1    3    3  502    0  0.96766298052E+02  0.93061369707E+02  0.23119043899E+03  0.26737731102E+03  0.41800000000E+01 0. -1.
         -5    1    3    3    0  502  0.65166666538E+02 -0.32722440569E+02  0.21770747639E+03  0.22963333865E+03  0.41800000000E+01 0. -1.
        -11    1    1    2    0    0 -0.58754988037E+02  0.17456186960E+02  0.22616798944E+02  0.65332891233E+02  0.00000000000E+00 0.  1.
         11    1    1    2    0    0 -0.10317797655E+03 -0.77795116097E+02 -0.40185649020E+02  0.13532428208E+03  0.00000000000E+00 0. -1.
</event>
<event>
 7    1  0.2384639E-009  0.7245762E+02  0.7561462E-02  0.1351930E+00
          2   -1    0    0  501    0  0.00000000000E+00  0.00000000000E+00  0.28154875364E+03  0.28154875364E+03  0.00000000000E+00 0. -1.
         -2   -1    0    0    0  501 -0.00000000000E+00 -0.00000000000E+00 -0.57941303594E+02  0.57941303594E+02  0.00000000000E+00 0.  1.
         25    2    1    2    0    0 -0.19949252119E+02  0.96566617237E+01  0.20792864000E+03  0.24366576146E+03  0.12508980852E+03 0.  0.
          5    1    3    3  502    0  0.32229652040E+02  0.15495787793E+02  0.18093159260E+03  0.18447922244E+03  0.41800000000E+01 0.  1.
         -5    1    3    3    0  502 -0.52178904159E+02 -0.58391260695E+01  0.26997047402E+02  0.59186539018E+02  0.41800000000E+01 0.  1.
        -11    1    1    2    0    0  0.29641625607E+02 -0.24537988832E+02 -0.28712752244E+02  0.48012092289E+02  0.00000000000E+00 0.  1.
         11    1    1    2    0    0 -0.96923734880E+01  0.14881327109E+02  0.44391562286E+02  0.47812203490E+02  0.00000000000E+00 0. -1.
</event>
<event>
 7    1  0.2384639E-009  0.9629060E+02  0.7561462E-02  0.1288296E+00
         -2   -1    0    0    0  501 -0.00000000000E+00  0.00000000000E+00  0.14072861599E+02  0.14072861599E+02  0.00000000000E+00 0.  1.
          2   -1    0    0  501    0  0.00000000000E+00 -0.00000000000E+00 -0.17256535763E+04  0.17256535763E+04  0.00000000000E+00 0. -1.
         25    2    1    2    0    0 -0.34107686707E+01 -0.77653702443E+02 -0.13953869245E+04  0.14031369628E+04  0.12508771561E+03 0.  0.
          5    1    3    3  502    0  0.25936647449E+02 -0.23251273654E+02 -0.11326907379E+04  0.11332339174E+04  0.41800000000E+01 0. -1.
         -5    1    3    3    0  502 -0.29347416120E+02 -0.54402428789E+02 -0.26269618661E+03  0.26990304547E+03  0.41800000000E+01 0. -1.
        -11    1    1    2    0    0  0.27283532239E+02  0.59810885540E+02 -0.28853342518E+03  0.29592781317E+03  0.00000000000E+00 0. -1.
         11    1    1    2    0    0 -0.23872763568E+02  0.17842816904E+02 -0.27660365072E+02  0.40661661935E+02  0.00000000000E+00 0.  1.
</event>
<event>
 7    1  0.2384639E-009  0.1039183E+03  0.7561462E-02  0.1272266E+00
         -1   -1    0    0    0  501 -0.00000000000E+00  0.00000000000E+00  0.80777308286E+02  0.80777308286E+02  0.00000000000E+00 0.  1.
          1   -1    0    0  501    0  0.00000000000E+00 -0.00000000000E+00 -0.19335008788E+03  0.19335008788E+03  0.00000000000E+00 0. -1.
         25    2    1    2    0    0  0.13994627550E+02 -0.52571948548E+02 -0.84577646988E+02  0.16050142331E+03  0.12509064369E+03 0.  0.
          5    1    3    3  502    0  0.15762361873E+02 -0.84916897695E+02 -0.20934642181E+02  0.88966640991E+02  0.41800000000E+01 0.  1.
         -5    1    3    3    0  502 -0.17677343230E+01  0.32344949146E+02 -0.63643004807E+02  0.71534782315E+02  0.41800000000E+01 0.  1.
        -11    1    1    2    0    0 -0.42297019487E+02  0.38061405507E+02 -0.49347001489E+02  0.75318224903E+02  0.00000000000E+00 0. -1.
         11    1    1    2    0    0  0.28302391937E+02  0.14510543042E+02  0.21351868884E+02  0.38307747957E+02  0.00000000000E+00 0.  1.
</event>
<event>
 7    1  0.2384639E-009  0.1882356E+03  0.7561462E-02  0.1160062E+00
          1   -1    0    0  501    0  0.00000000000E+00  0.00000000000E+00  0.19871881424E+03  0.19871881424E+03  0.00000000000E+00 0. -1.
         -1   -1    0    0    0  501 -0.00000000000E+00 -0.00000000000E+00 -0.21196025261E+03  0.21196025261E+03  0.00000000000E+00 0.  1.
         25    2    1    2    0    0 -0.16544162537E+03  0.30045174702E+02  0.38757470527E+02  0.21312649601E+03  0.12508844012E+03 0.  0.
          5    1    3    3  502    0 -0.17141245509E+03  0.40643608663E+02  0.61799651236E+02  0.18673725385E+03  0.41800000000E+01 0. -1.
         -5    1    3    3    0  502  0.59708297107E+01 -0.10598433961E+02 -0.23042180709E+02  0.26389242158E+02  0.41800000000E+01 0. -1.
        -11    1    1    2    0    0  0.89600392243E+02 -0.57808670525E+02 -0.47306130569E+02  0.11665308683E+03  0.00000000000E+00 0. -1.
         11    1    1    2    0    0  0.75841233132E+02  0.27763495824E+02 -0.46927783294E+01  0.80899484002E+02  0.00000000000E+00 0.  1.
</event>
<event>
 7    1  0.2384639E-009  0.2320393E+03  0.7561462E-02  0.1125213E+00
         -2   -1    0    0    0  501 -0.00000000000E+00  0.00000000000E+00  0.13427116334E+03  0.13427116334E+03  0.00000000000E+00 0.  1.
          2   -1    0    0  501    0  0.00000000000E+00 -0.00000000000E+00 -0.50931469847E+03  0.50931469847E+03  0.00000000000E+00 0. -1.
         25    2    1    2    0    0 -0.16824347560E+02 -0.22022885295E+03 -0.29996768387E+03  0.39295485332E+03  0.12509635902E+03 0.  0.
          5    1    3    3  502    0 -0.58692000702E+02 -0.10562501342E+03 -0.92504955357E+02  0.15223676813E+03  0.41800000000E+01 0. -1.
         -5    1    3    3    0  502  0.41867653142E+02 -0.11460383953E+03 -0.20746272851E+03  0.24071808519E+03  0.41800000000E+01 0. -1.
        -11    1    1    2    0    0  0.88186337156E+01  0.16955391380E+03 -0.13261676034E+02  0.17030023499E+03  0.00000000000E+00 0.  1.
         11    1    1    2    0    0  0.80057138439E+01  0.50674939144E+02 -0.61814175230E+02  0.80330773498E+02  0.00000000000E+00 0. -1.
</event>
<event>
 7    1  0.2384639E-009  0.1515820E+03  0.7561462E-02  0.1198542E+00
         -2   -1    0    0    0  501 -0.00000000000E+00  0.00000000000E+00  0.47209347832E+02  0.47209347832E+02  0.00000000000E+00 0.  1.
          2   -1    0    0  501    0  0.00000000000E+00 -0.00000000000E+00 -0.73177909943E+03  0.73177909943E+03  0.00000000000E+00 0. -1.
         25    2    1    2    0    0  0.99865571746E+02  0.11000360204E+03 -0.29920852417E+03  0.35671750337E+03  0.12509081261E+03 0.  0.
          5    1    3    3  502    0  0.33590250943E+02  0.15726493228E+02 -0.13872312220E+01  0.37350024874E+02  0.41800000000E+01 0. -1.
         -5    1    3    3    0  502  0.66275320803E+02  0.94277108808E+02 -0.29782129294E+03  0.31936747850E+03  0.41800000000E+01 0. -1.
        -11    1    1    2    0    0 -0.69960058728E+02 -0.92132624266E+02 -0.36272132375E+03  0.38072245662E+03  0.00000000000E+00 0. -1.
         11    1    1    2    0    0 -0.29905513018E+02 -0.17870977770E+02 -0.22639903676E+02  0.41548487262E+02  0.00000000000E+00 0.  1.
</event>
<event>
 7    1  0.2384639E-009  0.1097752E+03  0.7561462E-02  0.1260987E+00
         -3   -1    0    0    0  501 -0.00000000000E+00  0.00000000000E+00  0.42976266150E+02  0.42976266150E+02  0.00000000000E+00 0.  1.
          3   -1    0    0  501    0  0.00000000000E+00 -0.00000000000E+00 -0.36508680964E+03  0.36508680964E+03  0.00000000000E+00 0. -1.
         25    2    1    2    0    0 -0.10188495633E+02 -0.57883798155E+02 -0.21824639636E+03  0.25833066952E+03  0.12509558649E+03 0.  0.
          5    1    3    3  502    0 -0.45161092374E+02  0.85764122035E+01 -0.14938374662E+03  0.15635234333E+03  0.41800000000E+01 0.  1.
         -5    1    3    3    0  502  0.34972596741E+02 -0.66460210359E+02 -0.68862649738E+02  0.10197832619E+03  0.41800000000E+01 0.  1.
        -11    1    1    2    0    0  0.18716505893E+02  0.75937173243E+02 -0.10354629766E+03  0.12976362215E+03  0.00000000000E+00 0. -1.
         11    1    1    2    0    0 -0.85280102602E+01 -0.18053375088E+02 -0.31784947045E+00  0.19968784123E+02  0.00000000000E+00 0.  1.
</event>
<event>
 7    1  0.2384639E-009  0.1232373E+03  0.7561462E-02  0.1237850E+00
          1   -1    0    0  501    0  0.00000000000E+00  0.00000000000E+00  0.13436122935E+04  0.13436122935E+04  0.00000000000E+00 0. -1.
         -1   -1    0    0    0  501 -0.00000000000E+00 -0.00000000000E+00 -0.12887808267E+02  0.12887808267E+02  0.00000000000E+00 0.  1.
         25    2    1    2    0    0 -0.48203205818E+02  0.46070401645E+02  0.86656504546E+03  0.87808212779E+03  0.12508882512E+03 0.  0.
          5    1    3    3  502    0  0.11338024853E+02 -0.32326879960E+02  0.11444822603E+03  0.11953847421E+03  0.41800000000E+01 0.  1.
         -5    1    3    3    0  502 -0.59541230670E+02  0.78397281605E+02  0.75211681943E+03  0.75854365358E+03  0.41800000000E+01 0.  1.
        -11    1    1    2    0    0 -0.18303291221E+02 -0.43136246531E+02  0.14477810649E+03  0.15217242310E+03  0.00000000000E+00 0.  1.
         11    1    1    2    0    0  0.66506497038E+02 -0.29341551134E+01  0.31938133324E+03  0.32624555083E+03  0.00000000000E+00 0. -1.
</event>
<event>
 7    1  0.2384639E-009  0.9785092E+02  0.7561462E-02  0.1284881E+00
          2   -1    0    0  501    0  0.00000000000E+00  0.00000000000E+00  0.33212880800E+03  0.33212880800E+03  0.00000000000E+00 0. -1.
         -2   -1    0    0    0  501 -0.00000000000E+00 -0.00000000000E+00 -0.56240038894E+02  0.56240038894E+02  0.00000000000E+00 0.  1.
         25    2    1    2    0    0 -0.50406147522E+01 -0.25104589295E+02  0.40054943891E+02  0.13382036413E+03  0.12509133912E+03 0.  0.
          5    1    3    3  502    0  0.29276596272E+02  0.39589483910E+02 -0.16468313781E+01  0.49443207614E+02  0.41800000000E+01 0.  1.
         -5    1    3    3    0  502 -0.34317211024E+02 -0.64694073205E+02  0.41701775269E+02  0.84377156512E+02  0.41800000000E+01 0.  1.
        -11    1    1    2    0    0 -0.30404137486E+02  0.16838185961E+01  0.24774426853E+02  0.39255815457E+02  0.00000000000E+00 0.  1.
         11    1    1    2    0    0  0.35444752238E+02  0.23420770699E+02  0.21105939836E+03  0.21529266731E+03  0.00000000000E+00 0. -1.
</event>
<event>
 7    1  0.2384639E-009  0.1444841E+03  0.7561462E-02  0.1207420E+00
          1   -1    0    0  501    0  0.00000000000E+00  0.00000000000E+00  0.65222040236E+03  0.65222040236E+03  0.00000000000E+00 0. -1.
         -1   -1    0    0    0  501 -0.00000000000E+00 -0.00000000000E+00 -0.33133932729E+02  0.33133932729E+02  0.00000000000E+00 0.  1.
         25    2    1    2    0    0 -0.94265587096E+02 -0.14333589246E+02  0.27472755476E+03  0.31656575656E+03  0.12508875324E+03 0.  0.
          5    1    3    3  502    0  0.45961425289E+01  0.42445127944E+02  0.66531642913E+02  0.79162145758E+02  0.41800000000E+01 0.  1.
         -5    1    3    3    0  502 -0.98861729624E+02 -0.56778717190E+02  0.20819591185E+03  0.23740361080E+03  0.41800000000E+01 0.  1.
        -11    1    1    2    0    0 -0.18470593986E+02  0.19111531581E+01  0.47395756228E+02  0.50903566250E+02  0.00000000000E+00 0. -1.
         11    1    1    2    0    0  0.11273618108E+03  0.12422436088E+02  0.29696315864E+03  0.31788501228E+03  0.00000000000E+00 0.  1.
</event>
<event>
 7    1  0.2384639E-009  0.1471969E+03  0.7561462E-02  0.1203960E+00
         -2   -1    0    0    0  501 -0.00000000000E+00  0.00000000000E+00  0.11461187804E+03  0.11461187804E+03  0.00000000000E+00 0. -1.
          2   -1    0    0  501    0  0.00000000000E+00 -0.00000000000E+00 -0.19949315188E+03  0.19949315188E+03  0.00000000000E+00 0.  1.
         25    2    1    2    0    0  0.87753911859E+02  0.59122385169E+02 -0.55418941636E+02  0.17295919822E+03  0.12508964658E+03 0.  0.
          5    1    3    3  502    0 -0.31608050454E+02  0.12868597164E+02 -0.28107771896E+01  0.34496992838E+02  0.41800000000E+01 0. -1.
         -5    1    3    3    0  502  0.11936196231E+03  0.46253788005E+02 -0.52608164446E+02  0.13846220538E+03  0.41800000000E+01 0. -1.
        -11    1    1    2    0    0 -0.58298547399E+02  0.77969924243E+01  0.73696761480E+01  0.59277532390E+02  0.00000000000E+00 0.  1.
         11    1    1    2    0    0 -0.29455364459E+02 -0.66919377594E+02 -0.36832008358E+02  0.81868299314E+02  0.00000000000E+00 0. -1.
</event>
<event>
 7    1  0.2384639E-009  0.9478468E+02  0.7561462E-02  0.1291662E+00
          1   -1    0    0  501    0  0.00000000000E+00  0.00000000000E+00  0.20653065087E+03  0.20653065087E+03  0.00000000000E+00 0. -1.
         -1   -1    0    0    0  501 -0.00000000000E+00 -0.00000000000E+00 -0.73940165714E+02  0.73940165714E+02  0.00000000000E+00 0.  1.
         25    2    1    2    0    0  0.56608556279E+02 -0.13103832140E+02  0.76614479660E+02  0.15777506758E+03  0.12508778675E+03 0.  0.
          5    1    3    3  502    0  0.28312842510E+02  0.49446725516E+02  0.67438540159E+02  0.88385659550E+02  0.41800000000E+01 0. -1.
         -5    1    3    3    0  502  0.28295713769E+02 -0.62550557656E+02  0.91759395004E+01  0.69389408028E+02  0.41800000000E+01 0. -1.
        -11    1    1    2    0    0 -0.39788414557E+02  0.21095865717E+02 -0.16426067565E+02  0.47937137784E+02  0.00000000000E+00 0.  1.
         11    1    1    2    0    0 -0.16820141722E+02 -0.79920335768E+01  0.72402073063E+02  0.74758611224E+02  0.00000000000E+00 0. -1.
</event>
<event>
 7    1  0.2384639E-009  0.1179951E+03  0.7561462E-02  0.1246442E+00
          1   -1    0    0  501    0  0.00000000000E+00  0.00000000000E+00  0.28845566038E+02  0.28845566038E+02  0.00000000000E+00 0. -1.
         -1   -1    0    0    0  501 -0.00000000000E+00 -0.00000000000E+00 -0.49646963736E+03  0.49646963736E+03  0.00000000000E+00 0.  1.
         25    2    1    2    0    0 -0.48820697345E+02  0.10076849718E+01 -0.29434947074E+03  0.32353144752E+03  0.12508601318E+03 0.  0.
          5    1    3    3  502    0 -0.73502141234E+02  0.41853025404E+02 -0.21156774830E+03  0.22788730772E+03  0.41800000000E+01 0. -1.
         -5    1    3    3    0  502  0.24681443888E+02 -0.40845340432E+02 -0.82781722445E+02  0.95644139802E+02  0.41800000000E+01 0. -1.
        -11    1    1    2    0    0  0.17699086174E+02  0.44714178827E+02 -0.81737847378E+02  0.94835073330E+02  0.00000000000E+00 0.  1.
         11    1    1    2    0    0  0.31121611172E+02 -0.45721863799E+02 -0.91536753200E+02  0.10694868254E+03  0.00000000000E+00 0. -1.
</event>
<event>
 7    1  0.2384639E-009  0.1146114E+03  0.7561462E-02  0.1252261E+00
          1   -1    0    0  501    0  0.00000000000E+00  0.00000000000E+00  0.17609268456E+03  0.17609268456E+03  0.00000000000E+00 0.  1.
         -1   -1    0    0    0  501 -0.00000000000E+00 -0.00000000000E+00 -0.12245067905E+03  0.12245067905E+03  0.00000000000E+00 0. -1.
         25    2    1    2    0    0 -0.42022376239E+02 -0.96625644763E+02  0.89286945244E+01  0.16379701218E+03  0.12508934520E+03 0.  0.
          5    1    3    3  502    0 -0.56916340424E+02 -0.55444975473E+02 -0.47176319997E+02  0.92502392839E+02  0.41800000000E+01 0.  1.
         -5    1    3    3    0  502  0.14893964185E+02 -0.41180669289E+02  0.56105014521E+02  0.71294619339E+02  0.41800000000E+01 0.  1.
        -11    1    1    2    0    0  0.21612007650E+02  0.39877458842E+02 -0.17019388694E+02  0.48445331972E+02  0.00000000000E+00 0. -1.
         11    1    1    2    0    0  0.20410368589E+02  0.56748185920E+02  0.61732699671E+02  0.86301019460E+02  0.00000000000E+00 0.  1.
</event>
<event>
 7    1  0.2384639E-009  0.1125471E+03  0.7561462E-02  0.1255925E+00
         -2   -1    0    0    0  501 -0.00000000000E+00  0.00000000000E+00  0.16887327071E+03  0.16887327071E+03  0.00000000000E+00 0. -1.
          2   -1    0    0  501    0  0.00000000000E+00 -0.00000000000E+00 -0.11812963192E+03  0.11812963192E+03  0.00000000000E+00 0.  1.
         25    2    1    2    0    0  0.50697976249E+02  0.23967630788E+02 -0.44861866718E+02  0.14423849878E+03  0.12508966913E+03 0.  0.
          5    1    3    3  502    0  0.91704418659E+02  0.13876855357E+02 -0.41420217805E+02  0.10166304323E+03  0.41800000000E+01 0.  1.
         -5    1    3    3    0  502 -0.41006442410E+02  0.10090775431E+02 -0.34416489131E+01  0.42575455549E+02  0.41800000000E+01 0.  1.
        -11    1    1    2    0    0 -0.31181905987E+01  0.22851441216E+02 -0.34463761010E+01  0.23319283576E+02  0.00000000000E+00 0.  1.
         11    1    1    2    0    0 -0.47579785650E+02 -0.46819072004E+02  0.99051881608E+02  0.11944512027E+03  0.00000000000E+00 0. -1.
</event>
<event>
 7    1  0.2384639E-009  0.2074917E+03  0.7561462E-02  0.1143568E+00
          1   -1    0    0  501    0  0.00000000000E+00  0.00000000000E+00  0.42805262421E+03  0.42805262421E+03  0.00000000000E+00 0. -1.
         -1   -1    0    0    0  501 -0.00000000000E+00 -0.00000000000E+00 -0.11572283471E+03  0.11572283471E+03  0.00000000000E+00 0.  1.
         25    2    1    2    0    0 -0.18619736823E+03 -0.14804222717E+01  0.10511662600E+03  0.24772666836E+03  0.12508935035E+03 0.  0.
          5    1    3    3  502    0 -0.79492877187E+02 -0.60342676333E+02  0.29116646039E+02  0.10404618007E+03  0.41800000000E+01 0. -1.
         -5    1    3    3    0  502 -0.10670449104E+03  0.58862254061E+02  0.75999979963E+02  0.14368048829E+03  0.41800000000E+01 0. -1.
        -11    1    1    2    0    0  0.56960067870E+02 -0.23346750422E+02  0.15442917267E+02  0.63466556396E+02  0.00000000000E+00 0.  1.
         11    1    1    2    0    0  0.12923730036E+03  0.24827172694E+02  0.19177024623E+03  0.23258223416E+03  0.00000000000E+00 0. -1.
</event>
<event>
 7    1  0.2384639E-009  0.8215538E+02  0.7561462E-02  0.1323044E+00
         -1   -1    0    0    0  501 -0.00000000000E+00  0.00000000000E+00  0.32574002438E+02  0.32574002438E+02  0.00000000000E+00 0.  1.
          1   -1    0    0  501    0  0.00000000000E+00 -0.00000000000E+00 -0.36201461167E+03  0.36201461167E+03  0.00000000000E+00 0. -1.
         25    2    1    2    0    0  0.26336876174E+01  0.27778568175E+01 -0.19325703733E+03  0.23024150597E+03  0.12509282871E+03 0.  0.
          5    1    3    3  502    0 -0.41257578543E+02  0.30543584649E+02 -0.16081942631E+03  0.16886520846E+03  0.41800000000E+01 0.  1.
         -5    1    3    3    0  502  0.43891266160E+02 -0.27765727831E+02 -0.32437611021E+02  0.61376297508E+02  0.41800000000E+01 0.  1.
        -11    1    1    2    0    0 -0.30906213031E+01  0.28878675037E+02 -0.50919183859E+01  0.29486563801E+02  0.00000000000E+00 0.  1.
         11    1    1    2    0    0  0.45693368571E+00 -0.31656531855E+02 -0.13109165351E+03  0.13486054433E+03  0.00000000000E+00 0. -1.
</event>
<event>
 7    1  0.2384639E-009  0.1452898E+03  0.7561462E-02  0.1206383E+00
          2   -1    0    0  501    0  0.00000000000E+00  0.00000000000E+00  0.72851889497E+03  0.72851889497E+03  0.00000000000E+00 0. -1.
         -2   -1    0    0    0  501 -0.00000000000E+00 -0.00000000000E+00 -0.40954385599E+02  0.40954385599E+02  0.00000000000E+00 0.  1.
         25    2    1    2    0    0  0.27683130088E+01  0.11636368019E+03  0.51912444784E+03  0.54652020879E+03  0.12508387844E+03 0.  0.
          5    1    3    3  502    0 -0.29622129767E+02 -0.71916540182E+01  0.38985736559E+02  0.49664378729E+02  0.41800000000E+01 0. -1.
         -5    1    3    3    0  502  0.32390442776E+02  0.12355533421E+03  0.48013871128E+03  0.49685583006E+03  0.41800000000E+01 0. -1.
        -11    1    1    2    0    0 -0.31707340078E+02 -0.75983452085E+02  0.54730717654E+02  0.98865018386E+02  0.00000000000E+00 0.  1.
         11    1    1    2    0    0  0.28939027069E+02 -0.40380228109E+02  0.11370934387E+03  0.12408805339E+03  0.00000000000E+00 0. -1.
</event>
<event>
 7    1  0.2384639E-009  0.1347154E+03  0.7561462E-02  0.1220622E+00
         -1   -1    0    0    0  501 -0.00000000000E+00  0.00000000000E+00  0.20651196144E+02  0.20651196144E+02  0.00000000000E+00 0.  1.
          1   -1    0    0  501    0  0.00000000000E+00 -0.00000000000E+00 -0.10833937920E+04  0.10833937920E+04  0.00000000000E+00 0. -1.
         25    2    1    2    0    0 -0.97208474721E+02 -0.25050092748E+02 -0.66659038231E+03  0.68561460109E+03  0.12509056214E+03 0.  0.
          5    1    3    3  502    0 -0.68998449564E+02  0.28067452913E+02 -0.17361230542E+03  0.18896368156E+03  0.41800000000E+01 0.  1.
         -5    1    3    3    0  502 -0.28210025157E+02 -0.53117545661E+02 -0.49297807689E+03  0.49665091953E+03  0.41800000000E+01 0.  1.
        -11    1    1    2    0    0  0.44125929960E+01 -0.27528256193E+02 -0.91079927700E+02  0.95251399443E+02  0.00000000000E+00 0. -1.
         11    1    1    2    0    0  0.92795881725E+02  0.52578348940E+02 -0.30507228586E+03  0.32317898763E+03  0.00000000000E+00 0.  1.
</event>
<event>
 7    1  0.2384639E-009  0.1150435E+03  0.7561462E-02  0.1251505E+00
          1   -1    0    0  501    0  0.00000000000E+00  0.00000000000E+00  0.35102178525E+03  0.35102178525E+03  0.00000000000E+00 0. -1.
         -1   -1    0    0    0  501 -0.00000000000E+00 -0.00000000000E+00 -0.50527004026E+02  0.50527004026E+02  0.00000000000E+00 0.  1.
         25    2    1    2    0    0  0.13372916471E+01 -0.75892060895E+02  0.14928361707E+03  0.20903115404E+03  0.12508809606E+03 0.  0.
          5    1    3    3  502    0  0.35644345890E+02  0.24363398995E+01 -0.10964968859E+01  0.35987912575E+02  0.41800000000E+01 0. -1.
         -5    1    3    3    0  502 -0.34307054243E+02 -0.78328400794E+02  0.15038011396E+03  0.17304324146E+03  0.41800000000E+01 0. -1.
        -11    1    1    2    0    0 -0.18700914438E+02 -0.97688701172E+01  0.42391125212E+01  0.21520341520E+02  0.00000000000E+00 0.  1.
         11    1    1    2    0    0  0.17363622791E+02  0.85660931012E+02  0.14697205163E+03  0.17099729372E+03  0.00000000000E+00 0. -1.
</event>
<event>
 7    1  0.2384639E-009  0.8791760E+02  0.7561462E-02  0.1307974E+00
         -3   -1    0    0    0  501 -0.00000000000E+00  0.00000000000E+00  0.10516754336E+03  0.10516754336E+03  0.00000000000E+00 0.  1.
          3   -1    0    0  501    0  0.00000000000E+00 -0.00000000000E+00 -0.11943551385E+03  0.11943551385E+03  0.00000000000E+00 0. -1.
         25    2    1    2    0    0  0.61323807374E+00 -0.18562525498E+02  0.14529128553E+02  0.12729887360E+03  0.12509582019E+03 0.  0.
          5    1    3    3  502    0  0.30999563942E+02  0.18218284964E+02  0.54154924384E+02  0.65139136520E+02  0.41800000000E+01 0. -1.
         -5    1    3    3    0  502 -0.30386325868E+02 -0.36780810463E+02 -0.39625795831E+02  0.62159737075E+02  0.41800000000E+01 0. -1.
        -11    1    1    2    0    0  0.16340839634E+02  0.51863132741E+02 -0.24662769897E+02  0.59708121697E+02  0.00000000000E+00 0.  1.
         11    1    1    2    0    0 -0.16954077708E+02 -0.33300607242E+02 -0.41343291452E+01  0.37596061910E+02  0.00000000000E+00 0. -1.
</event>
<event>
 7    1  0.2384639E-009  0.8796699E+02  0.7561462E-02  0.1307851E+00
          2   -1    0    0  501    0  0.00000000000E+00  0.00000000000E+00  0.29725993503E+03  0.29725993503E+03  0.00000000000E+00 0. -1.
         -2   -1    0    0    0  501 -0.00000000000E+00 -0.00000000000E+00 -0.50470437447E+02  0.50470437447E+02  0.00000000000E+00 0.  1.
         25    2    1    2    0    0 -0.40511507581E+02 -0.33428015029E+02  0.12428773294E+03  0.18399499533E+03  0.12509237911E+03 0.  0.
          5    1    3    3  502    0 -0.56604163431E+02 -0.24533621411E+02  0.14400113165E+03  0.15671543707E+03  0.41800000000E+01 0. -1.
         -5    1    3    3    0  502  0.16092655850E+02 -0.88943936181E+01 -0.19713398714E+02  0.27279558262E+02  0.41800000000E+01 0. -1.
        -11    1    1    2    0    0  0.22478696400E+02 -0.25280284048E+02  0.95242850134E+01  0.35143940564E+02  0.00000000000E+00 0.  1.
         11    1    1    2    0    0  0.18032811181E+02  0.58708299076E+02  0.11297747963E+03  0.12859143659E+03  0.00000000000E+00 0. -1.
</event>
<event>
 7    1  0.2384639E-009  0.1419779E+03  0.7561462E-02  0.1210692E+00
         -1   -1    0    0    0  501 -0.00000000000E+00  0.00000000000E+00  0.87886377402E+02  0.87886377402E+02  0.00000000000E+00 0.  1.
          1   -1    0    0  501    0  0.00000000000E+00 -0.00000000000E+00 -0.26557070054E+03  0.26557070054E+03  0.00000000000E+00 0. -1.
         25    2    1    2    0    0 -0.52647259525E+02  0.93998822511E+02 -0.94044473723E+02  0.18999810471E+03  0.12508958465E+03 0.  0.
          5    1    3    3  502    0  0.35897755006E+02  0.32269683448E+01 -0.94077916506E+01  0.37483877640E+02  0.41800000000E+01 0. -1.
         -5    1    3    3    0  502 -0.88545014532E+02  0.90771854166E+02 -0.84636682072E+02  0.15251422707E+03  0.41800000000E+01 0. -1.
        -11    1    1    2    0    0 -0.10767455520E+02 -0.59905237191E+01 -0.47576237834E+02  0.49145934514E+02  0.00000000000E+00 0. -1.
         11    1    1    2    0    0  0.63414715045E+02 -0.88008298792E+02 -0.36063611584E+02  0.11431303872E+03  0.00000000000E+00 0.  1.
</event>
<event>
 7    1  0.2384639E-009  0.1958019E+03  0.7561462E-02  0.1153330E+00
          1   -1    0    0  501    0  0.00000000000E+00  0.00000000000E+00  0.68837310062E+03  0.68837310062E+03  0.00000000000E+00 0. -1.
         -1   -1    0    0    0  501 -0.00000000000E+00 -0.00000000000E+00 -0.10080942824E+03  0.10080942824E+03  0.00000000000E+00 0.  1.
         25    2    1    2    0    0 -0.11478725562E+03  0.12605067055E+03  0.55365462443E+03  0.59265980256E+03  0.12508921944E+03 0.  0.
          5    1    3    3  502    0 -0.11536560368E+02 -0.25143548020E+02  0.85463016945E+02  0.89926024584E+02  0.41800000000E+01 0.  1.
         -5    1    3    3    0  502 -0.10325069525E+03  0.15119421857E+03  0.46819160748E+03  0.50273377797E+03  0.41800000000E+01 0.  1.
        -11    1    1    2    0    0  0.15359063991E+02 -0.58018117265E+02 -0.21717174912E+02  0.63825061409E+02  0.00000000000E+00 0.  1.
         11    1    1    2    0    0  0.99428191627E+02 -0.68032553286E+02  0.55626222868E+02  0.13269766489E+03  0.00000000000E+00 0. -1.
</event>
<event>
 7    1  0.2384639E-009  0.9675782E+02  0.7561462E-02  0.1287265E+00
         -2   -1    0    0    0  501 -0.00000000000E+00  0.00000000000E+00  0.12632987903E+03  0.12632987903E+03  0.00000000000E+00 0.  1.
          2   -1    0    0  501    0  0.00000000000E+00 -0.00000000000E+00 -0.11516587411E+03  0.11516587411E+03  0.00000000000E+00 0. -1.
         25    2    1    2    0    0 -0.43035001030E+02 -0.59149338468E+01  0.36802737647E+02  0.13743776753E+03  0.12509076981E+03 0.  0.
          5    1    3    3  502    0 -0.98090724520E+01 -0.46006790805E+02  0.63210566467E+02  0.78904314303E+02  0.41800000000E+01 0. -1.
         -5    1    3    3    0  502 -0.33225928578E+02  0.40091856958E+02 -0.26407828820E+02  0.58533453232E+02  0.41800000000E+01 0. -1.
        -11    1    1    2    0    0  0.33850185339E+02  0.43637234283E+02 -0.33293131475E+02  0.64486245563E+02  0.00000000000E+00 0. -1.
         11    1    1    2    0    0  0.91848156912E+01 -0.37722300436E+02  0.76543987557E+01  0.39571740040E+02  0.00000000000E+00 0.  1.
</event>
<event>
 7    1  0.2680761E-009  0.9016101E+02  0.7561462E-02  0.1302462E+00
         -1   -1    0    0    0  501 -0.00000000000E+00  0.00000000000E+00  0.10417757546E+02  0.10417757546E+02  0.00000000000E+00 0.  1.
          1   -1    0    0  501    0  0.00000000000E+00 -0.00000000000E+00 -0.16250461934E+04  0.16250461934E+04  0.00000000000E+00 0. -1.
         25    2    1    2    0    0  0.41236199276E+02 -0.93078835555E+01 -0.12588586963E+04  0.12657639062E+04  0.12508392513E+03 0.  0.
          5    1    3    3  502    0 -0.14119857939E+02  0.16513586100E+02 -0.98058151989E+03  0.98083110599E+03  0.41800000000E+01 0. -1.
         -5    1    3    3    0  502  0.55356057215E+02 -0.25821469656E+02 -0.27827717639E+03  0.28493280026E+03  0.41800000000E+01 0. -1.
        -11    1    1    2    0    0 -0.59050247029E+02  0.32753583345E+02 -0.19777621042E+03  0.20898602418E+03  0.00000000000E+00 0. -1.
         11    1    1    2    0    0  0.17814047753E+02 -0.23445699789E+02 -0.15799352914E+03  0.16071402050E+03  0.00000000000E+00 0.  1.
</event>
<event>
 7    1  0.2384639E-009  0.1951571E+03  0.7561462E-02  0.1153891E+00
          2   -1    0    0  501    0  0.00000000000E+00  0.00000000000E+00  0.64873952673E+03  0.64873952673E+03  0.00000000000E+00 0.  1.
         -2   -1    0    0    0  501 -0.00000000000E+00 -0.00000000000E+00 -0.63512662460E+02  0.63512662460E+02  0.00000000000E+00 0. -1.
         25    2    1    2    0    0  0.24465706496E+02 -0.16733849262E+03  0.25764635145E+03  0.33261170581E+03  0.12509261578E+03 0.  0.
          5    1    3    3  502    0  0.63414064737E+02 -0.57373235781E+02  0.15542617456E+03  0.17744802036E+03  0.41800000000E+01 0. -1.
         -5    1    3    3    0  502 -0.38948358242E+02 -0.10996525684E+03  0.10222017689E+03  0.15516368545E+03  0.41800000000E+01 0. -1.
        -11    1    1    2    0    0  0.24183169442E+02  0.11064386179E+03  0.23341003764E+03  0.25943618774E+03  0.00000000000E+00 0.  1.
         11    1    1    2    0    0 -0.48648875938E+02  0.56694630828E+02  0.94170475177E+02  0.12020429564E+03  0.00000000000E+00 0. -1.
</event>
<event>
 7    1  0.2384639E-009  0.1987408E+03  0.7561462E-02  0.1150806E+00
         -2   -1    0    0    0  501 -0.00000000000E+00  0.00000000000E+00  0.33037673967E+02  0.33037673967E+02  0.00000000000E+00 0. -1.
          2   -1    0    0  501    0  0.00000000000E+00 -0.00000000000E+00 -0.15014662674E+04  0.15014662674E+04  0.00000000000E+00 0.  1.
         25    2    1    2    0    0 -0.17234782570E+03  0.70302019098E+01 -0.43550788739E+03  0.48483760708E+03  0.12508872251E+03 0.  0.
          5    1    3    3  502    0 -0.19084330246E+03  0.14526617181E+02 -0.37595407464E+03  0.42188994695E+03  0.41800000000E+01 0.  1.
         -5    1    3    3    0  502  0.18495476763E+02 -0.74964152714E+01 -0.59553812751E+02  0.62947660130E+02  0.41800000000E+01 0.  1.
        -11    1    1    2    0    0  0.16410788109E+03 -0.24887087738E+02 -0.95401623871E+03  0.96834794753E+03  0.00000000000E+00 0.  1.
         11    1    1    2    0    0  0.82399446106E+01  0.17856885829E+02 -0.78904467324E+02  0.81318386742E+02  0.00000000000E+00 0. -1.
</event>
<event>
 7    1  0.2384639E-009  0.9055350E+02  0.7561462E-02  0.1301517E+00
         -2   -1    0    0    0  501 -0.00000000000E+00  0.00000000000E+00  0.24416625129E+03  0.24416625129E+03  0.00000000000E+00 0. -1.
          2   -1    0    0  501    0  0.00000000000E+00 -0.00000000000E+00 -0.57633298314E+02  0.57633298314E+02  0.00000000000E+00 0.  1.
         25    2    1    2    0    0 -0.12077578020E+01 -0.39278044229E+02  0.13318699788E+03  0.18689793610E+03  0.12509132134E+03 0.  0.
          5    1    3    3  502    0 -0.35867073950E+02  0.32180254481E+02  0.31161913540E+02  0.57537405465E+02  0.41800000000E+01 0.  1.
         -5    1    3    3    0  502  0.34659316148E+02 -0.71458298710E+02  0.10202508434E+03  0.12936053063E+03  0.41800000000E+01 0.  1.
        -11    1    1    2    0    0 -0.12168835052E+02  0.48980484486E+00  0.69682623198E+02  0.70738874963E+02  0.00000000000E+00 0. -1.
         11    1    1    2    0    0  0.13376592854E+02  0.38788239384E+02 -0.16336668104E+02  0.44162738544E+02  0.00000000000E+00 0.  1.
</event>
<event>
 7    1  0.2384639E-009  0.1455487E+03  0.7561462E-02  0.1206052E+00
         -2   -1    0    0    0  501 -0.00000000000E+00  0.00000000000E+00  0.11518593310E+03  0.11518593310E+03  0.00000000000E+00 0.  1.
          2   -1    0    0  501    0  0.00000000000E+00 -0.00000000000E+00 -0.30369824097E+03  0.30369824097E+03  0.00000000000E+00 0. -1.
         25    2    1    2    0    0  0.52359075417E+02 -0.11897077372E+03 -0.13103363505E+02  0.18087175451E+03  0.12508947064E+03 0.  0.
          5    1    3    3  502    0  0.16168334327E+02 -0.47727830586E+02 -0.67335707824E+02  0.84207664707E+02  0.41800000000E+01 0.  1.
         -5    1    3    3    0  502  0.36190741090E+02 -0.71242943131E+02  0.54232344319E+02  0.96664089800E+02  0.41800000000E+01 0.  1.
        -11    1    1    2    0    0 -0.47468986884E+01  0.11234321131E+03 -0.13004054244E+03  0.17191298047E+03  0.00000000000E+00 0. -1.
         11    1    1    2    0    0 -0.47612176728E+02  0.66275624039E+01 -0.45368401921E+02  0.66099439098E+02  0.00000000000E+00 0.  1.
</event>
<event>
 7    1  0.2384639E-009  0.2457823E+03  0.7561462E-02  0.1116000E+00
         -4   -1    0    0    0  501 -0.00000000000E+00  0.00000000000E+00  0.79327865405E+03  0.79327865405E+03  0.00000000000E+00 0. -1.
          4   -1    0    0  501    0  0.00000000000E+00 -0.00000000000E+00 -0.11637362038E+03  0.11637362038E+03  0.00000000000E+00 0.  1.
         25    2    1    2    0    0 -0.81704874090E+02 -0.22544817492E+03  0.11872550666E+03  0.29537351970E+03  0.12508878520E+03 0.  0.
          5    1    3    3  502    0 -0.55400441041E+02 -0.59337159334E+02  0.95714894823E+02  0.12557436377E+03  0.41800000000E+01 0. -1.
         -5    1    3    3    0  502 -0.26304433049E+02 -0.16611101559E+03  0.23010611839E+02  0.16979915593E+03  0.41800000000E+01 0. -1.
        -11    1    1    2    0    0  0.29212248159E+02  0.41480083165E+02  0.21963736535E+03  0.22542077323E+03  0.00000000000E+00 0.  1.
         11    1    1    2    0    0  0.52492625931E+02  0.18396809176E+03  0.33854216165E+03  0.38885798150E+03  0.00000000000E+00 0. -1.
</event>
<event>
 7    1  0.2384639E-009  0.9278007E+02  0.7561462E-02  0.1296256E+00
          1   -1    0    0  501    0  0.00000000000E+00  0.00000000000E+00  0.36534656941E+03  0.36534656941E+03  0.00000000000E+00 0. -1.
         -1   -1    0    0    0  501 -0.00000000000E+00 -0.00000000000E+00 -0.32598482284E+02  0.32598482284E+02  0.00000000000E+00 0.  1.
         25    2    1    2    0    0  0.11973744223E+02 -0.13685150478E+02  0.19150670504E+03  0.22946213755E+03  0.12508957031E+03 0.  0.
          5    1    3    3  502    0 -0.48900654536E+02 -0.13743034215E+02  0.14205547000E+03  0.15092174781E+03  0.41800000000E+01 0.  1.
         -5    1    3    3    0  502  0.60874398759E+02  0.57883737867E-01  0.49451235037E+02  0.78540389746E+02  0.41800000000E+01 0.  1.
        -11    1    1    2    0    0  0.26748601439E+02 -0.95673066088E+01  0.10713537994E+02  0.30361174731E+02  0.00000000000E+00 0.  1.
         11    1    1    2    0    0 -0.38722345662E+02  0.23252457086E+02  0.13052784409E+03  0.13812173941E+03  0.00000000000E+00 0. -1.
</event>
<event>
 7    1  0.2384639E-009  0.2159781E+03  0.7561462E-02  0.1136918E+00
          1   -1    0    0  501    0  0.00000000000E+00  0.00000000000E+00  0.35922773092E+03  0.35922773092E+03  0.00000000000E+00 0. -1.
         -1   -1    0    0    0  501 -0.00000000000E+00 -0.00000000000E+00 -0.14682552986E+03  0.14682552986E+03  0.00000000000E+00 0.  1.
         25    2    1    2    0    0  0.10951837052E+03 -0.16821554840E+03  0.84624363768E+02  0.25119475437E+03  0.12508707957E+03 0.  0.
          5    1    3    3  502    0  0.24454342795E+02  0.14277548708E+02  0.32223985091E+02  0.43101286451E+02  0.41800000000E+01 0. -1.
         -5    1    3    3    0  502  0.85064027724E+02 -0.18249309711E+03  0.52400378677E+02  0.20809346792E+03  0.41800000000E+01 0. -1.
        -11    1    1    2    0    0 -0.77553887259E+01  0.25569836729E+02 -0.13348960479E+02  0.29869003172E+02  0.00000000000E+00 0.  1.
         11    1    1    2    0    0 -0.10176298179E+03  0.14264571167E+03  0.14112679776E+03  0.22498950324E+03  0.00000000000E+00 0. -1.
</event>
<event>
 7    1  0.2384639E-009  0.1216553E+03  0.7561462E-02  0.1240391E+00
         -2   -1    0    0    0  501 -0.00000000000E+00  0.00000000000E+00  0.32777349472E+02  0.32777349472E+02  0.00000000000E+00 0.  1.
          2   -1    0    0  501    0  0.00000000000E+00 -0.00000000000E+00 -0.56102015896E+03  0.56102015896E+03  0.00000000000E+00 0. -1.
         25    2    1    2    0    0 -0.77915433140E+02  0.15890933223E+01 -0.25193298513E+03  0.29187893276E+03  0.12509893067E+03 0.  0.
          5    1    3    3  502    0 -0.81914638429E+02  0.38790726424E+02 -0.98606830408E+02  0.13399816360E+03  0.41800000000E+01 0. -1.
         -5    1    3    3    0  502  0.39992052884E+01 -0.37201633102E+02 -0.15332615473E+03  0.15788076916E+03  0.41800000000E+01 0. -1.
        -11    1    1    2    0    0  0.96372811948E+02 -0.29968881378E+01 -0.18359219551E+03  0.20737115149E+03  0.00000000000E+00 0.  1.
         11    1    1    2    0    0 -0.18457378808E+02  0.14077948155E+01 -0.92717628853E+02  0.94547424179E+02  0.00000000000E+00 0. -1.
</event>
<event>
 7    1  0.2384639E-009  0.8760960E+02  0.7561462E-02  0.1308746E+00
          1   -1    0    0  501    0  0.00000000000E+00  0.00000000000E+00  0.89524685673E+02  0.89524685673E+02  0.00000000000E+00 0. -1.
         -1   -1    0    0    0  501 -0.00000000000E+00 -0.00000000000E+00 -0.15116801377E+03  0.15116801377E+03  0.00000000000E+00 0.  1.
         25    2    1    2    0    0 -0.26619200779E+01 -0.41081800592E+02 -0.42832153282E+02  0.13847976487E+03  0.12508897539E+03 0.  0.
          5    1    3    3  502    0  0.41340518141E+02 -0.43022481789E+02 -0.65556670343E+02  0.88741883043E+02  0.41800000000E+01 0.  1.
         -5    1    3    3    0  502 -0.44002438219E+02  0.19406811970E+01  0.22724517061E+02  0.49737881824E+02  0.41800000000E+01 0.  1.
        -11    1    1    2    0    0  0.14993019384E+02 -0.10386641064E+02  0.26751236799E+02  0.32377486207E+02  0.00000000000E+00 0. -1.
         11    1    1    2    0    0 -0.12331099306E+02  0.51468441657E+02 -0.45562411612E+02  0.69835448367E+02  0.00000000000E+00 0.  1.
</event>
<event>
 7    1  0.2384639E-009  0.1020412E+03  0.7561462E-02  0.1276061E+00
         -1   -1    0    0    0  501 -0.00000000000E+00  0.00000000000E+00  0.19452247253E+03  0.19452247253E+03  0.00000000000E+00 0.  1.
          1   -1    0    0  501    0  0.00000000000E+00 -0.00000000000E+00 -0.75455395783E+02  0.75455395783E+02  0.00000000000E+00 0. -1.
         25    2    1    2    0    0 -0.15545241549E+02  0.63545079353E+02  0.55247357322E+02  0.15157921859E+03  0.12507740552E+03 0.  0.
          5    1    3    3  502    0 -0.58424724083E+02  0.48146262725E+02  0.70317104603E+02  0.10340927714E+03  0.41800000000E+01 0.  1.
         -5    1    3    3    0  502  0.42879482534E+02  0.15398816628E+02 -0.15069747281E+02  0.48169941447E+02  0.41800000000E+01 0.  1.
        -11    1    1    2    0    0 -0.17420297603E+02 -0.34167677835E+02 -0.28217020559E+01  0.38455935559E+02  0.00000000000E+00 0. -1.
         11    1    1    2    0    0  0.32965539152E+02 -0.29377401518E+02  0.66641421482E+02  0.79942714169E+02  0.00000000000E+00 0.  1.
</event>
<event>
 7    1  0.2384639E-009  0.2252412E+03  0.7561462E-02  0.1130035E+00
          1   -1    0    0  501    0  0.00000000000E+00  0.00000000000E+00  0.43280666401E+03  0.43280666401E+03  0.00000000000E+00 0. -1.
         -1   -1    0    0    0  501 -0.00000000000E+00 -0.00000000000E+00 -0.14507251984E+03  0.14507251984E+03  0.00000000000E+00 0.  1.
         25    2    1    2    0    0  0.96387575672E+02  0.18934076418E+03  0.57208322163E+02  0.25310509441E+03  0.12509559132E+03 0.  0.
          5    1    3    3  502    0  0.63014777673E+02  0.47957405274E+02  0.71892431826E+02  0.10703629795E+03  0.41800000000E+01 0. -1.
         -5    1    3    3    0  502  0.33372797999E+02  0.14138335890E+03 -0.14684109662E+02  0.14606879645E+03  0.41800000000E+01 0. -1.
        -11    1    1    2    0    0 -0.10318080996E+03 -0.12926068344E+03  0.19042042575E+03  0.25221923474E+03  0.00000000000E+00 0. -1.
         11    1    1    2    0    0  0.67932342906E+01 -0.60080080731E+02  0.40105396255E+02  0.72554854707E+02  0.00000000000E+00 0.  1.
</event>
<event>
 7    1  0.2694419E-009  0.1570369E+03  0.7561462E-02  0.1192083E+00
          1   -1    0    0  501    0  0.00000000000E+00  0.00000000000E+00  0.39007815809E+03  0.39007815809E+03  0.00000000000E+00 0. -1.
         -1   -1    0    0    0  501 -0.00000000000E+00 -0.00000000000E+00 -0.71375821789E+02  0.71375821789E+02  0.00000000000E+00 0.  1.
         25    2    1    2    0    0 -0.92140049500E+02 -0.83526012752E+02  0.20147618634E+03  0.26777717861E+03  0.12508229368E+03 0.  0.
          5    1    3    3  502    0 -0.72343947070E+02 -0.11381373727E+03  0.18174103519E+03  0.22635036943E+03  0.41800000000E+01 0. -1.
         -5    1    3    3    0  502 -0.19796102431E+02  0.30287724515E+02  0.19735151151E+02  0.41426809179E+02  0.41800000000E+01 0. -1.
        -11    1    1    2    0    0  0.83976975820E+02  0.30918168683E+02  0.35782101923E+02  0.96376472443E+02  0.00000000000E+00 0.  1.
         11    1    1    2    0    0  0.81630736803E+01  0.52607844069E+02  0.81444048036E+02  0.97300328827E+02  0.00000000000E+00 0. -1.
</event>
<event>
 7    1  0.2384639E-009  0.9337887E+02  0.7561462E-02  0.1294870E+00
          1   -1    0    0  501    0  0.00000000000E+00  0.00000000000E+00  0.20587245628E+03  0.20587245628E+03  0.00000000000E+00 0. -1.
         -1   -1    0    0    0  501 -0.00000000000E+00 -0.00000000000E+00 -0.58601588543E+02  0.58601588543E+02  0.00000000000E+00 0.  1.
         25    2    1    2    0    0 -0.70578662167E+01  0.44613653807E+01  0.12203967700E+03  0.17496071001E+03  0.12509136671E+03 0.  0.
          5    1    3    3  502    0 -0.59033143598E+02  0.22479120635E+02  0.36211610314E+02  0.72931310348E+02  0.41800000000E+01 0. -1.
         -5    1    3    3    0  502  0.51975277381E+02 -0.18017755254E+02  0.85828066688E+02  0.10202939966E+03  0.41800000000E+01 0. -1.
        -11    1    1    2    0    0 -0.25690790909E+02 -0.19493479211E+02 -0.14946110736E+02  0.35544320157E+02  0.00000000000E+00 0.  1.
         11    1    1    2    0    0  0.32748657125E+02  0.15032113830E+02  0.40177301469E+02  0.53969014657E+02  0.00000000000E+00 0. -1.
</event>
<event>
 7    1  0.2384639E-009  0.1640100E+03  0.7561462E-02  0.1184242E+00
         -2   -1    0    0    0  501 -0.00000000000E+00  0.00000000000E+00  0.50355483280E+02  0.50355483280E+02  0.00000000000E+00 0. -1.
          2   -1    0    0  501    0  0.00000000000E+00 -0.00000000000E+00 -0.69031073552E+03  0.69031073552E+03  0.00000000000E+00 0.  1.
         25    2    1    2    0    0  0.14928562463E+03 -0.24103974395E+02 -0.36286865789E+03  0.41253869173E+03  0.12508920814E+03 0.  0.
          5    1    3    3  502    0  0.26226747397E+02 -0.44342880657E+02 -0.36913962128E+02  0.63515717298E+02  0.41800000000E+01 0.  1.
         -5    1    3    3    0  502  0.12305887723E+03  0.20238906261E+02 -0.32595469576E+03  0.34902297443E+03  0.41800000000E+01 0.  1.
        -11    1    1    2    0    0 -0.60317892988E+02  0.14728210172E+02 -0.20201595961E+03  0.21134241488E+03  0.00000000000E+00 0.  1.
         11    1    1    2    0    0 -0.88967731643E+02  0.93757642235E+01 -0.75070634734E+02  0.11678511218E+03  0.00000000000E+00 0. -1.
</event>
<event>
 7    1  0.2384639E-009  0.1639060E+03  0.7561462E-02  0.1184356E+00
          1   -1    0    0  501    0  0.00000000000E+00  0.00000000000E+00  0.13322891242E+03  0.13322891242E+03  0.00000000000E+00 0. -1.
         -1   -1    0    0    0  501 -0.00000000000E+00 -0.00000000000E+00 -0.22642186662E+03  0.22642186662E+03  0.00000000000E+00 0.  1.
         25    2    1    2    0    0  0.60929344067E+02  0.11947690062E+03 -0.29745639657E+02  0.18579558719E+03  0.12509229549E+03 0.  0.
          5    1    3    3  502    0  0.65594873335E+02  0.13774288742E+03 -0.47213167489E+02  0.15975714703E+03  0.41800000000E+01 0. -1.
         -5    1    3    3    0  502 -0.46655292678E+01 -0.18265986803E+02  0.17467527833E+02  0.26038440157E+02  0.41800000000E+01 0. -1.
        -11    1    1    2    0    0  0.76627641776E+01 -0.72126000526E+02 -0.53047011705E+02  0.89860243476E+02  0.00000000000E+00 0.  1.
         11    1    1    2    0    0 -0.68592108245E+02 -0.47350900096E+02 -0.10400302840E+02  0.83994948375E+02  0.00000000000E+00 0. -1.
</event>
<event>
 7    1  0.2384639E-009  0.1041842E+03  0.7561462E-02  0.1271735E+00
          2   -1    0    0  501    0  0.00000000000E+00  0.00000000000E+00  0.12710351654E+04  0.12710351654E+04  0.00000000000E+00 0. -1.
         -2   -1    0    0    0  501 -0.00000000000E+00 -0.00000000000E+00 -0.14101137558E+02  0.14101137558E+02  0.00000000000E+00 0.  1.
         25    2    1    2    0    0  0.39510012599E+02  0.23383536705E+02  0.97361540257E+03  0.98269117098E+03  0.12508858665E+03 0.  0.
          5    1    3    3  502    0 -0.22032770807E+02  0.34701822985E+02  0.72881268501E+03  0.72998291880E+03  0.41800000000E+01 0.  1.
         -5    1    3    3    0  502  0.61542783405E+02 -0.11318286280E+02  0.24480271756E+03  0.25270825217E+03  0.41800000000E+01 0.  1.
        -11    1    1    2    0    0 -0.38758851359E+02  0.31194865500E+02  0.10985695012E+03  0.12059816616E+03  0.00000000000E+00 0.  1.
         11    1    1    2    0    0 -0.75116123998E+00 -0.54578402205E+02  0.17346167513E+03  0.18184696580E+03  0.00000000000E+00 0. -1.
</event>
<event>
 7    1  0.2384639E-009  0.9888626E+02  0.7561462E-02  0.1282656E+00
         -1   -1    0    0    0  501 -0.00000000000E+00  0.00000000000E+00  0.28934773720E+02  0.28934773720E+02  0.00000000000E+00 0. -1.
          1   -1    0    0  501    0  0.00000000000E+00 -0.00000000000E+00 -0.52186209571E+03  0.52186209571E+03  0.00000000000E+00 0.  1.
         25    2    1    2    0    0  0.27111414814E+02  0.47739780581E+02 -0.23484033022E+03  0.27168406111E+03  0.12509249739E+03 0.  0.
          5    1    3    3  502    0  0.10803498061E+02  0.65796296929E+02 -0.23762716718E+03  0.24684005194E+03  0.41800000000E+01 0.  1.
         -5    1    3    3    0  502  0.16307916753E+02 -0.18056516349E+02  0.27868369618E+01  0.24844009172E+02  0.41800000000E+01 0.  1.
        -11    1    1    2    0    0  0.20066699246E+02  0.16911339828E+02 -0.63165113966E+02  0.68399542804E+02  0.00000000000E+00 0.  1.
         11    1    1    2    0    0 -0.47178114060E+02 -0.64651120408E+02 -0.19492187781E+03  0.21071326551E+03  0.00000000000E+00 0. -1.
</event>
<event>
 7    1  0.2443755E-009  0.1219723E+03  0.7561462E-02  0.1239878E+00
          2   -1    0    0  501    0  0.00000000000E+00  0.00000000000E+00  0.19438407464E+03  0.19438407464E+03  0.00000000000E+00 0. -1.
         -2   -1    0    0    0  501 -0.00000000000E+00 -0.00000000000E+00 -0.10101726782E+03  0.10101726782E+03  0.00000000000E+00 0.  1.
         25    2    1    2    0    0 -0.10450318159E+02  0.73071201842E+02  0.10257058733E+03  0.17781180935E+03  0.12509078492E+03 0.  0.
          5    1    3    3  502    0 -0.50118757038E+02  0.73129501969E+02  0.10543846685E+03  0.13782074066E+03  0.41800000000E+01 0.  1.
         -5    1    3    3    0  502  0.39668438879E+02 -0.58300126931E-01 -0.28678795232E+01  0.39991068690E+02  0.41800000000E+01 0.  1.
        -11    1    1    2    0    0  0.44936058723E+02 -0.14292831678E+02  0.66518374981E+01  0.47621227966E+02  0.00000000000E+00 0. -1.
         11    1    1    2    0    0 -0.34485740564E+02 -0.58778370164E+02 -0.15855618005E+02  0.69968305137E+02  0.00000000000E+00 0.  1.
</event>
<event>
 7    1  0.2384639E-009  0.1026948E+03  0.7561462E-02  0.1274729E+00
          2   -1    0    0  501    0  0.00000000000E+00  0.00000000000E+00  0.77259634906E+03  0.77259634906E+03  0.00000000000E+00 0. -1.
         -2   -1    0    0    0  501 -0.00000000000E+00 -0.00000000000E+00 -0.28169403911E+02  0.28169403911E+02  0.00000000000E+00 0.  1.
         25    2    1    2    0    0  0.32587585945E+02  0.67443947050E+02  0.58052570913E+03  0.59855614169E+03  0.12509484022E+03 0.  0.
          5    1    3    3  502    0 -0.10215038502E+02  0.76338565572E+02  0.18271143498E+03  0.19832514838E+03  0.41800000000E+01 0.  1.
         -5    1    3    3    0  502  0.42802624447E+02 -0.88946185223E+01  0.39781427414E+03  0.40023099331E+03  0.41800000000E+01 0.  1.
        -11    1    1    2    0    0 -0.19370073909E+02 -0.43172967180E+01 -0.57918975523E+01  0.20673289323E+02  0.00000000000E+00 0.  1.
         11    1    1    2    0    0 -0.13217512036E+02 -0.63126650332E+02  0.16969313357E+03  0.18153632195E+03  0.00000000000E+00 0. -1.
</event>
<event>
 7    1  0.2384639E-009  0.1942114E+03  0.7561462E-02  0.1154717E+00
         -2   -1    0    0    0  501 -0.00000000000E+00  0.00000000000E+00  0.38006679077E+02  0.38006679077E+02  0.00000000000E+00 0.  1.
          2   -1    0    0  501    0  0.00000000000E+00 -0.00000000000E+00 -0.11973549575E+04  0.11973549575E+04  0.00000000000E+00 0. -1.
         25    2    1    2    0    0  0.93796865700E+02  0.13886508313E+03 -0.81867356997E+03  0.84495822017E+03  0.12508643542E+03 0.  0.
          5    1    3    3  502    0 -0.27337814415E+02  0.37323899068E+02 -0.12146969727E+03  0.13004918029E+03  0.41800000000E+01 0.  1.
         -5    1    3    3    0  502  0.12113468011E+03  0.10154118406E+03 -0.69720387270E+03  0.71490903988E+03  0.41800000000E+01 0.  1.
        -11    1    1    2    0    0 -0.68691243244E+02 -0.35193330581E+02 -0.93815965155E+02  0.12148453701E+03  0.00000000000E+00 0.  1.
         11    1    1    2    0    0 -0.25105622456E+02 -0.10367175255E+03 -0.24685874329E+03  0.26891887939E+03  0.00000000000E+00 0. -1.
</event>
<event>
 7    1  0.2384639E-009  0.1036906E+03  0.7561462E-02  0.1272721E+00
          2   -1    0    0  501    0  0.00000000000E+00  0.00000000000E+00  0.76208018281E+02  0.76208018281E+02  0.00000000000E+00 0. -1.
         -2   -1    0    0    0  501 -0.00000000000E+00 -0.00000000000E+00 -0.18878737499E+03  0.18878737499E+03  0.00000000000E+00 0.  1.
         25    2    1    2    0    0 -0.61191456879E+02 -0.40425526988E+02 -0.27561128451E+02  0.14760817576E+03  0.12509972071E+03 0.  0.
          5    1    3    3  502    0 -0.84110055562E+02  0.27748708967E+01  0.11287775212E+02  0.85012279256E+02  0.41800000000E+01 0.  1.
         -5    1    3    3    0  502  0.22918598683E+02 -0.43200397884E+02 -0.38848903663E+02  0.62595896501E+02  0.41800000000E+01 0.  1.
        -11    1    1    2    0    0  0.28534293104E+02  0.24939902507E+02 -0.67063125658E+02  0.77030302109E+02  0.00000000000E+00 0.  1.
         11    1    1    2    0    0  0.32657163775E+02  0.15485624481E+02 -0.17955102596E+02  0.40356915400E+02  0.00000000000E+00 0. -1.
</event>
<event>
 7    1  0.2384639E-009  0.8963680E+02  0.7561462E-02  0.1303734E+00
          1   -1    0    0  501    0  0.00000000000E+00  0.00000000000E+00  0.45189628996E+02  0.45189628996E+02  0.00000000000E+00 0. -1.
         -1   -1    0    0    0  501 -0.00000000000E+00 -0.00000000000E+00 -0.54140476396E+03  0.54140476396E+03  0.00000000000E+00 0.  1.
         25    2    1    2    0    0 -0.17418686051E+02 -0.27382120747E+02 -0.47222170679E+03  0.48958512158E+03  0.12508820787E+03 0.  0.
          5    1    3    3  502    0 -0.15374984503E+01  0.39568843607E+02 -0.32016926607E+03  0.32263584522E+03  0.41800000000E+01 0. -1.
         -5    1    3    3    0  502 -0.15881187600E+02 -0.66950964355E+02 -0.15205244071E+03  0.16694927635E+03  0.41800000000E+01 0. -1.
        -11    1    1    2    0    0  0.40247855904E+02  0.90798119538E+01  0.18661339571E+02  0.45283313533E+02  0.00000000000E+00 0. -1.
         11    1    1    2    0    0 -0.22829169853E+02  0.18302308794E+02 -0.42654767745E+02  0.51725957842E+02  0.00000000000E+00 0.  1.
</event>
<event>
 7    1  0.2384639E-009  0.1142196E+03  0.7561462E-02  0.1252950E+00
          1   -1    0    0  501    0  0.00000000000E+00  0.00000000000E+00  0.92725729335E+02  0.92725729335E+02  0.00000000000E+00 0. -1.
         -1   -1    0    0    0  501 -0.00000000000E+00 -0.00000000000E+00 -0.19577249560E+03  0.19577249560E+03  0.00000000000E+00 0.  1.
         25    2    1    2    0    0 -0.11360114220E+02 -0.61579800725E+02 -0.23538835590E+01  0.13990904006E+03  0.12509146521E+03 0.  0.
          5    1    3    3  502    0  0.38080778876E+02 -0.60360698249E+02  0.33231848421E+02  0.78837730576E+02  0.41800000000E+01 0. -1.
         -5    1    3    3    0  502 -0.49440893096E+02 -0.12191024755E+01 -0.35585731980E+02  0.61071309479E+02  0.41800000000E+01 0. -1.
        -11    1    1    2    0    0 -0.38010084838E+02  0.32551259439E+02 -0.33120567683E+02  0.60011024355E+02  0.00000000000E+00 0. -1.
         11    1    1    2    0    0  0.49370199058E+02  0.29028541286E+02 -0.67572315024E+02  0.88578160525E+02  0.00000000000E+00 0.  1.
</event>
<event>
 7    1  0.2384639E-009  0.1003730E+03  0.7561462E-02  0.1279513E+00
         -1   -1    0    0    0  501 -0.00000000000E+00  0.00000000000E+00  0.30940976124E+03  0.30940976124E+03  0.00000000000E+00 0.  1.
          1   -1    0    0  501    0  0.00000000000E+00 -0.00000000000E+00 -0.45308197252E+02  0.45308197252E+02  0.00000000000E+00 0. -1.
         25    2    1    2    0    0  0.24584111879E+02  0.22840405084E+02  0.97725147653E+02  0.16224814259E+03  0.12509273612E+03 0.  0.
          5    1    3    3  502    0 -0.94627781473E+01  0.69712487712E+02  0.63299006646E+02  0.94729149451E+02  0.41800000000E+01 0.  1.
         -5    1    3    3    0  502  0.34046890026E+02 -0.46872082628E+02  0.34426141007E+02  0.67518993143E+02  0.41800000000E+01 0.  1.
        -11    1    1    2    0    0 -0.11413649666E+02  0.22361231788E+02  0.66819979286E+01  0.25979707121E+02  0.00000000000E+00 0. -1.
         11    1    1    2    0    0 -0.13170462213E+02 -0.45201636872E+02  0.15969441840E+03  0.16649010877E+03  0.00000000000E+00 0.  1.
</event>
<event>
 7    1  0.2384639E-009  0.1576226E+03  0.7561462E-02  0.1191407E+00
          2   -1    0    0  501    0  0.00000000000E+00  0.00000000000E+00  0.31652682407E+02  0.31652682407E+02  0.00000000000E+00 0.  1.
         -2   -1    0    0    0  501 -0.00000000000E+00 -0.00000000000E+00 -0.86768327480E+03  0.86768327480E+03  0.00000000000E+00 0. -1.
         25    2    1    2    0    0 -0.89296109410E+02 -0.49684937565E+02 -0.35157102303E+03  0.38689985979E+03  0.12508768562E+03 0.  0.
          5    1    3    3  502    0 -0.77740150496E+02 -0.87670217054E+02 -0.29682457289E+03  0.31914244066E+03  0.41800000000E+01 0. -1.
         -5    1    3    3    0  502 -0.11555958914E+02  0.37985279490E+02 -0.54746450142E+02  0.67757419132E+02  0.41800000000E+01 0. -1.
        -11    1    1    2    0    0  0.83607389092E+01  0.73290709737E+02 -0.31024700460E+03  0.31889596102E+03  0.00000000000E+00 0.  1.
         11    1    1    2    0    0  0.80935370501E+02 -0.23605772172E+02 -0.17421256476E+03  0.19354013640E+03  0.00000000000E+00 0. -1.
</event>
<event>
 7    1  0.2384639E-009  0.1240197E+03  0.7561462E-02  0.1236609E+00
         -2   -1    0    0    0  501 -0.00000000000E+00  0.00000000000E+00  0.11433227117E+03  0.11433227117E+03  0.00000000000E+00 0.  1.
          2   -1    0    0  501    0  0.00000000000E+00 -0.00000000000E+00 -0.21554689919E+03  0.21554689919E+03  0.00000000000E+00 0. -1.
         25    2    1    2    0    0 -0.44131362326E+02 -0.71783802164E+02 -0.13328575751E+03  0.20127985677E+03  0.12509195094E+03 0.  0.
          5    1    3    3  502    0 -0.58054471267E+02 -0.18426548466E+01 -0.11283200825E+03  0.12697342831E+03  0.41800000000E+01 0.  1.
         -5    1    3    3    0  502  0.13923108940E+02 -0.69941147317E+02 -0.20453749257E+02  0.74306428452E+02  0.41800000000E+01 0.  1.
        -11    1    1    2    0    0  0.69040509086E+02  0.49553794064E+02  0.40537165989E+02  0.94156424249E+02  0.00000000000E+00 0.  1.
         11    1    1    2    0    0 -0.24909146760E+02  0.22230008100E+02 -0.84660365017E+01  0.34442889345E+02  0.00000000000E+00 0. -1.
</event>
<event>
 7    1  0.2384639E-009  0.1316235E+03  0.7561462E-02  0.1225066E+00
          1   -1    0    0  501    0  0.00000000000E+00  0.00000000000E+00  0.34380126117E+03  0.34380126117E+03  0.00000000000E+00 0. -1.
         -1   -1    0    0    0  501 -0.00000000000E+00 -0.00000000000E+00 -0.11546701922E+03  0.11546701922E+03  0.00000000000E+00 0.  1.
         25    2    1    2    0    0  0.32697580124E+02 -0.87458649424E+02  0.27861728440E+03  0.31936290058E+03  0.12508766525E+03 0.  0.
          5    1    3    3  502    0  0.66371905331E+02 -0.56057834376E+02  0.25069019477E+03  0.26535025300E+03  0.41800000000E+01 0. -1.
         -5    1    3    3    0  502 -0.33674325208E+02 -0.31400815048E+02  0.27927089624E+02  0.54012647581E+02  0.41800000000E+01 0. -1.
        -11    1    1    2    0    0  0.53743524589E+01  0.91584168869E+02 -0.29699637928E+02  0.96429311647E+02  0.00000000000E+00 0. -1.
         11    1    1    2    0    0 -0.38071932583E+02 -0.41255194445E+01 -0.20583404511E+02  0.43476068159E+02  0.00000000000E+00 0.  1.
</event>
<event>
 7    1  0.2384639E-009  0.8502957E+02  0.7561462E-02  0.1315355E+00
          1   -1    0    0  501    0  0.00000000000E+00  0.00000000000E+00  0.74031023495E+02  0.74031023495E+02  0.00000000000E+00 0. -1.
         -1   -1    0    0    0  501 -0.00000000000E+00 -0.00000000000E+00 -0.31073909542E+03  0.31073909542E+03  0.00000000000E+00 0.  1.
         25    2    1    2    0    0  0.12671358709E+02  0.26068565160E+02 -0.24465154232E+03  0.27630063825E+03  0.12509009600E+03 0.  0.
          5    1    3    3  502    0  0.24870345218E+01  0.56849947541E+02 -0.41545277212E+02  0.70580339577E+02  0.41800000000E+01 0.  1.
         -5    1    3    3    0  502  0.10184324187E+02 -0.30781382381E+02 -0.20310626510E+03  0.20572029867E+03  0.41800000000E+01 0.  1.
        -11    1    1    2    0    0 -0.35393799458E+02 -0.40193439054E+02 -0.30500347938E+02  0.61632011223E+02  0.00000000000E+00 0.  1.
         11    1    1    2    0    0  0.22722440749E+02  0.14124873895E+02  0.38443818330E+02  0.46837469444E+02  0.00000000000E+00 0. -1.
</event>
<event>
 7    1  0.2384639E-009  0.1040703E+03  0.7561462E-02  0.1271962E+00
         -2   -1    0    0    0  501 -0.00000000000E+00  0.00000000000E+00  0.33150741256E+02  0.33150741256E+02  0.00000000000E+00 0.  1.
          2   -1    0    0  501    0  0.00000000000E+00 -0.00000000000E+00 -0.48325202650E+03  0.48325202650E+03  0.00000000000E+00 0. -1.
         25    2    1    2    0    0 -0.44356202459E+02  0.28144323720E+02 -0.33529344115E+03  0.36170530902E+03  0.12509781470E+03 0.  0.
          5    1    3    3  502    0 -0.87701485694E+02  0.24035288122E+02 -0.20610346440E+03  0.22531168657E+03  0.41800000000E+01 0. -1.
         -5    1    3    3    0  502  0.43345283235E+02  0.41090355983E+01 -0.12918997676E+03  0.13639362246E+03  0.41800000000E+01 0. -1.
        -11    1    1    2    0    0  0.42847308661E+01 -0.32754492712E+02 -0.24888648903E-01  0.33033563702E+02  0.00000000000E+00 0.  1.
         11    1    1    2    0    0  0.40071471593E+02  0.46101689920E+01 -0.11478295545E+03  0.12166389503E+03  0.00000000000E+00 0. -1.
</event>
<event>
 7    1  0.2384639E-009  0.9201733E+02  0.7561462E-02  0.1298039E+00
          2   -1    0    0  501    0  0.00000000000E+00  0.00000000000E+00  0.27967874694E+03  0.27967874694E+03  0.00000000000E+00 0. -1.
         -2   -1    0    0    0  501 -0.00000000000E+00 -0.00000000000E+00 -0.51295313969E+02  0.51295313969E+02  0.00000000000E+00 0.  1.
         25    2    1    2    0    0 -0.33747083552E+02 -0.25643466836E+01  0.19377690441E+03  0.23311564773E+03  0.12509186627E+03 0.  0.
          5    1    3    3  502    0  0.18808188941E+02  0.50166906873E+02  0.65318933965E+02  0.84584289621E+02  0.41800000000E+01 0.  1.
         -5    1    3    3    0  502 -0.52555272492E+02 -0.52731253556E+02  0.12845797045E+03  0.14853135810E+03  0.41800000000E+01 0.  1.
        -11    1    1    2    0    0 -0.10580662437E+02 -0.31373716836E+01 -0.22666813572E+02  0.25210671475E+02  0.00000000000E+00 0.  1.
         11    1    1    2    0    0  0.44327745988E+02  0.57017183672E+01  0.57273342128E+02  0.72647741708E+02  0.00000000000E+00 0. -1.
</event>
<event>
 7    1  0.2384639E-009  0.3252824E+03  0.7561462E-02  0.1073244E+00
         -3   -1    0    0    0  501 -0.00000000000E+00  0.00000000000E+00  0.20425837285E+03  0.20425837285E+03  0.00000000000E+00 0.  1.
          3   -1    0    0  501    0  0.00000000000E+00 -0.00000000000E+00 -0.65886974889E+03  0.65886974889E+03  0.00000000000E+00 0. -1.
         25    2    1    2    0    0 -0.30897802099E+03 -0.65129651460E+02 -0.52030493547E+02  0.34360428008E+03  0.12508972810E+03 0.  0.
          5    1    3    3  502    0 -0.22710489814E+01 -0.24919271979E+02  0.11392799472E+02  0.27809999268E+02  0.41800000000E+01 0. -1.
         -5    1    3    3    0  502 -0.30670697201E+03 -0.40210379481E+02 -0.63423293020E+02  0.31579428081E+03  0.41800000000E+01 0. -1.
        -11    1    1    2    0    0  0.22668213885E+03  0.50733346874E+02 -0.22558598105E+03  0.32380194472E+03  0.00000000000E+00 0.  1.
         11    1    1    2    0    0  0.82295882144E+02  0.14396304586E+02 -0.17699490144E+03  0.19572189693E+03  0.00000000000E+00 0. -1.
</event>
<event>
 7    1  0.2384639E-009  0.5241346E+02  0.7561462E-02  0.1432742E+00
          1   -1    0    0  501    0  0.00000000000E+00  0.00000000000E+00  0.40143362481E+03  0.40143362481E+03  0.00000000000E+00 0. -1.
         -1   -1    0    0    0  501 -0.00000000000E+00 -0.00000000000E+00 -0.35391534958E+02  0.35391534958E+02  0.00000000000E+00 0.  1.
         25    2    1    2    0    0  0.13117823626E+02  0.17561942238E+02  0.12384191880E+03  0.17738621535E+03  0.12509416227E+03 0.  0.
          5    1    3    3  502    0  0.21259838124E+02  0.55072137647E+01 -0.21643099935E+02  0.31116013487E+02  0.41800000000E+01 0. -1.
         -5    1    3    3    0  502 -0.81420144980E+01  0.12054728473E+02  0.14548501873E+03  0.14627020187E+03  0.41800000000E+01 0. -1.
        -11    1    1    2    0    0 -0.22255711539E+02 -0.38511570852E+02  0.22850554401E+03  0.23279441881E+03  0.00000000000E+00 0. -1.
         11    1    1    2    0    0  0.91378879133E+01  0.20949628615E+02  0.13694627035E+02  0.26644525596E+02  0.00000000000E+00 0.  1.
</event>
<event>
 7    1  0.2384639E-009  0.1071288E+03  0.7561462E-02  0.1265981E+00
         -2   -1    0    0    0  501 -0.00000000000E+00  0.00000000000E+00  0.30107556901E+02  0.30107556901E+02  0.00000000000E+00 0.  1.
          2   -1    0    0  501    0  0.00000000000E+00 -0.00000000000E+00 -0.43219559836E+03  0.43219559836E+03  0.00000000000E+00 0. -1.
         25    2    1    2    0    0 -0.13972374824E+02  0.25742103397E+02 -0.25254776349E+03  0.28334954888E+03  0.12509480750E+03 0.  0.
          5    1    3    3  502    0 -0.54511081034E+02 -0.19050026797E+02 -0.69006804361E+02  0.90076483749E+02  0.41800000000E+01 0. -1.
         -5    1    3    3    0  502  0.40538706210E+02  0.44792130194E+02 -0.18354095913E+03  0.19327306513E+03  0.41800000000E+01 0. -1.
        -11    1    1    2    0    0 -0.86717499681E+01 -0.56750359201E+02 -0.69229363834E+02  0.89936129191E+02  0.00000000000E+00 0.  1.
         11    1    1    2    0    0  0.22644124792E+02  0.31008255804E+02 -0.80310914136E+02  0.89017477188E+02  0.00000000000E+00 0. -1.
</event>
<event>
 7    1  0.2384639E-009  0.2480077E+03  0.7561462E-02  0.1114570E+00
         -1   -1    0    0    0  501 -0.00000000000E+00  0.00000000000E+00  0.47460756366E+02  0.47460756366E+02  0.00000000000E+00 0.  1.
          1   -1    0    0  501    0  0.00000000000E+00 -0.00000000000E+00 -0.13960863706E+04  0.13960863706E+04  0.00000000000E+00 0. -1.
         25    2    1    2    0    0 -0.23216416706E+03 -0.14736715418E+02 -0.68305919868E+03  0.73234892665E+03  0.12509080791E+03 0.  0.
          5    1    3    3  502    0 -0.12090671246E+02 -0.37678295138E+02 -0.14972766440E+03  0.15492476930E+03  0.41800000000E+01 0.  1.
         -5    1    3    3    0  502 -0.22007349582E+03  0.22941579720E+02 -0.53333153427E+03  0.57742415735E+03  0.41800000000E+01 0.  1.
        -11    1    1    2    0    0  0.53570590506E+02 -0.10383204094E+02 -0.28350180524E+03  0.28870554665E+03  0.00000000000E+00 0.  1.
         11    1    1    2    0    0  0.17859357656E+03  0.25119919513E+02 -0.38206461036E+03  0.42249265370E+03  0.00000000000E+00 0. -1.
</event>
<event>
 7    1  0.2384639E-009  0.1064288E+03  0.7561462E-02  0.1267330E+00
          2   -1    0    0  501    0  0.00000000000E+00  0.00000000000E+00  0.25291764649E+03  0.25291764649E+03  0.00000000000E+00 0. -1.
         -2   -1    0    0    0  501 -0.00000000000E+00 -0.00000000000E+00 -0.58046069525E+02  0.58046069525E+02  0.00000000000E+00 0.  1.
         25    2    1    2    0    0  0.44664849309E+02 -0.24709648433E+02  0.12241828527E+03  0.18231769824E+03  0.12509193033E+03 0.  0.
          5    1    3    3  502    0  0.79613526135E+02 -0.41911265996E+02  0.10786718024E+03  0.14052639871E+03  0.41800000000E+01 0.  1.
         -5    1    3    3    0  502 -0.34948676826E+02  0.17201617563E+02  0.14551105023E+02  0.41791299525E+02  0.41800000000E+01 0.  1.
        -11    1    1    2    0    0 -0.57867106231E+02  0.34323687600E+02  0.15021715459E+02  0.68937431409E+02  0.00000000000E+00 0.  1.
         11    1    1    2    0    0  0.13202256921E+02 -0.96140391668E+01  0.57431576241E+02  0.59708586372E+02  0.00000000000E+00 0. -1.
</event>
<event>
 7    1  0.2384639E-009  0.1042619E+03  0.7561462E-02  0.1271581E+00
          1   -1    0    0  501    0  0.00000000000E+00  0.00000000000E+00  0.14618806575E+03  0.14618806575E+03  0.00000000000E+00 0. -1.
         -1   -1    0    0    0  501 -0.00000000000E+00 -0.00000000000E+00 -0.11330078655E+03  0.11330078655E+03  0.00000000000E+00 0.  1.
         25    2    1    2    0    0 -0.46462668258E+02  0.22221697605E+02 -0.29185047831E+02  0.13838126773E+03  0.12508007377E+03 0.  0.
          5    1    3    3  502    0  0.30866471714E+02 -0.69072782393E+01  0.24086372214E+02  0.39975933950E+02  0.41800000000E+01 0. -1.
         -5    1    3    3    0  502 -0.77329139972E+02  0.29128975845E+02 -0.53271420045E+02  0.98405333779E+02  0.41800000000E+01 0. -1.
        -11    1    1    2    0    0 -0.13792018500E+02  0.17070382765E+02  0.40406703852E+02  0.45981729613E+02  0.00000000000E+00 0. -1.
         11    1    1    2    0    0  0.60254686758E+02 -0.39292080371E+02  0.21665623181E+02  0.75125854963E+02  0.00000000000E+00 0.  1.
</event>
<event>
 7    1  0.2384639E-009  0.1227713E+03  0.7561462E-02  0.1238594E+00
         -2   -1    0    0    0  501 -0.00000000000E+00  0.00000000000E+00  0.16531125474E+03  0.16531125474E+03  0.00000000000E+00 0.  1.
          2   -1    0    0  501    0  0.00000000000E+00 -0.00000000000E+00 -0.15600707599E+03  0.15600707599E+03  0.00000000000E+00 0. -1.
         25    2    1    2    0    0 -0.38763195862E+02  0.62828108017E+02  0.96408447712E+02  0.17432466120E+03  0.12507814438E+03 0.  0.
          5    1    3    3  502    0 -0.73293677876E+02  0.66288224155E+02  0.37411987309E+02  0.10575074975E+03  0.41800000000E+01 0.  1.
         -5    1    3    3    0  502  0.34530482014E+02 -0.34601161384E+01  0.58996460402E+02  0.68573911452E+02  0.41800000000E+01 0.  1.
        -11    1    1    2    0    0  0.15594362536E+02  0.20175662204E+02 -0.15284995351E+01  0.25545602344E+02  0.00000000000E+00 0.  1.
         11    1    1    2    0    0  0.23168833326E+02 -0.83003770221E+02 -0.85575769432E+02  0.12144806718E+03  0.00000000000E+00 0. -1.
</event>
<event>
 7    1  0.2384639E-009  0.1975416E+03  0.7561462E-02  0.1151830E+00
         -2   -1    0    0    0  501 -0.00000000000E+00  0.00000000000E+00  0.10810604306E+03  0.10810604306E+03  0.00000000000E+00 0.  1.
          2   -1    0    0  501    0  0.00000000000E+00 -0.00000000000E+00 -0.61287815964E+03  0.61287815964E+03  0.00000000000E+00 0. -1.
         25    2    1    2    0    0  0.75094860554E+02 -0.16606465454E+03 -0.56046237295E+02  0.22804709346E+03  0.12509032157E+03 0.  0.
          5    1    3    3  502    0  0.94470071025E+02 -0.14827083273E+03 -0.79091063223E+02  0.19282557621E+03  0.41800000000E+01 0. -1.
         -5    1    3    3    0  502 -0.19375210471E+02 -0.17793821804E+02  0.23044825928E+02  0.35221517248E+02  0.41800000000E+01 0. -1.
        -11    1    1    2    0    0  0.11065229665E+02  0.24182491637E+02 -0.20233987849E+02  0.33416260617E+02  0.00000000000E+00 0.  1.
         11    1    1    2    0    0 -0.86160090219E+02  0.14188216290E+03 -0.42849189144E+03  0.45952084863E+03  0.00000000000E+00 0. -1.
</event>
<event>
 7    1  0.2384639E-009  0.7796967E+02  0.7561462E-02  0.1334914E+00
          2   -1    0    0  501    0  0.00000000000E+00  0.00000000000E+00  0.42010777341E+03  0.42010777341E+03  0.00000000000E+00 0. -1.
         -2   -1    0    0    0  501 -0.00000000000E+00 -0.00000000000E+00 -0.35471983976E+02  0.35471983976E+02  0.00000000000E+00 0.  1.
         25    2    1    2    0    0 -0.38798193467E+01 -0.46803887667E+02  0.27309176154E+03  0.30402632500E+03  0.12508892505E+03 0.  0.
          5    1    3    3  502    0  0.28863755387E+02 -0.98081834892E+01  0.24523027452E+03  0.24715314439E+03  0.41800000000E+01 0.  1.
         -5    1    3    3    0  502 -0.32743574734E+02 -0.36995704178E+02  0.27861487021E+02  0.56873180613E+02  0.41800000000E+01 0.  1.
        -11    1    1    2    0    0  0.29702513430E+02  0.38159791888E+02  0.11437314159E+03  0.12417578081E+03  0.00000000000E+00 0. -1.
         11    1    1    2    0    0 -0.25822694083E+02  0.86440957785E+01 -0.28291137042E+01  0.27377651578E+02  0.00000000000E+00 0.  1.
</event>
<event>
 7    1  0.2384639E-009  0.7077544E+02  0.7561462E-02  0.1357476E+00
          1   -1    0    0  501    0  0.00000000000E+00  0.00000000000E+00  0.31155483122E+02  0.31155483122E+02  0.00000000000E+00 0. -1.
         -1   -1    0    0    0  501 -0.00000000000E+00 -0.00000000000E+00 -0.35252546584E+03  0.35252546584E+03  0.00000000000E+00 0.  1.
         25    2    1    2    0    0  0.59757204801E+01  0.88840956545E+01 -0.20797112690E+03  0.24292934711E+03  0.12509213274E+03 0.  0.
          5    1    3    3  502    0 -0.18589804900E+02  0.36784357939E+02 -0.20056069146E+03  0.20479436808E+03  0.41800000000E+01 0. -1.
         -5    1    3    3    0  502  0.24565525380E+02 -0.27900262284E+02 -0.74104354392E+01  0.38134979037E+02  0.41800000000E+01 0. -1.
        -11    1    1    2    0    0  0.19566529387E+02  0.17314378354E+02 -0.97354145340E+02  0.10079913881E+03  0.00000000000E+00 0.  1.
         11    1    1    2    0    0 -0.25542249867E+02 -0.26198474009E+02 -0.16044710476E+02  0.39952463039E+02  0.00000000000E+00 0. -1.
</event>
<event>
 7    1  0.2384639E-009  0.1122988E+03  0.7561462E-02  0.1256371E+00
          3   -1    0    0  501    0  0.00000000000E+00  0.00000000000E+00  0.84455249551E+02  0.84455249551E+02  0.00000000000E+00 0. -1.
         -3   -1    0    0    0  501 -0.00000000000E+00 -0.00000000000E+00 -0.19793504612E+03  0.19793504612E+03  0.00000000000E+00 0.  1.
         25    2    1    2    0    0  0.65363292920E+02 -0.17336896033E+02 -0.83032622187E+02  0.16466638677E+03  0.12509066536E+03 0.  0.
          5    1    3    3  502    0 -0.21008424294E+02  0.43463193046E+01  0.19150790661E+02  0.29059758529E+02  0.41800000000E+01 0.  1.
         -5    1    3    3    0  502  0.86371717214E+02 -0.21683215337E+02 -0.10218341285E+03  0.13560662824E+03  0.41800000000E+01 0.  1.
        -11    1    1    2    0    0  0.22825739876E+02  0.10535850675E+02 -0.44420041424E+01  0.25529393865E+02  0.00000000000E+00 0. -1.
         11    1    1    2    0    0 -0.88189032796E+02  0.68010453579E+01 -0.26005170242E+02  0.92194515036E+02  0.00000000000E+00 0.  1.
</event>
<event>
 7    1  0.2384639E-009  0.8537320E+02  0.7561462E-02  0.1314459E+00
         -2   -1    0    0    0  501 -0.00000000000E+00  0.00000000000E+00  0.42618317095E+02  0.42618317095E+02  0.00000000000E+00 0.  1.
          2   -1    0    0  501    0  0.00000000000E+00 -0.00000000000E+00 -0.42445902218E+03  0.42445902218E+03  0.00000000000E+00 0. -1.
         25    2    1    2    0    0  0.66303548654E+02 -0.23251758285E+01 -0.13282748932E+03  0.19414305868E+03  0.12508724278E+03 0.  0.
          5    1    3    3  502    0  0.68012759336E+02 -0.26050482801E+02 -0.14843135201E+03  0.16538954545E+03  0.41800000000E+01 0.  1.
         -5    1    3    3    0  502 -0.17092106820E+01  0.23725306972E+02  0.15603862687E+02  0.28753513226E+02  0.41800000000E+01 0.  1.
        -11    1    1    2    0    0 -0.54482320252E+02  0.14801382452E+02 -0.24943253378E+03  0.25574204396E+03  0.00000000000E+00 0. -1.
         11    1    1    2    0    0 -0.11821228402E+02 -0.12476206624E+02  0.41931801937E+00  0.17192236628E+02  0.00000000000E+00 0.  1.
</event>
<event>
 7    1  0.2384639E-009  0.1002150E+03  0.7561462E-02  0.1279844E+00
          2   -1    0    0  501    0  0.00000000000E+00  0.00000000000E+00  0.35699859007E+03  0.35699859007E+03  0.00000000000E+00 0. -1.
         -2   -1    0    0    0  501 -0.00000000000E+00 -0.00000000000E+00 -0.58533987775E+02  0.58533987775E+02  0.00000000000E+00 0.  1.
         25    2    1    2    0    0 -0.63597407244E+02 -0.70824576842E+02  0.16991759874E+03  0.23147090081E+03  0.12508411837E+03 0.  0.
          5    1    3    3  502    0 -0.60233126628E+01  0.38416164402E+01 -0.18760202934E+02  0.20505021981E+02  0.41800000000E+01 0. -1.
         -5    1    3    3    0  502 -0.57574094581E+02 -0.74666193282E+02  0.18867780168E+03  0.21096587883E+03  0.41800000000E+01 0. -1.
        -11    1    1    2    0    0  0.25242002043E+02  0.13019548063E+02 -0.91810346421E+01  0.29848931237E+02  0.00000000000E+00 0.  1.
         11    1    1    2    0    0  0.38355405201E+02  0.57805028779E+02  0.13772803819E+03  0.15421274579E+03  0.00000000000E+00 0. -1.
</event>
<event>
 7    1  0.2384639E-009  0.8243907E+02  0.7561462E-02  0.1322269E+00
         -2   -1    0    0    0  501 -0.00000000000E+00  0.00000000000E+00  0.66986392301E+02  0.66986392301E+02  0.00000000000E+00 0. -1.
          2   -1    0    0  501    0  0.00000000000E+00 -0.00000000000E+00 -0.22750770734E+03  0.22750770734E+03  0.00000000000E+00 0.  1.
         25    2    1    2    0    0  0.45081117450E+02  0.90767565542E+01 -0.47808099460E+02  0.14158952890E+03  0.12508911088E+03 0.  0.
          5    1    3    3  502    0 -0.83221279702E+01  0.10974668993E+01  0.38539151416E+02  0.39663595896E+02  0.41800000000E+01 0.  1.
         -5    1    3    3    0  502  0.53403245420E+02  0.79792896549E+01 -0.86347250877E+02  0.10192593300E+03  0.41800000000E+01 0.  1.
        -11    1    1    2    0    0  0.26907903275E+02 -0.11618895279E+02 -0.47059080981E+02  0.55439977354E+02  0.00000000000E+00 0.  1.
         11    1    1    2    0    0 -0.71989020725E+02  0.25421387250E+01 -0.65654134594E+02  0.97464593384E+02  0.00000000000E+00 0. -1.
</event>
<event>
 7    1  0.2384639E-009  0.9611247E+02  0.7561462E-02  0.1288690E+00
          1   -1    0    0  501    0  0.00000000000E+00  0.00000000000E+00  0.85025243409E+03  0.85025243409E+03  0.00000000000E+00 0. -1.
         -1   -1    0    0    0  501 -0.00000000000E+00 -0.00000000000E+00 -0.26385001989E+02  0.26385001989E+02  0.00000000000E+00 0.  1.
         25    2    1    2    0    0  0.44269463832E+02 -0.16923759744E+02  0.71608097819E+03  0.72846801613E+03  0.12508990416E+03 0.  0.
          5    1    3    3  502    0  0.44538683688E+02  0.31120622627E+02  0.60398022744E+03  0.60643365262E+03  0.41800000000E+01 0. -1.
         -5    1    3    3    0  502 -0.26921985577E+00 -0.48044382371E+02  0.11210075075E+03  0.12203436350E+03  0.41800000000E+01 0. -1.
        -11    1    1    2    0    0  0.21421938916E+02 -0.88813754336E+00  0.63361915235E+02  0.66891109704E+02  0.00000000000E+00 0. -1.
         11    1    1    2    0    0 -0.65691402748E+02  0.17811897288E+02  0.44424538675E+02  0.81278310246E+02  0.00000000000E+00 0.  1.
</event>
<event>
 7    1  0.2384639E-009  0.8980250E+02  0.7561462E-02  0.1303331E+00
          1   -1    0    0  501    0  0.00000000000E+00  0.00000000000E+00  0.48292006139E+03  0.48292006139E+03  0.00000000000E+00 0. -1.
         -1   -1    0    0    0  501 -0.00000000000E+00 -0.00000000000E+00 -0.53805990556E+02  0.53805990556E+02  0.00000000000E+00 0.  1.
         25    2    1    2    0    0 -0.93255495497E+01 -0.42468564565E+02  0.41331704411E+03  0.43401687773E+03  0.12509646818E+03 0.  0.
          5    1    3    3  502    0  0.23939536261E+02  0.33731017088E+02  0.76526444636E+02  0.87089907790E+02  0.41800000000E+01 0.  1.
         -5    1    3    3    0  502 -0.33265085811E+02 -0.76199581652E+02  0.33679059948E+03  0.34692696994E+03  0.41800000000E+01 0.  1.
        -11    1    1    2    0    0 -0.12119666518E+02  0.22103748258E+02  0.50905145603E+02  0.56804892856E+02  0.00000000000E+00 0. -1.
         11    1    1    2    0    0  0.21445216068E+02  0.20364816307E+02 -0.35108118883E+02  0.45904281357E+02  0.00000000000E+00 0.  1.
</event>
<event>
 7    1  0.2384639E-009  0.1216247E+03  0.7561462E-02  0.1240441E+00
          2   -1    0    0  501    0  0.00000000000E+00  0.00000000000E+00  0.22253658946E+03  0.22253658946E+03  0.00000000000E+00 0. -1.
         -2   -1    0    0    0  501 -0.00000000000E+00 -0.00000000000E+00 -0.77052412063E+02  0.77052412063E+02  0.00000000000E+00 0.  1.
         25    2    1    2    0    0  0.55711736965E+02 -0.23641403273E+02  0.10396928306E+03  0.17355042878E+03  0.12508967153E+03 0.  0.
          5    1    3    3  502    0  0.40045675906E+02 -0.74704424206E+02  0.56327117848E+02  0.10185589703E+03  0.41800000000E+01 0. -1.
         -5    1    3    3    0  502  0.15666061059E+02  0.51063020933E+02  0.47642165216E+02  0.71694531746E+02  0.41800000000E+01 0. -1.
        -11    1    1    2    0    0 -0.61412286967E+02  0.49158409182E+02  0.20404199183E+01  0.78690415536E+02  0.00000000000E+00 0.  1.
         11    1    1    2    0    0  0.57005500024E+01 -0.25517005909E+02  0.39474474417E+02  0.47348157212E+02  0.00000000000E+00 0. -1.
</event>
<event>
 7    1  0.2384639E-009  0.8819728E+02  0.7561462E-02  0.1307277E+00
          2   -1    0    0  501    0  0.00000000000E+00  0.00000000000E+00  0.54820586070E+03  0.54820586070E+03  0.00000000000E+00 0. -1.
         -2   -1    0    0    0  501 -0.00000000000E+00 -0.00000000000E+00 -0.24130052462E+02  0.24130052462E+02  0.00000000000E+00 0.  1.
         25    2    1    2    0    0  0.25537525329E+02  0.32499999068E+02  0.34137289628E+03  0.36591248212E+03  0.12509226642E+03 0.  0.
          5    1    3    3  502    0  0.77214102088E+01  0.61380528742E+02  0.74809870233E+02  0.97165727335E+02  0.41800000000E+01 0.  1.
         -5    1    3    3    0  502  0.17816115120E+02 -0.28880529674E+02  0.26656302605E+03  0.26874675479E+03  0.41800000000E+01 0.  1.
        -11    1    1    2    0    0 -0.36111911990E+02  0.91290302821E+01  0.14355436457E+03  0.14830800709E+03  0.00000000000E+00 0.  1.
         11    1    1    2    0    0  0.10574386661E+02 -0.41629029350E+02  0.39148547386E+02  0.58115423945E+02  0.00000000000E+00 0. -1.
</event>
<event>
 7    1  0.2384639E-009  0.1018013E+03  0.7561462E-02  0.1276553E+00
          3   -1    0    0  501    0  0.00000000000E+00  0.00000000000E+00  0.83728597097E+02  0.83728597097E+02  0.00000000000E+00 0. -1.
         -3   -1    0    0    0  501 -0.00000000000E+00 -0.00000000000E+00 -0.16242057395E+03  0.16242057395E+03  0.00000000000E+00 0.  1.
         25    2    1    2    0    0 -0.38988139712E+02  0.74967531805E+01 -0.23084702218E+02  0.13325500800E+03  0.12509083633E+03 0.  0.
          5    1    3    3  502    0 -0.63227561646E+02  0.45326772545E+02  0.82126203819E+01  0.78340030601E+02  0.41800000000E+01 0. -1.
         -5    1    3    3    0  502  0.24239421933E+02 -0.37830019365E+02 -0.31297322600E+02  0.54914977399E+02  0.41800000000E+01 0. -1.
        -11    1    1    2    0    0  0.20956908291E+02  0.31369347443E+02  0.56435711674E+01  0.38145482820E+02  0.00000000000E+00 0. -1.
         11    1    1    2    0    0  0.18031231422E+02 -0.38866100623E+02 -0.61250845804E+02  0.74748680229E+02  0.00000000000E+00 0.  1.
</event>
<event>
 7    1  0.2384639E-009  0.1270955E+03  0.7561462E-02  0.1231830E+00
          1   -1    0    0  501    0  0.00000000000E+00  0.00000000000E+00  0.33701087494E+03  0.33701087494E+03  0.00000000000E+00 0. -1.
         -1   -1    0    0    0  501 -0.00000000000E+00 -0.00000000000E+00 -0.61910283494E+02  0.61910283494E+02  0.00000000000E+00 0.  1.
         25    2    1    2    0    0 -0.41055096162E+02 -0.61043181773E+02  0.65509646441E+02  0.15921944790E+03  0.12509007895E+03 0.  0.
          5    1    3    3  502    0  0.44033372651E+02 -0.90990530399E+01  0.24138984506E+02  0.51204429947E+02  0.41800000000E+01 0.  1.
         -5    1    3    3    0  502 -0.85088468812E+02 -0.51944128733E+02  0.41370661934E+02  0.10801501795E+03  0.41800000000E+01 0.  1.
        -11    1    1    2    0    0  0.63361532439E+02  0.27730704823E+02  0.16920712537E+03  0.18279695582E+03  0.00000000000E+00 0. -1.
         11    1    1    2    0    0 -0.22306436277E+02  0.33312476950E+02  0.40383819634E+02  0.56904754706E+02  0.00000000000E+00 0.  1.
</event>
<event>
 7    1  0.2384639E-009  0.1002593E+03  0.7561462E-02  0.1279752E+00
          3   -1    0    0  501    0  0.00000000000E+00  0.00000000000E+00  0.23872761870E+04  0.23872761870E+04  0.00000000000E+00 0. -1.
         -3   -1    0    0    0  501 -0.00000000000E+00 -0.00000000000E+00 -0.96597398788E+01  0.96597398788E+01  0.00000000000E+00 0.  1.
         25    2    1    2    0    0  0.33961930293E+02  0.21551377028E+02  0.20521698664E+04  0.20563717959E+04  0.12508368385E+03 0.  0.
          5    1    3    3  502    0  0.65587229102E+02  0.10510129809E+02  0.57859653278E+03  0.58241185393E+03  0.41800000000E+01 0.  1.
         -5    1    3    3    0  502 -0.31625298810E+02  0.11041247219E+02  0.14735733336E+04  0.14739599420E+04  0.41800000000E+01 0.  1.
        -11    1    1    2    0    0  0.63814595247E+01  0.32296953347E+02  0.11538627402E+03  0.11999086821E+03  0.00000000000E+00 0.  1.
         11    1    1    2    0    0 -0.40343389817E+02 -0.53848330375E+02  0.21006030671E+03  0.22057326276E+03  0.00000000000E+00 0. -1.
</event>
<event>
 7    1  0.2384639E-009  0.1034071E+03  0.7561462E-02  0.1273290E+00
          1   -1    0    0  501    0  0.00000000000E+00  0.00000000000E+00  0.19835370911E+03  0.19835370911E+03  0.00000000000E+00 0. -1.
         -1   -1    0    0    0  501 -0.00000000000E+00 -0.00000000000E+00 -0.63341615466E+02  0.63341615466E+02  0.00000000000E+00 0.  1.
         25    2    1    2    0    0 -0.21523889385E+02 -0.19901212399E+02  0.87855972945E+02  0.15564942373E+03  0.12509490420E+03 0.  0.
          5    1    3    3  502    0  0.45581416660E+02  0.17578789757E+02  0.19719241099E+02  0.52848843541E+02  0.41800000000E+01 0. -1.
         -5    1    3    3    0  502 -0.67105306045E+02 -0.37480002156E+02  0.68136731846E+02  0.10280058019E+03  0.41800000000E+01 0. -1.
        -11    1    1    2    0    0  0.19594048606E+02  0.48413519308E+02  0.55564016833E+02  0.76257167265E+02  0.00000000000E+00 0. -1.
         11    1    1    2    0    0  0.19298407789E+01 -0.28512306909E+02 -0.84078961369E+01  0.29788733578E+02  0.00000000000E+00 0.  1.
</event>
<event>
 7    1  0.2384639E-009  0.1548686E+03  0.7561462E-02  0.1194615E+00
         -2   -1    0    0    0  501 -0.00000000000E+00  0.00000000000E+00  0.30584725883E+02  0.30584725883E+02  0.00000000000E+00 0. -1.
          2   -1    0    0  501    0  0.00000000000E+00 -0.00000000000E+00 -0.10300972847E+04  0.10300972847E+04  0.00000000000E+00 0.  1.
         25    2    1    2    0    0 -0.13522727441E+01 -0.11624758426E+03 -0.29541783233E+03  0.34122306866E+03  0.12508460114E+03 0.  0.
          5    1    3    3  502    0 -0.60069116890E+02 -0.45242159599E+02 -0.10055140031E+03  0.12563123940E+03  0.41800000000E+01 0.  1.
         -5    1    3    3    0  502  0.58716844146E+02 -0.71005424657E+02 -0.19486643202E+03  0.21559182926E+03  0.41800000000E+01 0.  1.
        -11    1    1    2    0    0  0.27770868419E+02  0.11204681992E+03 -0.63419445842E+03  0.64461486337E+03  0.00000000000E+00 0.  1.
         11    1    1    2    0    0 -0.26418595675E+02  0.42007643396E+01 -0.69900268116E+02  0.74844078598E+02  0.00000000000E+00 0. -1.
</event>
<event>
 7    1  0.2384639E-009  0.8419533E+02  0.7561462E-02  0.1317550E+00
          2   -1    0    0  501    0  0.00000000000E+00  0.00000000000E+00  0.25466230316E+03  0.25466230316E+03  0.00000000000E+00 0.  1.
         -2   -1    0    0    0  501 -0.00000000000E+00 -0.00000000000E+00 -0.51340466562E+02  0.51340466562E+02  0.00000000000E+00 0. -1.
         25    2    1    2    0    0  0.26048872270E+02 -0.25080244878E+02  0.10043446492E+03  0.16444241557E+03  0.12508662544E+03 0.  0.
          5    1    3    3  502    0  0.50630115124E+02  0.28542043744E+02  0.14365576908E+02  0.60015823068E+02  0.41800000000E+01 0.  1.
         -5    1    3    3    0  502 -0.24581242854E+02 -0.53622288622E+02  0.86068888014E+02  0.10442659250E+03  0.41800000000E+01 0.  1.
        -11    1    1    2    0    0  0.54405819155E+01  0.17869050424E+02 -0.12010758696E+02  0.22207233485E+02  0.00000000000E+00 0. -1.
         11    1    1    2    0    0 -0.31489454186E+02  0.72111944544E+01  0.11489813038E+03  0.11935312067E+03  0.00000000000E+00 0.  1.
</event>
<event>
 7    1  0.2384639E-009  0.1218523E+03  0.7561462E-02  0.1240072E+00
          1   -1    0    0  501    0  0.00000000000E+00  0.00000000000E+00  0.24602435287E+03  0.24602435287E+03  0.00000000000E+00 0. -1.
         -1   -1    0    0    0  501 -0.00000000000E+00 -0.00000000000E+00 -0.82649848770E+02  0.82649848770E+02  0.00000000000E+00 0.  1.
         25    2    1    2    0    0  0.32920228793E+02 -0.58207672198E+02  0.16152057166E+03  0.21495980408E+03  0.12508776014E+03 0.  0.
          5    1    3    3  502    0 -0.38885212397E+02  0.18954184103E+01  0.86333029411E+02  0.94797240052E+02  0.41800000000E+01 0.  1.
         -5    1    3    3    0  502  0.71805441191E+02 -0.60103090608E+02  0.75187542247E+02  0.12016256403E+03  0.41800000000E+01 0.  1.
        -11    1    1    2    0    0 -0.63116250374E+02  0.46646798758E+02 -0.10333288911E+02  0.79160354695E+02  0.00000000000E+00 0.  1.
         11    1    1    2    0    0  0.30196021581E+02  0.11560873440E+02  0.12187221356E+02  0.34554042866E+02  0.00000000000E+00 0. -1.
</event>
<event>
 7    1  0.2384639E-009  0.8405611E+02  0.7561462E-02  0.1317920E+00
         -2   -1    0    0    0  501 -0.00000000000E+00  0.00000000000E+00  0.10505260825E+03  0.10505260825E+03  0.00000000000E+00 0. -1.
          2   -1    0    0  501    0  0.00000000000E+00 -0.00000000000E+00 -0.11297079135E+03  0.11297079135E+03  0.00000000000E+00 0.  1.
         25    2    1    2    0    0 -0.48957423151E+01  0.54289437978E+01  0.58335427443E+01  0.12543985573E+03  0.12509070893E+03 0.  0.
          5    1    3    3  502    0  0.51108769384E+02 -0.27529117299E+02  0.13862699718E+02  0.59829804033E+02  0.41800000000E+01 0. -1.
         -5    1    3    3    0  502 -0.56004511699E+02  0.32958061097E+02 -0.80291569740E+01  0.65610051696E+02  0.41800000000E+01 0. -1.
        -11    1    1    2    0    0  0.44183394721E+00 -0.24857347146E+02 -0.47371595091E+02  0.53499074252E+02  0.00000000000E+00 0.  1.
         11    1    1    2    0    0  0.44539083679E+01  0.19428403348E+02  0.33619869254E+02  0.39084469615E+02  0.00000000000E+00 0. -1.
</event>
<event>
 7    1  0.2384639E-009  0.5040645E+02  0.7561462E-02  0.1443161E+00
          1   -1    0    0  501    0  0.00000000000E+00  0.00000000000E+00  0.12358807467E+03  0.12358807467E+03  0.00000000000E+00 0. -1.
         -1   -1    0    0    0  501 -0.00000000000E+00 -0.00000000000E+00 -0.11009379799E+03  0.11009379799E+03  0.00000000000E+00 0.  1.
         25    2    1    2    0    0 -0.23910161461E+01  0.18546592140E+02  0.47160329997E+02  0.13499344913E+03  0.12509772798E+03 0.  0.
          5    1    3    3  502    0 -0.79213741011E+01  0.21691746029E+02 -0.40604772502E+02  0.46898826887E+02  0.41800000000E+01 0.  1.
         -5    1    3    3    0  502  0.55303579550E+01 -0.31451538888E+01  0.87765102499E+02  0.88094622246E+02  0.41800000000E+01 0.  1.
        -11    1    1    2    0    0 -0.19872826768E+00 -0.44073733897E+02 -0.51240992154E+02  0.67588259257E+02  0.00000000000E+00 0.  1.
         11    1    1    2    0    0  0.25897444137E+01  0.25527141757E+02  0.17574938842E+02  0.31100164271E+02  0.00000000000E+00 0. -1.
</event>
<event>
 7    1  0.2384639E-009  0.1887503E+03  0.7561462E-02  0.1159593E+00
         -1   -1    0    0    0  501 -0.00000000000E+00  0.00000000000E+00  0.60492270782E+02  0.60492270782E+02  0.00000000000E+00 0.  1.
          1   -1    0    0  501    0  0.00000000000E+00 -0.00000000000E+00 -0.77688090578E+03  0.77688090578E+03  0.00000000000E+00 0. -1.
         25    2    1    2    0    0 -0.15697869082E+03  0.34260671705E+02 -0.18692895890E+03  0.27641806913E+03  0.12509360604E+03 0.  0.
          5    1    3    3  502    0 -0.85900728144E+01 -0.31856244299E+02 -0.70364427700E+01  0.33994022690E+02  0.41800000000E+01 0. -1.
         -5    1    3    3    0  502 -0.14838861800E+03  0.66116916004E+02 -0.17989251613E+03  0.24242404644E+03  0.41800000000E+01 0. -1.
        -11    1    1    2    0    0  0.13757046334E+03  0.52995941782E+01 -0.44322670767E+03  0.46411596878E+03  0.00000000000E+00 0. -1.
         11    1    1    2    0    0  0.19408227475E+02 -0.39560265884E+02 -0.86232968424E+02  0.96839138646E+02  0.00000000000E+00 0.  1.
</event>
<event>
 7    1  0.2384639E-009  0.1119132E+03  0.7561462E-02  0.1257067E+00
          2   -1    0    0  501    0  0.00000000000E+00  0.00000000000E+00  0.17965866902E+03  0.17965866902E+03  0.00000000000E+00 0. -1.
         -2   -1    0    0    0  501 -0.00000000000E+00 -0.00000000000E+00 -0.81146736199E+02  0.81146736199E+02  0.00000000000E+00 0.  1.
         25    2    1    2    0    0 -0.21701163944E+02  0.37364660976E+02  0.90165450780E+02  0.16013657908E+03  0.12508739760E+03 0.  0.
          5    1    3    3  502    0 -0.28450378661E+02  0.81184992903E+02  0.47001655698E+02  0.98117557843E+02  0.41800000000E+01 0.  1.
         -5    1    3    3    0  502  0.67492147169E+01 -0.43820331927E+02  0.43163795082E+02  0.62019021238E+02  0.41800000000E+01 0.  1.
        -11    1    1    2    0    0  0.41308578287E+02 -0.53626535306E+02 -0.11132441547E+02  0.68601276838E+02  0.00000000000E+00 0.  1.
         11    1    1    2    0    0 -0.19607414343E+02  0.16261874330E+02  0.19478923586E+02  0.32067549299E+02  0.00000000000E+00 0. -1.
</event>
<event>
 7    1  0.2384639E-009  0.1035741E+03  0.7561462E-02  0.1272955E+00
         -4   -1    0    0    0  501 -0.00000000000E+00  0.00000000000E+00  0.75477791553E+02  0.75477791553E+02  0.00000000000E+00 0.  1.
          4   -1    0    0  501    0  0.00000000000E+00 -0.00000000000E+00 -0.25179540573E+03  0.25179540573E+03  0.00000000000E+00 0. -1.
         25    2    1    2    0    0  0.45778500998E+02  0.69613451919E+02 -0.80056573165E+02  0.17028957090E+03  0.12509108364E+03 0.  0.
          5    1    3    3  502    0  0.28370695243E+02  0.66824184391E+02  0.14384123193E+02  0.74126536194E+02  0.41800000000E+01 0.  1.
         -5    1    3    3    0  502  0.17407805755E+02  0.27892675279E+01 -0.94440696358E+02  0.96163034702E+02  0.41800000000E+01 0.  1.
        -11    1    1    2    0    0 -0.50287125202E+01 -0.75034881947E+02 -0.86712191462E+02  0.11478033632E+03  0.00000000000E+00 0. -1.
         11    1    1    2    0    0 -0.40749788478E+02  0.54214300284E+01 -0.95488495501E+01  0.42203290065E+02  0.00000000000E+00 0.  1.
</event>
<event>
 7    1  0.2384639E-009  0.1051748E+03  0.7561462E-02  0.1269776E+00
         -2   -1    0    0    0  501 -0.00000000000E+00  0.00000000000E+00  0.74019441996E+02  0.74019441996E+02  0.00000000000E+00 0.  1.
          2   -1    0    0  501    0  0.00000000000E+00 -0.00000000000E+00 -0.48253744953E+03  0.48253744953E+03  0.00000000000E+00 0. -1.
         25    2    1    2    0    0 -0.55093501356E+02  0.14297868847E+02 -0.42653062073E+03  0.44812630237E+03  0.12509632092E+03 0.  0.
          5    1    3    3  502    0 -0.83430660496E+02  0.43618752695E+02 -0.25767871760E+03  0.27437030561E+03  0.41800000000E+01 0. -1.
         -5    1    3    3    0  502  0.28337159140E+02 -0.29320883847E+02 -0.16885190313E+03  0.17375599676E+03  0.41800000000E+01 0. -1.
        -11    1    1    2    0    0  0.28846082099E+02  0.17616924096E+02  0.47045883031E+02  0.57928987366E+02  0.00000000000E+00 0.  1.
         11    1    1    2    0    0  0.26247419257E+02 -0.31914792943E+02 -0.29033269831E+02  0.50501601790E+02  0.00000000000E+00 0. -1.
</event>
<event>
 7    1  0.2384639E-009  0.2736705E+03  0.7561462E-02  0.1099197E+00
         -2   -1    0    0    0  501 -0.00000000000E+00  0.00000000000E+00  0.63971242238E+02  0.63971242238E+02  0.00000000000E+00 0.  1.
          2   -1    0    0  501    0  0.00000000000E+00 -0.00000000000E+00 -0.15621502649E+04  0.15621502649E+04  0.00000000000E+00 0. -1.
         25    2    1    2    0    0 -0.21246375202E+03 -0.15133999788E+03 -0.11092512625E+04  0.11463564724E+04  0.12510058925E+03 0.  0.
          5    1    3    3  502    0 -0.56477058155E+02 -0.10735865488E+03 -0.36503731790E+03  0.38468851652E+03  0.41800000000E+01 0. -1.
         -5    1    3    3    0  502 -0.15598669387E+03 -0.43981342998E+02 -0.74421394462E+03  0.76166795585E+03  0.41800000000E+01 0. -1.
        -11    1    1    2    0    0  0.84351457578E+02  0.84264777565E+02 -0.95952540236E+02  0.15304447429E+03  0.00000000000E+00 0.  1.
         11    1    1    2    0    0  0.12811229444E+03  0.67075220316E+02 -0.29297521993E+03  0.32672056051E+03  0.00000000000E+00 0. -1.
</event>
<event>
 7    1  0.2384639E-009  0.9512306E+02  0.7561462E-02  0.1290899E+00
         -1   -1    0    0    0  501 -0.00000000000E+00  0.00000000000E+00  0.27957333174E+02  0.27957333174E+02  0.00000000000E+00 0.  1.
          1   -1    0    0  501    0  0.00000000000E+00 -0.00000000000E+00 -0.17967465903E+04  0.17967465903E+04  0.00000000000E+00 0. -1.
         25    2    1    2    0    0 -0.16243656211E+02 -0.92101782977E+02 -0.16156068437E+04  0.16231390659E+04  0.12509340138E+03 0.  0.
          5    1    3    3  502    0 -0.95764572512E+01 -0.15960276670E+02 -0.29154090284E+02  0.34840670848E+02  0.41800000000E+01 0.  1.
         -5    1    3    3    0  502 -0.66671989601E+01 -0.76141506307E+02 -0.15864527535E+04  0.15882983951E+04  0.41800000000E+01 0.  1.
        -11    1    1    2    0    0  0.16586948018E+02  0.53344157501E+02 -0.14706394171E+02  0.57766807195E+02  0.00000000000E+00 0.  1.
         11    1    1    2    0    0 -0.34329180665E+00  0.38757625476E+02 -0.13847601922E+03  0.14379805034E+03  0.00000000000E+00 0. -1.
</event>
<event>
 7    1  0.2384639E-009  0.1159465E+03  0.7561462E-02  0.1249938E+00
          1   -1    0    0  501    0  0.00000000000E+00  0.00000000000E+00  0.96401313709E+02  0.96401313709E+02  0.00000000000E+00 0. -1.
         -1   -1    0    0    0  501 -0.00000000000E+00 -0.00000000000E+00 -0.16660279733E+03  0.16660279733E+03  0.00000000000E+00 0.  1.
         25    2    1    2    0    0  0.59447937883E+02  0.26997539258E+02 -0.37704713917E+02  0.14604439257E+03  0.12507755477E+03 0.  0.
          5    1    3    3  502    0  0.15889481229E+02 -0.42929206662E+02 -0.43586150204E+02  0.63345223088E+02  0.41800000000E+01 0. -1.
         -5    1    3    3    0  502  0.43558456654E+02  0.69926745920E+02  0.58814362875E+01  0.82699169487E+02  0.41800000000E+01 0. -1.
        -11    1    1    2    0    0 -0.64594141361E+02  0.10626917575E+02  0.22303543399E+01  0.65500450043E+02  0.00000000000E+00 0. -1.
         11    1    1    2    0    0  0.51462034779E+01 -0.37624456833E+02 -0.34727124045E+02  0.51459268423E+02  0.00000000000E+00 0.  1.
</event>
<event>
 7    1  0.2384639E-009  0.2308592E+03  0.7561462E-02  0.1126036E+00
          1   -1    0    0  501    0  0.00000000000E+00  0.00000000000E+00  0.14203692218E+03  0.14203692218E+03  0.00000000000E+00 0. -1.
         -1   -1    0    0    0  501 -0.00000000000E+00 -0.00000000000E+00 -0.80025964901E+03  0.80025964901E+03  0.00000000000E+00 0.  1.
         25    2    1    2    0    0 -0.17767912462E+03 -0.14009338483E+03 -0.64798676728E+03  0.69765906824E+03  0.12508116216E+03 0.  0.
          5    1    3    3  502    0 -0.12722124152E+03 -0.11022594371E+03 -0.59551723289E+03  0.61886448438E+03  0.41800000000E+01 0. -1.
         -5    1    3    3    0  502 -0.50457883102E+02 -0.29867441119E+02 -0.52469534387E+02  0.78794583855E+02  0.41800000000E+01 0. -1.
        -11    1    1    2    0    0  0.48087736063E+02  0.76104553889E+02  0.29520429446E+02  0.94740641949E+02  0.00000000000E+00 0.  1.
         11    1    1    2    0    0  0.12959138856E+03  0.63988830938E+02 -0.39756388999E+02  0.14989686101E+03  0.00000000000E+00 0. -1.
</event>
<event>
 7    1  0.2384639E-009  0.9996667E+02  0.7561462E-02  0.1280366E+00
         -2   -1    0    0    0  501 -0.00000000000E+00  0.00000000000E+00  0.14628722288E+02  0.14628722288E+02  0.00000000000E+00 0.  1.
          2   -1    0    0  501    0  0.00000000000E+00 -0.00000000000E+00 -0.94689744459E+03  0.94689744459E+03  0.00000000000E+00 0. -1.
         25    2    1    2    0    0 -0.30312536236E+02 -0.42479875815E+02 -0.67167021535E+03  0.68520942825E+03  0.12509073775E+03 0.  0.
          5    1    3    3  502    0  0.30949533595E+02 -0.61312474634E+02 -0.41249105537E+03  0.41819066984E+03  0.41800000000E+01 0.  1.
         -5    1    3    3    0  502 -0.61262069832E+02  0.18832598819E+02 -0.25917915998E+03  0.26701875841E+03  0.41800000000E+01 0.  1.
        -11    1    1    2    0    0  0.39305393051E+02  0.23245391904E+02 -0.24681153713E+03  0.25100039249E+03  0.00000000000E+00 0. -1.
         11    1    1    2    0    0 -0.89928568141E+01  0.19234483912E+02 -0.13786969817E+02  0.25316346138E+02  0.00000000000E+00 0.  1.
</event>
<event>
 7    1  0.2384639E-009  0.9177031E+02  0.7561462E-02  0.1298620E+00
          1   -1    0    0  501    0  0.00000000000E+00  0.00000000000E+00  0.17512853041E+04  0.17512853041E+04  0.00000000000E+00 0. -1.
         -1   -1    0    0    0  501 -0.00000000000E+00 -0.00000000000E+00 -0.91027638633E+01  0.91027638633E+01  0.00000000000E+00 0.  1.
         25    2    1    2    0    0 -0.28563731523E+02  0.99805646937E+01  0.13566909362E+04  0.13627813154E+04  0.12508844389E+03 0.  0.
          5    1    3    3  502    0 -0.47804624244E+02 -0.20230180954E+02  0.12288179306E+04  0.12299209410E+04  0.41800000000E+01 0.  1.
         -5    1    3    3    0  502  0.19240892721E+02  0.30210745648E+02  0.12787300566E+03  0.13286037439E+03  0.41800000000E+01 0.  1.
        -11    1    1    2    0    0 -0.31841134598E+01  0.37856087560E+02  0.11582300770E+03  0.12189417975E+03  0.00000000000E+00 0.  1.
         11    1    1    2    0    0  0.31747844983E+02 -0.47836652254E+02  0.26966859630E+03  0.27571257279E+03  0.00000000000E+00 0. -1.
</event>
<event>
 7    1  0.2384639E-009  0.1238718E+03  0.7561462E-02  0.1236843E+00
         -2   -1    0    0    0  501 -0.00000000000E+00  0.00000000000E+00  0.51732577176E+02  0.51732577176E+02  0.00000000000E+00 0.  1.
          2   -1    0    0  501    0  0.00000000000E+00 -0.00000000000E+00 -0.59104573075E+03  0.59104573075E+03  0.00000000000E+00 0. -1.
         25    2    1    2    0    0  0.24397699517E+02  0.10593297443E+03 -0.35222046416E+03  0.38926109185E+03  0.12509156424E+03 0.  0.
          5    1    3    3  502    0  0.26299541725E+02  0.11781832533E+03 -0.18121988812E+03  0.21778646406E+03  0.41800000000E+01 0. -1.
         -5    1    3    3    0  502 -0.19018422080E+01 -0.11885350896E+02 -0.17100057605E+03  0.17147462780E+03  0.41800000000E+01 0. -1.
        -11    1    1    2    0    0  0.40546517977E+01 -0.60293379119E+02 -0.19027564527E+03  0.19964106028E+03  0.00000000000E+00 0.  1.
         11    1    1    2    0    0 -0.28452351314E+02 -0.45639595313E+02  0.31829558516E+01  0.53876155798E+02  0.00000000000E+00 0. -1.
</event>
<event>
 7    1  0.2384639E-009  0.1296259E+03  0.7561462E-02  0.1228012E+00
          1   -1    0    0  501    0  0.00000000000E+00  0.00000000000E+00  0.15242453744E+03  0.15242453744E+03  0.00000000000E+00 0. -1.
         -1   -1    0    0    0  501 -0.00000000000E+00 -0.00000000000E+00 -0.15464641598E+03  0.15464641598E+03  0.00000000000E+00 0.  1.
         25    2    1    2    0    0 -0.45436564839E+02  0.80716464425E+02 -0.55386305272E+02  0.16520874465E+03  0.12508659978E+03 0.  0.
          5    1    3    3  502    0 -0.13080868597E+02 -0.18960858448E+02  0.24108825749E+02  0.33605522691E+02  0.41800000000E+01 0. -1.
         -5    1    3    3    0  502 -0.32355696242E+02  0.99677322873E+02 -0.79495131021E+02  0.13160322196E+03  0.41800000000E+01 0. -1.
        -11    1    1    2    0    0  0.46847177174E+02  0.32702630930E+01  0.12833855351E+02  0.48683266869E+02  0.00000000000E+00 0.  1.
         11    1    1    2    0    0 -0.14106123353E+01 -0.83986727518E+02  0.40330571378E+02  0.93178941902E+02  0.00000000000E+00 0. -1.
</event>
<event>
 7    1  0.2384639E-009  0.1341205E+03  0.7561462E-02  0.1221467E+00
         -2   -1    0    0    0  501 -0.00000000000E+00  0.00000000000E+00  0.43516656173E+02  0.43516656173E+02  0.00000000000E+00 0. -1.
          2   -1    0    0  501    0  0.00000000000E+00 -0.00000000000E+00 -0.56242211241E+03  0.56242211241E+03  0.00000000000E+00 0.  1.
         25    2    1    2    0    0 -0.37550545616E+02 -0.74584132501E+02 -0.42684737059E+03  0.45257041548E+03  0.12509383234E+03 0.  0.
          5    1    3    3  502    0 -0.11003892466E+02 -0.10520084108E+03 -0.34910022740E+03  0.36479685276E+03  0.41800000000E+01 0. -1.
         -5    1    3    3    0  502 -0.26546653150E+02  0.30616708582E+02 -0.77747143197E+02  0.87773562724E+02  0.41800000000E+01 0. -1.
        -11    1    1    2    0    0  0.38340718598E+01  0.85972429935E+02 -0.55809967559E+02  0.10257051864E+03  0.00000000000E+00 0. -1.
         11    1    1    2    0    0  0.33716473756E+02 -0.11388297434E+02 -0.36248118084E+02  0.50797834458E+02  0.00000000000E+00 0.  1.
</event>
<event>
 7    1  0.2384639E-009  0.9460249E+02  0.7561462E-02  0.1292074E+00
          3   -1    0    0  501    0  0.00000000000E+00  0.00000000000E+00  0.23662899194E+03  0.23662899194E+03  0.00000000000E+00 0. -1.
         -3   -1    0    0    0  501 -0.00000000000E+00 -0.00000000000E+00 -0.73230597150E+02  0.73230597150E+02  0.00000000000E+00 0.  1.
         25    2    1    2    0    0  0.64706011106E+02 -0.30806147346E+02  0.61636926391E+02  0.15678785089E+03  0.12508969943E+03 0.  0.
          5    1    3    3  502    0  0.10715665980E+02 -0.16572998157E+02  0.91246256357E+02  0.93449673431E+02  0.41800000000E+01 0.  1.
         -5    1    3    3    0  502  0.53990345126E+02 -0.14233149188E+02 -0.29609329965E+02  0.63338177458E+02  0.41800000000E+01 0.  1.
        -11    1    1    2    0    0 -0.15986319725E+02 -0.30678155396E+02  0.20930595131E+02  0.40432677989E+02  0.00000000000E+00 0.  1.
         11    1    1    2    0    0 -0.48719691381E+02  0.61484302742E+02  0.80830873266E+02  0.11263906021E+03  0.00000000000E+00 0. -1.
</event>
<event>
 7    1  0.2384639E-009  0.7893969E+02  0.7561462E-02  0.1332088E+00
         -2   -1    0    0    0  501 -0.00000000000E+00  0.00000000000E+00  0.14483026468E+03  0.14483026468E+03  0.00000000000E+00 0.  1.
          2   -1    0    0  501    0  0.00000000000E+00 -0.00000000000E+00 -0.10524077801E+03  0.10524077801E+03  0.00000000000E+00 0. -1.
         25    2    1    2    0    0  0.30208405013E+02  0.42288569924E+02  0.54608679190E+02  0.14605186689E+03  0.12509264207E+03 0.  0.
          5    1    3    3  502    0  0.22542644510E+02  0.16817515623E+02  0.94073444564E+02  0.98276574143E+02  0.41800000000E+01 0.  1.
         -5    1    3    3    0  502  0.76657605030E+01  0.25471054301E+02 -0.39464765374E+02  0.47775292750E+02  0.41800000000E+01 0.  1.
        -11    1    1    2    0    0 -0.36640177112E+02 -0.67336238576E+02 -0.71704371314E+01  0.76994069727E+02  0.00000000000E+00 0.  1.
         11    1    1    2    0    0  0.64317720991E+01  0.25047668653E+02 -0.78487553846E+01  0.27025106075E+02  0.00000000000E+00 0. -1.
</event>
<event>
 7    1  0.2384639E-009  0.1005029E+03  0.7561462E-02  0.1279242E+00
         -3   -1    0    0    0  501 -0.00000000000E+00  0.00000000000E+00  0.27954012074E+02  0.27954012074E+02  0.00000000000E+00 0.  1.
          3   -1    0    0  501    0  0.00000000000E+00 -0.00000000000E+00 -0.87465675417E+03  0.87465675417E+03  0.00000000000E+00 0. -1.
         25    2    1    2    0    0 -0.46354641147E+02 -0.53205267858E+00 -0.74883423091E+03  0.76062430759E+03  0.12509035167E+03 0.  0.
          5    1    3    3  502    0  0.72436158801E+01 -0.33868909801E+02 -0.56753245156E+03  0.56860366600E+03  0.41800000000E+01 0. -1.
         -5    1    3    3    0  502 -0.53598257028E+02  0.33336857122E+02 -0.18130177935E+03  0.19202064159E+03  0.41800000000E+01 0. -1.
        -11    1    1    2    0    0  0.44056502205E+02 -0.41643620097E+02 -0.58495101757E+02  0.84242764739E+02  0.00000000000E+00 0. -1.
         11    1    1    2    0    0  0.22981389427E+01  0.42175672776E+02 -0.39373409431E+02  0.57743693914E+02  0.00000000000E+00 0.  1.
</event>
<event>
 7    1  0.2384639E-009  0.8954257E+02  0.7561462E-02  0.1303963E+00
         -2   -1    0    0    0  501 -0.00000000000E+00  0.00000000000E+00  0.45598737513E+02  0.45598737513E+02  0.00000000000E+00 0. -1.
          2   -1    0    0  501    0  0.00000000000E+00 -0.00000000000E+00 -0.36738214471E+03  0.36738214471E+03  0.00000000000E+00 0.  1.
         25    2    1    2    0    0 -0.53284666570E+02  0.44027850423E+02 -0.20378145538E+03  0.24890094195E+03  0.12508832896E+03 0.  0.
          5    1    3    3  502    0 -0.71964169889E+01  0.33609045844E+02 -0.19812666960E+03  0.20112932653E+03  0.41800000000E+01 0.  1.
         -5    1    3    3    0  502 -0.46088249581E+02  0.10418804580E+02 -0.56547857791E+01  0.47771615427E+02  0.41800000000E+01 0.  1.
        -11    1    1    2    0    0  0.39720857920E+01  0.17630760273E+02 -0.68610483563E+02  0.70950825422E+02  0.00000000000E+00 0.  1.
         11    1    1    2    0    0  0.49312580778E+02 -0.61658610696E+02 -0.49391468246E+02  0.93129114843E+02  0.00000000000E+00 0. -1.
</event>
<event>
 7    1  0.2738472E-009  0.1035011E+03  0.7561462E-02  0.1273101E+00
          2   -1    0    0  501    0  0.00000000000E+00  0.00000000000E+00  0.75602785442E+03  0.75602785442E+03  0.00000000000E+00 0. -1.
         -2   -1    0    0    0  501 -0.00000000000E+00 -0.00000000000E+00 -0.25733018068E+02  0.25733018068E+02  0.00000000000E+00 0.  1.
         25    2    1    2    0    0 -0.19887535131E+02 -0.46267266627E+02  0.60074261678E+03  0.61569115613E+03  0.12509090337E+03 0.  0.
          5    1    3    3  502    0  0.23505123685E+02  0.35151370660E+02  0.19034025663E+03  0.19502562753E+03  0.41800000000E+01 0.  1.
         -5    1    3    3    0  502 -0.43392658816E+02 -0.81418637287E+02  0.41040236014E+03  0.42066552859E+03  0.41800000000E+01 0.  1.
        -11    1    1    2    0    0 -0.15092312005E+02  0.29990846894E+02  0.29319199365E+01  0.33702001923E+02  0.00000000000E+00 0.  1.
         11    1    1    2    0    0  0.34979847136E+02  0.16276419733E+02  0.12662029964E+03  0.13236771444E+03  0.00000000000E+00 0. -1.
</event>
<event>
 7    1  0.2384639E-009  0.1246164E+03  0.7561462E-02  0.1235670E+00
          1   -1    0    0  501    0  0.00000000000E+00  0.00000000000E+00  0.78855226233E+03  0.78855226233E+03  0.00000000000E+00 0. -1.
         -1   -1    0    0    0  501 -0.00000000000E+00 -0.00000000000E+00 -0.33604857652E+02  0.33604857652E+02  0.00000000000E+00 0.  1.
         25    2    1    2    0    0 -0.10310690155E+03  0.25282786885E+02  0.55062435751E+03  0.57454683129E+03  0.12508647332E+03 0.  0.
          5    1    3    3  502    0 -0.15361218966E+02 -0.29875822819E+02  0.31858522597E+03  0.32037876091E+03  0.41800000000E+01 0.  1.
         -5    1    3    3    0  502 -0.87745682581E+02  0.55158609704E+02  0.23203913154E+03  0.25416807038E+03  0.41800000000E+01 0.  1.
        -11    1    1    2    0    0  0.13742193192E+02 -0.17066897066E+02 -0.25994573712E+01  0.22065448733E+02  0.00000000000E+00 0.  1.
         11    1    1    2    0    0  0.89364708355E+02 -0.82158898192E+01  0.20692250454E+03  0.22554483995E+03  0.00000000000E+00 0. -1.
</event>
<event>
 7    1  0.2384639E-009  0.1179902E+03  0.7561462E-02  0.1246450E+00
          1   -1    0    0  501    0  0.00000000000E+00  0.00000000000E+00  0.28586882456E+04  0.28586882456E+04  0.00000000000E+00 0. -1.
         -1   -1    0    0    0  501 -0.00000000000E+00 -0.00000000000E+00 -0.12588496073E+02  0.12588496073E+02  0.00000000000E+00 0.  1.
         25    2    1    2    0    0 -0.16422665249E+02  0.52444301332E+02  0.25846020657E+04  0.25882103382E+04  0.12507920607E+03 0.  0.
          5    1    3    3  502    0 -0.28282096001E+02 -0.34425042316E+02  0.59900098715E+03  0.60067013868E+03  0.41800000000E+01 0. -1.
         -5    1    3    3    0  502  0.11859430752E+02  0.86869343648E+02  0.19856010786E+04  0.19875401995E+04  0.41800000000E+01 0. -1.
        -11    1    1    2    0    0 -0.21901322786E+02  0.14537240616E+02  0.10937174256E+03  0.11248634306E+03  0.00000000000E+00 0. -1.
         11    1    1    2    0    0  0.38323988035E+02 -0.66981541947E+02  0.15212594121E+03  0.17058006041E+03  0.00000000000E+00 0.  1.
</event>
<event>
 7    1  0.2660210E-009  0.9529760E+02  0.7561462E-02  0.1290507E+00
          1   -1    0    0  501    0  0.00000000000E+00  0.00000000000E+00  0.88486564821E+02  0.88486564821E+02  0.00000000000E+00 0. -1.
         -1   -1    0    0    0  501 -0.00000000000E+00 -0.00000000000E+00 -0.22747438801E+03  0.22747438801E+03  0.00000000000E+00 0.  1.
         25    2    1    2    0    0  0.17727016507E+02  0.48692305908E+02  0.76234263829E+01  0.13560997139E+03  0.12508700949E+03 0.  0.
          5    1    3    3  502    0 -0.18790549926E+02 -0.35583941668E+02  0.15512854663E+02  0.43329236446E+02  0.41800000000E+01 0.  1.
         -5    1    3    3    0  502  0.36517566433E+02  0.84276247577E+02 -0.78894282798E+01  0.92280734947E+02  0.41800000000E+01 0.  1.
        -11    1    1    2    0    0 -0.19434181021E+02 -0.15233795876E+02 -0.14470283000E+03  0.14679463525E+03  0.00000000000E+00 0.  1.
         11    1    1    2    0    0  0.17071645142E+01 -0.33458510032E+02 -0.19084195736E+01  0.33556346189E+02  0.00000000000E+00 0. -1.
</event>
<event>
 7    1  0.2384639E-009  0.8754177E+02  0.7561462E-02  0.1308916E+00
         -2   -1    0    0    0  501 -0.00000000000E+00  0.00000000000E+00  0.11419072243E+03  0.11419072243E+03  0.00000000000E+00 0. -1.
          2   -1    0    0  501    0  0.00000000000E+00 -0.00000000000E+00 -0.15089635439E+03  0.15089635439E+03  0.00000000000E+00 0.  1.
         25    2    1    2    0    0  0.34060332708E+02 -0.14615461431E+01  0.53729396895E+02  0.14035125499E+03  0.12509749919E+03 0.  0.
          5    1    3    3  502    0  0.73518769933E+02 -0.31260553994E+02  0.34823431093E+02  0.87248928484E+02  0.41800000000E+01 0.  1.
         -5    1    3    3    0  502 -0.39458437225E+02  0.29799007851E+02  0.18905965802E+02  0.53102326503E+02  0.41800000000E+01 0.  1.
        -11    1    1    2    0    0 -0.13335020711E+02  0.15487447314E+02 -0.96783548903E+02  0.98917840352E+02  0.00000000000E+00 0.  1.
         11    1    1    2    0    0 -0.20725311997E+02 -0.14025901171E+02  0.63485200544E+01  0.25817981484E+02  0.00000000000E+00 0. -1.
</event>
<event>
 7    1  0.2384639E-009  0.1156467E+03  0.7561462E-02  0.1250456E+00
          1   -1    0    0  501    0  0.00000000000E+00  0.00000000000E+00  0.61128626615E+03  0.61128626615E+03  0.00000000000E+00 0. -1.
         -1   -1    0    0    0  501 -0.00000000000E+00 -0.00000000000E+00 -0.28638831983E+02  0.28638831983E+02  0.00000000000E+00 0.  1.
         25    2    1    2    0    0 -0.40721386424E+02 -0.61613095259E+02  0.21525834916E+03  0.25968775390E+03  0.12508863987E+03 0.  0.
          5    1    3    3  502    0  0.33588702503E+02 -0.51203007750E+02  0.53897571285E+02  0.81684573384E+02  0.41800000000E+01 0.  1.
         -5    1    3    3    0  502 -0.74310088927E+02 -0.10410087509E+02  0.16136077787E+03  0.17800318052E+03  0.41800000000E+01 0.  1.
        -11    1    1    2    0    0 -0.11128524006E+02  0.34501396653E+02  0.96097867900E+02  0.10270827928E+03  0.00000000000E+00 0.  1.
         11    1    1    2    0    0  0.51849910431E+02  0.27111698606E+02  0.27129121711E+03  0.27752906495E+03  0.00000000000E+00 0. -1.
</event>
<event>
 7    1  0.2384639E-009  0.1172999E+03  0.7561462E-02  0.1247619E+00
         -1   -1    0    0    0  501 -0.00000000000E+00  0.00000000000E+00  0.89758058866E+03  0.89758058866E+03  0.00000000000E+00 0.  1.
          1   -1    0    0  501    0  0.00000000000E+00 -0.00000000000E+00 -0.38202512809E+02  0.38202512809E+02  0.00000000000E+00 0. -1.
         25    2    1    2    0    0  0.23115247548E+02  0.92108942649E+02  0.74454599686E+03  0.76092996128E+03  0.12508913842E+03 0.  0.
          5    1    3    3  502    0  0.17538513602E+02  0.10813469490E+03  0.73001991894E+03  0.73820543628E+03  0.41800000000E+01 0.  1.
         -5    1    3    3    0  502  0.55767339460E+01 -0.16025752256E+02  0.14526077918E+02  0.22724525002E+02  0.41800000000E+01 0.  1.
        -11    1    1    2    0    0 -0.38545259590E+02 -0.53676745806E+02  0.16434838722E+02  0.68095770801E+02  0.00000000000E+00 0. -1.
         11    1    1    2    0    0  0.15430012042E+02 -0.38432196843E+02  0.98397240276E+02  0.10675736939E+03  0.00000000000E+00 0.  1.
</event>
<event>
 7    1  0.2384639E-009  0.1213544E+03  0.7561462E-02  0.1240879E+00
          2   -1    0    0  501    0  0.00000000000E+00  0.00000000000E+00  0.90557380070E+03  0.90557380070E+03  0.00000000000E+00 0. -1.
         -2   -1    0    0    0  501 -0.00000000000E+00 -0.00000000000E+00 -0.16452562146E+02  0.16452562146E+02  0.00000000000E+00 0.  1.
         25    2    1    2    0    0 -0.46800090653E+02 -0.82590333936E+01  0.44634449393E+03  0.46597201183E+03  0.12509215974E+03 0.  0.
          5    1    3    3  502    0  0.42166997710E+02 -0.12866814625E+02  0.16427313613E+03  0.17013743347E+03  0.41800000000E+01 0. -1.
         -5    1    3    3    0  502 -0.88967088363E+02  0.46077812309E+01  0.28207135780E+03  0.29583457836E+03  0.41800000000E+01 0. -1.
        -11    1    1    2    0    0  0.76883857245E+02 -0.34427119513E+01  0.31015865354E+03  0.31956434429E+03  0.00000000000E+00 0.  1.
         11    1    1    2    0    0 -0.30083766592E+02  0.11701745345E+02  0.13261809108E+03  0.13649000673E+03  0.00000000000E+00 0. -1.
</event>
<event>
 7    1  0.2384639E-009  0.1533492E+03  0.7561462E-02  0.1196417E+00
         -3   -1    0    0    0  501 -0.00000000000E+00  0.00000000000E+00  0.66026212866E+02  0.66026212866E+02  0.00000000000E+00 0.  1.
          3   -1    0    0  501    0  0.00000000000E+00 -0.00000000000E+00 -0.42970445509E+03  0.42970445509E+03  0.00000000000E+00 0. -1.
         25    2    1    2    0    0  0.22818695465E+01  0.11424564548E+03 -0.10638272399E+03  0.20005414267E+03  0.12508837515E+03 0.  0.
          5    1    3    3  502    0 -0.66084659696E+01 -0.25100860352E+02 -0.34104269489E+01  0.26510911430E+02  0.41800000000E+01 0.  1.
         -5    1    3    3    0  502  0.88903355160E+01  0.13934650583E+03 -0.10297229704E+03  0.17354323124E+03  0.41800000000E+01 0.  1.
        -11    1    1    2    0    0  0.30126900089E+02 -0.10152295723E+03 -0.15586472851E+03  0.18843660618E+03  0.00000000000E+00 0.  1.
         11    1    1    2    0    0 -0.32408769635E+02 -0.12722688252E+02 -0.10143078972E+03  0.10723991911E+03  0.00000000000E+00 0. -1.
</event>
<event>
 7    1  0.2384639E-009  0.9477376E+02  0.7561462E-02  0.1291686E+00
          1   -1    0    0  501    0  0.00000000000E+00  0.00000000000E+00  0.22075900917E+03  0.22075900917E+03  0.00000000000E+00 0. -1.
         -1   -1    0    0    0  501 -0.00000000000E+00 -0.00000000000E+00 -0.83702521786E+02  0.83702521786E+02  0.00000000000E+00 0.  1.
         25    2    1    2    0    0  0.46955958061E+02 -0.59014312042E+02  0.12728936791E+03  0.19374575670E+03  0.12508910438E+03 0.  0.
          5    1    3    3  502    0  0.69229324324E+00 -0.20830457300E+02 -0.23333011539E+02  0.31564046774E+02  0.41800000000E+01 0.  1.
         -5    1    3    3    0  502  0.46263664818E+02 -0.38183854742E+02  0.15062237944E+03  0.16218170993E+03  0.41800000000E+01 0.  1.
        -11    1    1    2    0    0 -0.40813874441E+02  0.78093410763E+02 -0.66922596538E+00  0.88118108326E+02  0.00000000000E+00 0.  1.
         11    1    1    2    0    0 -0.61420836201E+01 -0.19079098721E+02  0.10436345442E+02  0.22597665928E+02  0.00000000000E+00 0. -1.
</event>
<event>
 7    1  0.2384639E-009  0.1007665E+03  0.7561462E-02  0.1278692E+00
         -2   -1    0    0    0  501 -0.00000000000E+00  0.00000000000E+00  0.60604947783E+02  0.60604947783E+02  0.00000000000E+00 0.  1.
          2   -1    0    0  501    0  0.00000000000E+00 -0.00000000000E+00 -0.26408958724E+03  0.26408958724E+03  0.00000000000E+00 0. -1.
         25    2    1    2    0    0 -0.14943010522E+02 -0.25512406606E+02 -0.40676442291E+02  0.13481831374E+03  0.12508888164E+03 0.  0.
          5    1    3    3  502    0 -0.49857032082E+01 -0.64059158699E+02 -0.62065301874E+02  0.89431578016E+02  0.41800000000E+01 0. -1.
         -5    1    3    3    0  502 -0.99573073134E+01  0.38546752093E+02  0.21388859583E+02  0.45386735728E+02  0.41800000000E+01 0. -1.
        -11    1    1    2    0    0 -0.33928210324E+02 -0.11482873756E+02 -0.50228341358E+02  0.61691702206E+02  0.00000000000E+00 0.  1.
         11    1    1    2    0    0  0.48871220846E+02  0.36995280362E+02 -0.11257985581E+03  0.12818451907E+03  0.00000000000E+00 0. -1.
</event>
<event>
 7    1  0.2384639E-009  0.8828869E+02  0.7561462E-02  0.1307050E+00
         -1   -1    0    0    0  501 -0.00000000000E+00  0.00000000000E+00  0.37722048466E+02  0.37722048466E+02  0.00000000000E+00 0.  1.
          1   -1    0    0  501    0  0.00000000000E+00 -0.00000000000E+00 -0.33187143108E+03  0.33187143108E+03  0.00000000000E+00 0. -1.
         25    2    1    2    0    0  0.23173588368E+02  0.13004436613E+02 -0.19515513449E+03  0.23332261441E+03  0.12509110803E+03 0.  0.
          5    1    3    3  502    0 -0.36830414789E+02 -0.10467155367E+01 -0.15563836624E+03  0.15999483902E+03  0.41800000000E+01 0.  1.
         -5    1    3    3    0  502  0.60004003156E+02  0.14051152149E+02 -0.39516768257E+02  0.73327775399E+02  0.41800000000E+01 0.  1.
        -11    1    1    2    0    0 -0.49824961440E+02 -0.10819370264E+02 -0.23424933750E+02  0.56109830481E+02  0.00000000000E+00 0. -1.
         11    1    1    2    0    0  0.26651373073E+02 -0.21850663492E+01 -0.75569314367E+02  0.80161034646E+02  0.00000000000E+00 0.  1.
</event>
<event>
 7    1  0.2384639E-009  0.1488907E+03  0.7561462E-02  0.1201843E+00
          2   -1    0    0  501    0  0.00000000000E+00  0.00000000000E+00  0.31717862043E+03  0.31717862043E+03  0.00000000000E+00 0.  1.
         -2   -1    0    0    0  501 -0.00000000000E+00 -0.00000000000E+00 -0.10927812948E+03  0.10927812948E+03  0.00000000000E+00 0. -1.
         25    2    1    2    0    0 -0.10935079842E+03  0.75828681844E+02  0.19957104260E+03  0.27052439974E+03  0.12508902312E+03 0.  0.
          5    1    3    3  502    0  0.12662581144E+02 -0.85260594237E+01 -0.60540354860E+01  0.16945748617E+02  0.41800000000E+01 0. -1.
         -5    1    3    3    0  502 -0.12201337957E+03  0.84354741268E+02  0.20562507809E+03  0.25357865112E+03  0.41800000000E+01 0. -1.
        -11    1    1    2    0    0  0.60270955851E+02 -0.34837077505E+02  0.44347114093E+02  0.82540151543E+02  0.00000000000E+00 0.  1.
         11    1    1    2    0    0  0.49079842571E+02 -0.40991604339E+02 -0.36017665750E+02  0.73392198626E+02  0.00000000000E+00 0. -1.
</event>
<event>
 7    1  0.2384639E-009  0.2461604E+03  0.7561462E-02  0.1115756E+00
          1   -1    0    0  501    0  0.00000000000E+00  0.00000000000E+00  0.26363262293E+03  0.26363262293E+03  0.00000000000E+00 0. -1.
         -1   -1    0    0    0  501 -0.00000000000E+00 -0.00000000000E+00 -0.27659908672E+03  0.27659908672E+03  0.00000000000E+00 0.  1.
         25    2    1    2    0    0  0.46733863873E+02 -0.24019165902E+03  0.31141541655E+02  0.27657445328E+03  0.12509014948E+03 0.  0.
          5    1    3    3  502    0  0.50206672782E+02 -0.20712874734E+03 -0.21420192216E+02  0.21424127754E+03  0.41800000000E+01 0. -1.
         -5    1    3    3    0  502 -0.34728089092E+01 -0.33062911673E+02  0.52561733871E+02  0.62333175738E+02  0.41800000000E+01 0. -1.
        -11    1    1    2    0    0 -0.23367687817E+02  0.17160986186E+03  0.96142011772E+01  0.17346015792E+03  0.00000000000E+00 0.  1.
         11    1    1    2    0    0 -0.23366176056E+02  0.68581797159E+02 -0.53722206617E+02  0.90197098450E+02  0.00000000000E+00 0. -1.
</event>
<event>
 7    1  0.2384639E-009  0.1226008E+03  0.7561462E-02  0.1238867E+00
          1   -1    0    0  501    0  0.00000000000E+00  0.00000000000E+00  0.29761943046E+03  0.29761943046E+03  0.00000000000E+00 0. -1.
         -1   -1    0    0    0  501 -0.00000000000E+00 -0.00000000000E+00 -0.56306245413E+02  0.56306245413E+02  0.00000000000E+00 0.  1.
         25    2    1    2    0    0 -0.67297880193E+02  0.31087616350E+02  0.11368125191E+03  0.18457384951E+03  0.12509450155E+03 0.  0.
          5    1    3    3  502    0 -0.83246812148E+02  0.65957252998E+02  0.76132478513E+02  0.13074409218E+03  0.41800000000E+01 0.  1.
         -5    1    3    3    0  502  0.15948931954E+02 -0.34869636648E+02  0.37548773395E+02  0.53829757327E+02  0.41800000000E+01 0.  1.
        -11    1    1    2    0    0 -0.70034195146E+01  0.12404284080E+02 -0.13145324487E+01  0.14305318731E+02  0.00000000000E+00 0.  1.
         11    1    1    2    0    0  0.74301299708E+02 -0.43491900431E+02  0.12894646559E+03  0.15504650763E+03  0.00000000000E+00 0. -1.
</event>
<event>
 7    1  0.2384639E-009  0.1294662E+03  0.7561462E-02  0.1228250E+00
          1   -1    0    0  501    0  0.00000000000E+00  0.00000000000E+00  0.38485619064E+03  0.38485619064E+03  0.00000000000E+00 0. -1.
         -1   -1    0    0    0  501 -0.00000000000E+00 -0.00000000000E+00 -0.59680175360E+02  0.59680175360E+02  0.00000000000E+00 0.  1.
         25    2    1    2    0    0 -0.59685907702E+02  0.86314294120E+02  0.17501313046E+03  0.23935267225E+03  0.12509013123E+03 0.  0.
          5    1    3    3  502    0  0.22237215074E+02 -0.30042723929E+00 -0.52136639942E+01  0.23221513366E+02  0.41800000000E+01 0.  1.
         -5    1    3    3    0  502 -0.81923122775E+02  0.86614721359E+02  0.18022679445E+03  0.21613115888E+03  0.41800000000E+01 0.  1.
        -11    1    1    2    0    0  0.15666824981E+02 -0.67231118274E+02  0.14006825124E+03  0.15615565207E+03  0.00000000000E+00 0. -1.
         11    1    1    2    0    0  0.44019082721E+02 -0.19083175846E+02  0.10094633588E+02  0.49028041683E+02  0.00000000000E+00 0.  1.
</event>
<event>
 7    1  0.2384639E-009  0.8864781E+02  0.7561462E-02  0.1306160E+00
          2   -1    0    0  501    0  0.00000000000E+00  0.00000000000E+00  0.88453209838E+03  0.88453209838E+03  0.00000000000E+00 0. -1.
         -2   -1    0    0    0  501 -0.00000000000E+00 -0.00000000000E+00 -0.21168686559E+02  0.21168686559E+02  0.00000000000E+00 0.  1.
         25    2    1    2    0    0 -0.70511436892E+02  0.90501984635E+00  0.62947121771E+03  0.64564167426E+03  0.12508587379E+03 0.  0.
          5    1    3    3  502    0 -0.54067277828E+02 -0.93672223639E+01  0.62202656829E+03  0.62445619498E+03  0.41800000000E+01 0.  1.
         -5    1    3    3    0  502 -0.16444159064E+02  0.10272242210E+02  0.74446494148E+01  0.21185479278E+02  0.41800000000E+01 0.  1.
        -11    1    1    2    0    0  0.33195617702E+02 -0.37556796718E+02  0.17133404896E+03  0.17851559693E+03  0.00000000000E+00 0. -1.
         11    1    1    2    0    0  0.37315819190E+02  0.36651776872E+02  0.62558145152E+02  0.81543513749E+02  0.00000000000E+00 0.  1.
</event>
<event>
 7    1  0.2384639E-009  0.9592363E+02  0.7561462E-02  0.1289109E+00
          1   -1    0    0  501    0  0.00000000000E+00  0.00000000000E+00  0.19966614626E+03  0.19966614626E+03  0.00000000000E+00 0. -1.
         -1   -1    0    0    0  501 -0.00000000000E+00 -0.00000000000E+00 -0.12783699383E+03  0.12783699383E+03  0.00000000000E+00 0.  1.
         25    2    1    2    0    0 -0.20668971006E+02  0.78079740001E+01 -0.79183199719E+02  0.14968481632E+03  0.12508954512E+03 0.  0.
          5    1    3    3  502    0 -0.48859921081E+02 -0.36304257146E+02 -0.84651632720E+01  0.61598882816E+02  0.41800000000E+01 0. -1.
         -5    1    3    3    0  502  0.28190950076E+02  0.44112231146E+02 -0.70718036447E+02  0.88085933507E+02  0.41800000000E+01 0. -1.
        -11    1    1    2    0    0  0.42317810066E+02  0.16808291283E+02  0.35478673432E+02  0.57723928948E+02  0.00000000000E+00 0.  1.
         11    1    1    2    0    0 -0.21648839061E+02 -0.24616265283E+02  0.11553367871E+03  0.12009439482E+03  0.00000000000E+00 0. -1.
</event>
<event>
 7    1  0.2384639E-009  0.1687475E+03  0.7561462E-02  0.1179160E+00
         -1   -1    0    0    0  501 -0.00000000000E+00  0.00000000000E+00  0.35613859992E+03  0.35613859992E+03  0.00000000000E+00 0.  1.
          1   -1    0    0  501    0  0.00000000000E+00 -0.00000000000E+00 -0.11645704286E+03  0.11645704286E+03  0.00000000000E+00 0. -1.
         25    2    1    2    0    0 -0.14834512173E+03  0.27075755084E+01  0.22378763464E+03  0.29621395704E+03  0.12509275288E+03 0.  0.
          5    1    3    3  502    0 -0.14983953570E+03  0.30594484717E+02  0.13848035198E+03  0.20635452319E+03  0.41800000000E+01 0.  1.
         -5    1    3    3    0  502  0.14944139730E+01 -0.27886909208E+02  0.85307282654E+02  0.89859433852E+02  0.41800000000E+01 0.  1.
        -11    1    1    2    0    0  0.10660251562E+03 -0.24204756750E+02  0.48115089687E+02  0.11943629449E+03  0.00000000000E+00 0.  1.
         11    1    1    2    0    0  0.41742606107E+02  0.21497181241E+02 -0.32221167259E+02  0.56945391257E+02  0.00000000000E+00 0. -1.
</event>
<event>
 7    1  0.2384639E-009  0.1131394E+03  0.7561462E-02  0.1254864E+00
         -1   -1    0    0    0  501 -0.00000000000E+00  0.00000000000E+00  0.36639037981E+02  0.36639037981E+02  0.00000000000E+00 0.  1.
          1   -1    0    0  501    0  0.00000000000E+00 -0.00000000000E+00 -0.49726805754E+03  0.49726805754E+03  0.00000000000E+00 0. -1.
         25    2    1    2    0    0 -0.55801569347E+02 -0.52143257291E+02 -0.30023749184E+03  0.33409951083E+03  0.12508875731E+03 0.  0.
          5    1    3    3  502    0 -0.74776320529E+02 -0.81714230043E+02 -0.23690124114E+03  0.26154996455E+03  0.41800000000E+01 0.  1.
         -5    1    3    3    0  502  0.18974751182E+02  0.29570972752E+02 -0.63336250702E+02  0.72549546277E+02  0.41800000000E+01 0.  1.
        -11    1    1    2    0    0  0.37383390712E+01  0.16595619239E+02  0.88716139172E+01  0.19185809611E+02  0.00000000000E+00 0.  1.
         11    1    1    2    0    0  0.52063230276E+02  0.35547638052E+02 -0.16926314163E+03  0.18062177508E+03  0.00000000000E+00 0. -1.
</event>
<event>
 7    1  0.2384639E-009  0.1770535E+03  0.7561462E-02  0.1170686E+00
         -2   -1    0    0    0  501 -0.00000000000E+00  0.00000000000E+00  0.37739194898E+02  0.37739194898E+02  0.00000000000E+00 0.  1.
          2   -1    0    0  501    0  0.00000000000E+00 -0.00000000000E+00 -0.10147222219E+04  0.10147222219E+04  0.00000000000E+00 0. -1.
         25    2    1    2    0    0 -0.11659677644E+03  0.11266635517E+03 -0.54263060862E+03  0.57998594069E+03  0.12508876100E+03 0.  0.
          5    1    3    3  502    0 -0.95695799048E+01  0.42687175054E+02 -0.34146938461E+02  0.55653010520E+02  0.41800000000E+01 0. -1.
         -5    1    3    3    0  502 -0.10702719653E+03  0.69979180119E+02 -0.50848367016E+03  0.52433293017E+03  0.41800000000E+01 0. -1.
        -11    1    1    2    0    0  0.59444391850E+02 -0.10996294523E+03 -0.33852256030E+03  0.36086425270E+03  0.00000000000E+00 0.  1.
         11    1    1    2    0    0  0.57152384588E+02 -0.27034099389E+01 -0.95829858102E+02  0.11161122342E+03  0.00000000000E+00 0. -1.
</event>
<event>
 7    1  0.2384639E-009  0.9271122E+02  0.7561462E-02  0.1296416E+00
          2   -1    0    0  501    0  0.00000000000E+00  0.00000000000E+00  0.47392982339E+03  0.47392982339E+03  0.00000000000E+00 0.  1.
         -2   -1    0    0    0  501 -0.00000000000E+00 -0.00000000000E+00 -0.38158113698E+02  0.38158113698E+02  0.00000000000E+00 0. -1.
         25    2    1    2    0    0  0.73119631721E+02  0.19392677726E+02  0.27699853197E+03  0.31320673070E+03  0.12509081883E+03 0.  0.
          5    1    3    3  502    0  0.73337681208E+02 -0.15130379406E+02  0.26654247352E+03  0.27689295126E+03  0.41800000000E+01 0.  1.
         -5    1    3    3    0  502 -0.21804948707E+00  0.34523057132E+02  0.10456058441E+02  0.36313779443E+02  0.41800000000E+01 0.  1.
        -11    1    1    2    0    0 -0.20672503972E+02 -0.55642669616E+01 -0.85000228112E+01  0.23033972195E+02  0.00000000000E+00 0. -1.
         11    1    1    2    0    0 -0.52447127749E+02 -0.13828410764E+02  0.16727320054E+03  0.17584723419E+03  0.00000000000E+00 0.  1.
</event>
<event>
 7    1  0.2384639E-009  0.1519725E+03  0.7561462E-02  0.1198070E+00
          1   -1    0    0  501    0  0.00000000000E+00  0.00000000000E+00  0.60403252054E+03  0.60403252054E+03  0.00000000000E+00 0. -1.
         -1   -1    0    0    0  501 -0.00000000000E+00 -0.00000000000E+00 -0.43250436507E+02  0.43250436507E+02  0.00000000000E+00 0.  1.
         25    2    1    2    0    0 -0.11259630944E+03  0.50614609581E+01  0.36017358463E+03  0.39758803650E+03  0.12509072075E+03 0.  0.
          5    1    3    3  502    0 -0.10237983574E+03 -0.48478639043E+02  0.25485688327E+03  0.27892886649E+03  0.41800000000E+01 0. -1.
         -5    1    3    3    0  502 -0.10216473699E+02  0.53540100002E+02  0.10531670136E+03  0.11865917001E+03  0.41800000000E+01 0. -1.
        -11    1    1    2    0    0 -0.86285309245E+01 -0.11676883908E+02  0.69535166889E+02  0.71034784423E+02  0.00000000000E+00 0.  1.
         11    1    1    2    0    0  0.12122484037E+03  0.66154229498E+01  0.13107333252E+03  0.17866013612E+03  0.00000000000E+00 0. -1.
</event>
<event>
 7    1  0.2384639E-009  0.8805635E+02  0.7561462E-02  0.1307628E+00
         -1   -1    0    0    0  501 -0.00000000000E+00  0.00000000000E+00  0.19803088694E+03  0.19803088694E+03  0.00000000000E+00 0.  1.
          1   -1    0    0  501    0  0.00000000000E+00 -0.00000000000E+00 -0.77836859196E+02  0.77836859196E+02  0.00000000000E+00 0. -1.
         25    2    1    2    0    0 -0.13192762754E+02  0.46429934891E+02  0.27282804972E+02  0.13682610197E+03  0.12508893992E+03 0.  0.
          5    1    3    3  502    0 -0.37866105024E+02 -0.14188376420E+02 -0.29379481460E+02  0.50157534489E+02  0.41800000000E+01 0. -1.
         -5    1    3    3    0  502  0.24673342270E+02  0.60618311311E+02  0.56662286433E+02  0.86668567478E+02  0.41800000000E+01 0. -1.
        -11    1    1    2    0    0  0.29536209439E+02 -0.12216510836E+02  0.95823168424E+02  0.10101341699E+03  0.00000000000E+00 0.  1.
         11    1    1    2    0    0 -0.16343446685E+02 -0.34213424055E+02 -0.29119456513E+01  0.38028227182E+02  0.00000000000E+00 0. -1.
</event>
<event>
 7    1  0.2384639E-009  0.1062228E+03  0.7561462E-02  0.1267729E+00
         -1   -1    0    0    0  501 -0.00000000000E+00  0.00000000000E+00  0.53057855435E+03  0.53057855435E+03  0.00000000000E+00 0.  1.
          1   -1    0    0  501    0  0.00000000000E+00 -0.00000000000E+00 -0.30192218493E+02  0.30192218493E+02  0.00000000000E+00 0. -1.
         25    2    1    2    0    0 -0.60482156879E+02  0.17942180819E+02  0.24808864301E+03  0.28491326330E+03  0.12509028605E+03 0.  0.
          5    1    3    3  502    0  0.12287143800E+02 -0.17142266897E+02  0.17366892726E+03  0.17499485681E+03  0.41800000000E+01 0. -1.
         -5    1    3    3    0  502 -0.72769300679E+02  0.35084447716E+02  0.74419715752E+02  0.10991840649E+03  0.41800000000E+01 0. -1.
        -11    1    1    2    0    0  0.80039738984E+02 -0.31753420998E+02  0.21421423047E+03  0.23087307356E+03  0.00000000000E+00 0.  1.
         11    1    1    2    0    0 -0.19557582105E+02  0.13811240179E+02  0.38083462383E+02  0.44984435977E+02  0.00000000000E+00 0. -1.
</event>
<event>
 7    1  0.2384639E-009  0.1122023E+03  0.7561462E-02  0.1256545E+00
         -2   -1    0    0    0  501 -0.00000000000E+00  0.00000000000E+00  0.40858093638E+02  0.40858093638E+02  0.00000000000E+00 0.  1.
          2   -1    0    0  501    0  0.00000000000E+00 -0.00000000000E+00 -0.37084482438E+03  0.37084482438E+03  0.00000000000E+00 0. -1.
         25    2    1    2    0    0  0.28739450912E+02 -0.43418833991E+01 -0.10274158754E+03  0.16446458445E+03  0.12509179725E+03 0.  0.
          5    1    3    3  502    0  0.59834384975E+02  0.41071155427E+02 -0.50927734644E+02  0.88758661489E+02  0.41800000000E+01 0. -1.
         -5    1    3    3    0  502 -0.31094934062E+02 -0.45413038826E+02 -0.51813852894E+02  0.75705922962E+02  0.41800000000E+01 0. -1.
        -11    1    1    2    0    0  0.33829939450E+02  0.68112364247E+00 -0.64402103989E+02  0.72749980967E+02  0.00000000000E+00 0.  1.
         11    1    1    2    0    0 -0.62569390362E+02  0.36607597567E+01 -0.16284303922E+03  0.17448835260E+03  0.00000000000E+00 0. -1.
</event>
<event>
 7    1  0.2384639E-009  0.7735191E+02  0.7561462E-02  0.1336739E+00
         -2   -1    0    0    0  501 -0.00000000000E+00  0.00000000000E+00  0.21800470821E+02  0.21800470821E+02  0.00000000000E+00 0.  1.
          2   -1    0    0  501    0  0.00000000000E+00 -0.00000000000E+00 -0.74448151368E+03  0.74448151368E+03  0.00000000000E+00 0. -1.
         25    2    1    2    0    0  0.53943130152E+01 -0.59591830257E+02 -0.31602475898E+03  0.34510645821E+03  0.12508610779E+03 0.  0.
          5    1    3    3  502    0 -0.49662713539E+01 -0.16885807392E+02  0.67636904012E+01  0.19313576838E+02  0.41800000000E+01 0. -1.
         -5    1    3    3    0  502  0.10360584369E+02 -0.42706022866E+02 -0.32278844938E+03  0.32579288137E+03  0.41800000000E+01 0. -1.
        -11    1    1    2    0    0  0.26182276639E+02  0.54530642986E+02 -0.35716448429E+03  0.36225070251E+03  0.00000000000E+00 0. -1.
         11    1    1    2    0    0 -0.31576589654E+02  0.50611872713E+01 -0.49491799590E+02  0.58924823779E+02  0.00000000000E+00 0.  1.
</event>
<event>
 7    1  0.2384639E-009  0.1134138E+03  0.7561462E-02  0.1254376E+00
          1   -1    0    0  501    0  0.00000000000E+00  0.00000000000E+00  0.40588863884E+02  0.40588863884E+02  0.00000000000E+00 0. -1.
         -1   -1    0    0    0  501 -0.00000000000E+00 -0.00000000000E+00 -0.38730694550E+03  0.38730694550E+03  0.00000000000E+00 0.  1.
         25    2    1    2    0    0  0.21448449279E+02  0.35076603062E+02 -0.27522591335E+03  0.30510172883E+03  0.12508939803E+03 0.  0.
          5    1    3    3  502    0 -0.33671573738E+02 -0.29542977967E+02 -0.11918867272E+03  0.12739691727E+03  0.41800000000E+01 0.  1.
         -5    1    3    3    0  502  0.55120023018E+02  0.64619581029E+02 -0.15603724063E+03  0.17770481156E+03  0.41800000000E+01 0.  1.
        -11    1    1    2    0    0 -0.29906068613E+02  0.23239747961E+02 -0.13750820665E+02  0.40293223923E+02  0.00000000000E+00 0. -1.
         11    1    1    2    0    0  0.84576193340E+01 -0.58316351023E+02 -0.57741347603E+02  0.82500856629E+02  0.00000000000E+00 0.  1.
</event>
<event>
 7    1  0.2384639E-009  0.1211236E+03  0.7561462E-02  0.1241255E+00
          1   -1    0    0  501    0  0.00000000000E+00  0.00000000000E+00  0.59184319103E+03  0.59184319103E+03  0.00000000000E+00 0. -1.
         -1   -1    0    0    0  501 -0.00000000000E+00 -0.00000000000E+00 -0.33683765222E+02  0.33683765222E+02  0.00000000000E+00 0.  1.
         25    2    1    2    0    0  0.14500583318E+02  0.58395714004E+02  0.15229139777E+03  0.20605849939E+03  0.12508840475E+03 0.  0.
          5    1    3    3  502    0  0.58141648548E+02 -0.71826697412E+01  0.51858561117E+02  0.78350652848E+02  0.41800000000E+01 0.  1.
         -5    1    3    3    0  502 -0.43641065230E+02  0.65578383746E+02  0.10043283666E+03  0.12770784654E+03  0.41800000000E+01 0.  1.
        -11    1    1    2    0    0 -0.50642213623E+02 -0.35562247178E+02  0.20670877893E+03  0.21577262688E+03  0.00000000000E+00 0.  1.
         11    1    1    2    0    0  0.36141630305E+02 -0.22833466826E+02  0.19915924911E+03  0.20369582999E+03  0.00000000000E+00 0. -1.
</event>
<event>
 7    1  0.2384639E-009  0.8574072E+02  0.7561462E-02  0.1313507E+00
          3   -1    0    0  501    0  0.00000000000E+00  0.00000000000E+00  0.61753353690E+02  0.61753353690E+02  0.00000000000E+00 0. -1.
         -3   -1    0    0    0  501 -0.00000000000E+00 -0.00000000000E+00 -0.25028229229E+03  0.25028229229E+03  0.00000000000E+00 0.  1.
         25    2    1    2    0    0  0.28108497301E+02  0.19421740683E+02 -0.16982562784E+03  0.21367220629E+03  0.12509107177E+03 0.  0.
          5    1    3    3  502    0  0.13372361353E+01 -0.38134807057E+02 -0.72121658825E+01  0.39058154673E+02  0.41800000000E+01 0. -1.
         -5    1    3    3    0  502  0.26771261165E+02  0.57556547740E+02 -0.16261346195E+03  0.17461405161E+03  0.41800000000E+01 0. -1.
        -11    1    1    2    0    0 -0.45192318849E+02 -0.22367363238E+01 -0.44154557340E+02  0.63221622933E+02  0.00000000000E+00 0.  1.
         11    1    1    2    0    0  0.17083821548E+02 -0.17185004360E+02  0.25451246572E+02  0.35141816766E+02  0.00000000000E+00 0. -1.
</event>
<event>
 7    1  0.2384639E-009  0.9496911E+02  0.7561462E-02  0.1291246E+00
         -1   -1    0    0    0  501 -0.00000000000E+00  0.00000000000E+00  0.35514723647E+02  0.35514723647E+02  0.00000000000E+00 0.  1.
          1   -1    0    0  501    0  0.00000000000E+00 -0.00000000000E+00 -0.35806396492E+03  0.35806396492E+03  0.00000000000E+00 0. -1.
         25    2    1    2    0    0  0.19585343358E+02  0.27148766523E+02 -0.18592662362E+03  0.22657665969E+03  0.12509049584E+03 0.  0.
          5    1    3    3  502    0  0.44221378030E+02 -0.28672420800E+02 -0.34144529818E+02  0.62936152614E+02  0.41800000000E+01 0.  1.
         -5    1    3    3    0  502 -0.24636034672E+02  0.55821187322E+02 -0.15178209380E+03  0.16364050708E+03  0.41800000000E+01 0.  1.
        -11    1    1    2    0    0  0.25184191063E+02 -0.39654630389E+01 -0.49003773900E+01  0.25961164750E+02  0.00000000000E+00 0.  1.
         11    1    1    2    0    0 -0.44769534421E+02 -0.23183303484E+02 -0.13172224026E+03  0.14104086412E+03  0.00000000000E+00 0. -1.
</event>
<event>
 7    1  0.2384639E-009  0.1076827E+03  0.7561462E-02  0.1264922E+00
         -1   -1    0    0    0  501 -0.00000000000E+00  0.00000000000E+00  0.37857912923E+02  0.37857912923E+02  0.00000000000E+00 0.  1.
          1   -1    0    0  501    0  0.00000000000E+00 -0.00000000000E+00 -0.35381434850E+03  0.35381434850E+03  0.00000000000E+00 0. -1.
         25    2    1    2    0    0  0.23469752649E+02  0.15023673153E+02 -0.13188542589E+03  0.18389724981E+03  0.12509153802E+03 0.  0.
          5    1    3    3  502    0 -0.40243286162E+02  0.33691462742E+02 -0.92926663158E+02  0.10680577638E+03  0.41800000000E+01 0. -1.
         -5    1    3    3    0  502  0.63713038810E+02 -0.18667789590E+02 -0.38958762731E+02  0.77091473433E+02  0.41800000000E+01 0. -1.
        -11    1    1    2    0    0 -0.51058035246E+02 -0.35197229570E+02 -0.12471759469E+03  0.13928476714E+03  0.00000000000E+00 0.  1.
         11    1    1    2    0    0  0.27588282598E+02  0.20173556417E+02 -0.59353415001E+02  0.68490244470E+02  0.00000000000E+00 0. -1.
</event>
<event>
 7    1  0.2384639E-009  0.1613854E+03  0.7561462E-02  0.1187142E+00
          2   -1    0    0  501    0  0.00000000000E+00  0.00000000000E+00  0.69627284859E+03  0.69627284859E+03  0.00000000000E+00 0. -1.
         -2   -1    0    0    0  501 -0.00000000000E+00 -0.00000000000E+00 -0.51412933342E+02  0.51412933342E+02  0.00000000000E+00 0.  1.
         25    2    1    2    0    0 -0.81393128144E+02 -0.10702802711E+03  0.18724899687E+03  0.26227693496E+03  0.12508862414E+03 0.  0.
          5    1    3    3  502    0  0.28561804284E+02 -0.26041308806E+02  0.13302281630E+02  0.41089530598E+02  0.41800000000E+01 0. -1.
         -5    1    3    3    0  502 -0.10995493243E+03 -0.80986718301E+02  0.17394671524E+03  0.22118740436E+03  0.41800000000E+01 0. -1.
        -11    1    1    2    0    0  0.84384610840E+02  0.68671314109E+02  0.41003694094E+03  0.42422494606E+03  0.00000000000E+00 0. -1.
         11    1    1    2    0    0 -0.29914826962E+01  0.38356712998E+02  0.47573977445E+02  0.61183900910E+02  0.00000000000E+00 0.  1.
</event>
<event>
 7    1  0.2384639E-009  0.1892884E+03  0.7561462E-02  0.1159105E+00
          2   -1    0    0  501    0  0.00000000000E+00  0.00000000000E+00  0.14046701464E+04  0.14046701464E+04  0.00000000000E+00 0. -1.
         -2   -1    0    0    0  501 -0.00000000000E+00 -0.00000000000E+00 -0.33313050383E+02  0.33313050383E+02  0.00000000000E+00 0.  1.
         25    2    1    2    0    0  0.15742457424E+03  0.19360457717E+02  0.10364960175E+04  0.10559963384E+04  0.12508776301E+03 0.  0.
          5    1    3    3  502    0 -0.11486399749E+01 -0.34211608117E+02  0.18885750713E+03  0.19198016539E+03  0.41800000000E+01 0. -1.
         -5    1    3    3    0  502  0.15857321422E+03  0.53572065834E+02  0.84763851040E+03  0.86401617301E+03  0.41800000000E+01 0. -1.
        -11    1    1    2    0    0 -0.10814647341E+03 -0.49457764636E+02  0.17129222335E+03  0.20852519266E+03  0.00000000000E+00 0.  1.
         11    1    1    2    0    0 -0.49278100838E+02  0.30097306919E+02  0.16356885512E+03  0.17346166571E+03  0.00000000000E+00 0. -1.
</event>
<event>
 7    1  0.2384639E-009  0.1230393E+03  0.7561462E-02  0.1238166E+00
         -2   -1    0    0    0  501 -0.00000000000E+00  0.00000000000E+00  0.46732913529E+02  0.46732913529E+02  0.00000000000E+00 0.  1.
          2   -1    0    0  501    0  0.00000000000E+00 -0.00000000000E+00 -0.34111068453E+03  0.34111068453E+03  0.00000000000E+00 0. -1.
         25    2    1    2    0    0  0.45804221845E+01 -0.57069256821E+02 -0.20649564760E+03  0.24812588315E+03  0.12509245009E+03 0.  0.
          5    1    3    3  502    0 -0.75724993434E+01  0.39299071519E+02 -0.65044671756E+02  0.76485563948E+02  0.41800000000E+01 0. -1.
         -5    1    3    3    0  502  0.12152921528E+02 -0.96368328340E+02 -0.14145097584E+03  0.17164031920E+03  0.41800000000E+01 0. -1.
        -11    1    1    2    0    0 -0.32894444267E+02 -0.11168417885E+02 -0.28007170075E+02  0.44622635481E+02  0.00000000000E+00 0. -1.
         11    1    1    2    0    0  0.28314022082E+02  0.68237674706E+02 -0.59874953330E+02  0.95095079431E+02  0.00000000000E+00 0.  1.
</event>
<event>
 7    1  0.2384639E-009  0.9980343E+02  0.7561462E-02  0.1280710E+00
         -4   -1    0    0    0  501 -0.00000000000E+00  0.00000000000E+00  0.19273906812E+03  0.19273906812E+03  0.00000000000E+00 0. -1.
          4   -1    0    0  501    0  0.00000000000E+00 -0.00000000000E+00 -0.14868038939E+03  0.14868038939E+03  0.00000000000E+00 0.  1.
         25    2    1    2    0    0 -0.15058409296E+02 -0.59426194322E+02 -0.91151584910E+02  0.16647693433E+03  0.12509088684E+03 0.  0.
          5    1    3    3  502    0 -0.16306513151E+02 -0.74616405917E+02 -0.11485066562E+03  0.13799151494E+03  0.41800000000E+01 0.  1.
         -5    1    3    3    0  502  0.12481038551E+01  0.15190211595E+02  0.23699080705E+02  0.28485419390E+02  0.41800000000E+01 0.  1.
        -11    1    1    2    0    0  0.15989190212E+02  0.82592501529E+02  0.84767273487E+02  0.11942640481E+03  0.00000000000E+00 0.  1.
         11    1    1    2    0    0 -0.93078091688E+00 -0.23166307207E+02  0.50442990158E+02  0.55516118369E+02  0.00000000000E+00 0. -1.
</event>
<event>
 7    1  0.2384639E-009  0.1539520E+03  0.7561462E-02  0.1195699E+00
         -3   -1    0    0    0  501 -0.00000000000E+00  0.00000000000E+00  0.11680101522E+03  0.11680101522E+03  0.00000000000E+00 0.  1.
          3   -1    0    0  501    0  0.00000000000E+00 -0.00000000000E+00 -0.22317677970E+03  0.22317677970E+03  0.00000000000E+00 0. -1.
         25    2    1    2    0    0  0.11704211449E+03  0.31428241431E+02 -0.45839452059E+02  0.18009578226E+03  0.12508654803E+03 0.  0.
          5    1    3    3  502    0  0.13640949946E+03  0.51439359709E+02 -0.41219635339E+02  0.15155886648E+03  0.41800000000E+01 0.  1.
         -5    1    3    3    0  502 -0.19367384973E+02 -0.20011118278E+02 -0.46198167199E+01  0.28536915775E+02  0.41800000000E+01 0.  1.
        -11    1    1    2    0    0 -0.73463358065E+02 -0.47463458809E+02 -0.70561425559E+02  0.11237686451E+03  0.00000000000E+00 0. -1.
         11    1    1    2    0    0 -0.43578756427E+02  0.16035217378E+02  0.10025113135E+02  0.47505148157E+02  0.00000000000E+00 0.  1.
</event>
<event>
 7    1  0.2384639E-009  0.1352925E+03  0.7561462E-02  0.1219807E+00
         -4   -1    0    0    0  501 -0.00000000000E+00  0.00000000000E+00  0.19516532717E+02  0.19516532717E+02  0.00000000000E+00 0.  1.
          4   -1    0    0  501    0  0.00000000000E+00 -0.00000000000E+00 -0.11884019313E+04  0.11884019313E+04  0.00000000000E+00 0. -1.
         25    2    1    2    0    0 -0.98216192814E+02  0.13050154383E+02 -0.77927121808E+03  0.79544234012E+03  0.12509259797E+03 0.  0.
          5    1    3    3  502    0  0.10228803022E+02  0.28281733683E+02 -0.38585311471E+03  0.38704597066E+03  0.41800000000E+01 0. -1.
         -5    1    3    3    0  502 -0.10844499584E+03 -0.15231579301E+02 -0.39341810337E+03  0.40839636946E+03  0.41800000000E+01 0. -1.
        -11    1    1    2    0    0  0.27060856923E+02  0.35392248378E+02 -0.85463311398E+02  0.96378829718E+02  0.00000000000E+00 0.  1.
         11    1    1    2    0    0  0.71155335890E+02 -0.48442402760E+02 -0.30415086913E+03  0.31609729420E+03  0.00000000000E+00 0. -1.
</event>
<event>
 7    1  0.2384639E-009  0.1162741E+03  0.7561462E-02  0.1249373E+00
         -1   -1    0    0    0  501 -0.00000000000E+00  0.00000000000E+00  0.31301718029E+02  0.31301718029E+02  0.00000000000E+00 0.  1.
          1   -1    0    0  501    0  0.00000000000E+00 -0.00000000000E+00 -0.49811424769E+03  0.49811424769E+03  0.00000000000E+00 0. -1.
         25    2    1    2    0    0  0.33875270359E+01 -0.59184058337E+02 -0.26168032201E+03  0.29603833831E+03  0.12509148141E+03 0.  0.
          5    1    3    3  502    0  0.31124398014E+02  0.25660201807E+02 -0.39722389243E+02  0.56767197533E+02  0.41800000000E+01 0. -1.
         -5    1    3    3    0  502 -0.27736870978E+02 -0.84844260145E+02 -0.22195793276E+03  0.23927114077E+03  0.41800000000E+01 0. -1.
        -11    1    1    2    0    0 -0.57998720912E+01  0.80737333200E+02 -0.11473168296E+03  0.14041194594E+03  0.00000000000E+00 0.  1.
         11    1    1    2    0    0  0.24123450552E+01 -0.21553274863E+02 -0.90400524696E+02  0.92965681471E+02  0.00000000000E+00 0. -1.
</event>
<event>
 7    1  0.2384639E-009  0.1026215E+03  0.7561462E-02  0.1274878E+00
          1   -1    0    0  501    0  0.00000000000E+00  0.00000000000E+00  0.11565601526E+03  0.11565601526E+03  0.00000000000E+00 0. -1.
         -1   -1    0    0    0  501 -0.00000000000E+00 -0.00000000000E+00 -0.19183244824E+03  0.19183244824E+03  0.00000000000E+00 0.  1.
         25    2    1    2    0    0  0.44434405643E+02 -0.27802288938E+02  0.51900898429E+02  0.14521878880E+03  0.12508960663E+03 0.  0.
          5    1    3    3  502    0  0.40292097424E+02  0.43952990739E+02  0.65522388554E+01  0.60130880118E+02  0.41800000000E+01 0. -1.
         -5    1    3    3    0  502  0.41423082192E+01 -0.71755279677E+02  0.45348659574E+02  0.85087908683E+02  0.41800000000E+01 0. -1.
        -11    1    1    2    0    0 -0.27602948803E+02 -0.12121569533E+02 -0.34718940787E+01  0.30346487096E+02  0.00000000000E+00 0. -1.
         11    1    1    2    0    0 -0.16831456840E+02  0.39923858472E+02 -0.12460543733E+03  0.13192318760E+03  0.00000000000E+00 0.  1.
</event>
<event>
 7    1  0.2384639E-009  0.1225073E+03  0.7561462E-02  0.1239017E+00
         -1   -1    0    0    0  501 -0.00000000000E+00  0.00000000000E+00  0.26633558417E+02  0.26633558417E+02  0.00000000000E+00 0.  1.
          1   -1    0    0  501    0  0.00000000000E+00 -0.00000000000E+00 -0.58934065263E+03  0.58934065263E+03  0.00000000000E+00 0. -1.
         25    2    1    2    0    0  0.46889014798E+02  0.33037974676E+02 -0.26305922878E+03  0.29688385337E+03  0.12509906901E+03 0.  0.
          5    1    3    3  502    0  0.85712117709E+02  0.20236615458E+01 -0.14158848780E+03  0.16557606894E+03  0.41800000000E+01 0.  1.
         -5    1    3    3    0  502 -0.38823102911E+02  0.31014313131E+02 -0.12147074098E+03  0.13130778443E+03  0.41800000000E+01 0.  1.
        -11    1    1    2    0    0 -0.46460162613E+02 -0.63590935794E+02 -0.20368816656E+03  0.21838320224E+03  0.00000000000E+00 0.  1.
         11    1    1    2    0    0 -0.42885218541E+00  0.30552961118E+02 -0.95959698883E+02  0.10070715544E+03  0.00000000000E+00 0. -1.
</event>
<event>
 7    1  0.2384639E-009  0.1686607E+03  0.7561462E-02  0.1179252E+00
          1   -1    0    0  501    0  0.00000000000E+00  0.00000000000E+00  0.18755194287E+03  0.18755194287E+03  0.00000000000E+00 0. -1.
         -1   -1    0    0    0  501 -0.00000000000E+00 -0.00000000000E+00 -0.21803664012E+03  0.21803664012E+03  0.00000000000E+00 0.  1.
         25    2    1    2    0    0 -0.69806589674E+02  0.13734586720E+03 -0.10100007455E+03  0.22267725847E+03  0.12508916492E+03 0.  0.
          5    1    3    3  502    0  0.16263937810E+02  0.32151468439E+01 -0.53739378846E+02  0.56393670576E+02  0.41800000000E+01 0.  1.
         -5    1    3    3    0  502 -0.86070527483E+02  0.13413072035E+03 -0.47260695708E+02  0.16628358789E+03  0.41800000000E+01 0.  1.
        -11    1    1    2    0    0  0.13648079905E+02 -0.77641859417E+02  0.68584569794E+01  0.79130062877E+02  0.00000000000E+00 0.  1.
         11    1    1    2    0    0  0.56158509769E+02 -0.59704007779E+02  0.63656920321E+02  0.10378126165E+03  0.00000000000E+00 0. -1.
</event>
<event>
 7    1  0.2384639E-009  0.1630963E+03  0.7561462E-02  0.1185245E+00
         -1   -1    0    0    0  501 -0.00000000000E+00  0.00000000000E+00  0.19750091052E+03  0.19750091052E+03  0.00000000000E+00 0.  1.
          1   -1    0    0  501    0  0.00000000000E+00 -0.00000000000E+00 -0.17545799493E+03  0.17545799493E+03  0.00000000000E+00 0. -1.
         25    2    1    2    0    0  0.12880525037E+03 -0.17138022154E+02  0.84229426622E+02  0.19906594976E+03  0.12509257259E+03 0.  0.
          5    1    3    3  502    0  0.14410472819E+03 -0.57337682551E+01  0.38483191620E+02  0.14932339811E+03  0.41800000000E+01 0. -1.
         -5    1    3    3    0  502 -0.15299477813E+02 -0.11404253899E+02  0.45746235002E+02  0.49742551655E+02  0.41800000000E+01 0. -1.
        -11    1    1    2    0    0 -0.11091687133E+03  0.52526637323E+02 -0.45989502323E+02  0.13105965931E+03  0.00000000000E+00 0.  1.
         11    1    1    2    0    0 -0.17888379048E+02 -0.35388615169E+02 -0.16197008704E+02  0.42833296388E+02  0.00000000000E+00 0. -1.
</event>
<event>
 7    1  0.2384639E-009  0.1159108E+03  0.7561462E-02  0.1250000E+00
          2   -1    0    0  501    0  0.00000000000E+00  0.00000000000E+00  0.16490215736E+03  0.16490215736E+03  0.00000000000E+00 0. -1.
         -2   -1    0    0    0  501 -0.00000000000E+00 -0.00000000000E+00 -0.10900260938E+03  0.10900260938E+03  0.00000000000E+00 0.  1.
         25    2    1    2    0    0  0.21063598838E+02 -0.55937601794E+02 -0.21211741726E+02  0.14025114340E+03  0.12509098588E+03 0.  0.
          5    1    3    3  502    0 -0.17923040601E+02  0.33905896933E+02 -0.16931815555E+02  0.42130796446E+02  0.41800000000E+01 0. -1.
         -5    1    3    3    0  502  0.38986639439E+02 -0.89843498727E+02 -0.42799261713E+01  0.98120346953E+02  0.41800000000E+01 0. -1.
        -11    1    1    2    0    0  0.21158753482E+02 -0.43619835046E+01  0.51272767717E+02  0.55638264336E+02  0.00000000000E+00 0. -1.
         11    1    1    2    0    0 -0.42222352320E+02  0.60299585299E+02  0.25838521987E+02  0.78015359007E+02  0.00000000000E+00 0.  1.
</event>
<event>
 7    1  0.2384639E-009  0.1198498E+03  0.7561462E-02  0.1243345E+00
          1   -1    0    0  501    0  0.00000000000E+00  0.00000000000E+00  0.52330033955E+02  0.52330033955E+02  0.00000000000E+00 0. -1.
         -1   -1    0    0    0  501 -0.00000000000E+00 -0.00000000000E+00 -0.43075845864E+03  0.43075845864E+03  0.00000000000E+00 0.  1.
         25    2    1    2    0    0  0.65842827932E+02 -0.64541099159E+02 -0.27601282281E+03  0.31675118787E+03  0.12508958865E+03 0.  0.
          5    1    3    3  502    0 -0.27254125835E+02 -0.20770631196E+02 -0.15052092480E+03  0.15442871397E+03  0.41800000000E+01 0. -1.
         -5    1    3    3    0  502  0.93096953767E+02 -0.43770467963E+02 -0.12549189801E+03  0.16232247390E+03  0.41800000000E+01 0. -1.
        -11    1    1    2    0    0  0.50210866954E+01  0.14836241689E+02 -0.73389494441E+02  0.75042276574E+02  0.00000000000E+00 0.  1.
         11    1    1    2    0    0 -0.70863914628E+02  0.49704857470E+02 -0.29026107429E+02  0.91295028150E+02  0.00000000000E+00 0. -1.
</event>
<event>
 7    1  0.2384639E-009  0.1106605E+03  0.7561462E-02  0.1259352E+00
          2   -1    0    0  501    0  0.00000000000E+00  0.00000000000E+00  0.28245043712E+03  0.28245043712E+03  0.00000000000E+00 0. -1.
         -2   -1    0    0    0  501 -0.00000000000E+00 -0.00000000000E+00 -0.54040792430E+02  0.54040792430E+02  0.00000000000E+00 0.  1.
         25    2    1    2    0    0 -0.24974633453E+02 -0.29817151962E+01  0.19693390877E+03  0.23465857729E+03  0.12509620512E+03 0.  0.
          5    1    3    3  502    0 -0.62433337026E+02  0.34391108840E+02  0.86741990655E+02  0.11234907780E+03  0.41800000000E+01 0. -1.
         -5    1    3    3    0  502  0.37458703573E+02 -0.37372824036E+02  0.11019191811E+03  0.12230949950E+03  0.41800000000E+01 0. -1.
        -11    1    1    2    0    0  0.15250041994E+01  0.46968858145E+02  0.15800836823E+02  0.49578883787E+02  0.00000000000E+00 0.  1.
         11    1    1    2    0    0  0.23449629253E+02 -0.43987142949E+02  0.15674899096E+02  0.52253768463E+02  0.00000000000E+00 0. -1.
</event>
<event>
 7    1  0.2384639E-009  0.9626670E+02  0.7561462E-02  0.1288348E+00
          2   -1    0    0  501    0  0.00000000000E+00  0.00000000000E+00  0.32562258979E+03  0.32562258979E+03  0.00000000000E+00 0. -1.
         -2   -1    0    0    0  501 -0.00000000000E+00 -0.00000000000E+00 -0.50812837862E+02  0.50812837862E+02  0.00000000000E+00 0.  1.
         25    2    1    2    0    0 -0.59457858831E+02  0.21989191503E+02  0.10994489682E+03  0.17819990834E+03  0.12509422639E+03 0.  0.
          5    1    3    3  502    0 -0.30889757185E+02 -0.45245315595E+02  0.12511225634E+02  0.56349967605E+02  0.41800000000E+01 0. -1.
         -5    1    3    3    0  502 -0.28568101646E+02  0.67234507098E+02  0.97433671190E+02  0.12184994074E+03  0.41800000000E+01 0. -1.
        -11    1    1    2    0    0  0.82445042850E+01 -0.76216783998E+01 -0.10260953179E+02  0.15210160837E+02  0.00000000000E+00 0.  1.
         11    1    1    2    0    0  0.51213354546E+02 -0.14367513103E+02  0.17512580828E+03  0.18302535847E+03  0.00000000000E+00 0. -1.
</event>
<event>
 7    1  0.2384639E-009  0.1204400E+03  0.7561462E-02  0.1242373E+00
          3   -1    0    0  501    0  0.00000000000E+00  0.00000000000E+00  0.33556993624E+02  0.33556993624E+02  0.00000000000E+00 0. -1.
         -3   -1    0    0    0  501 -0.00000000000E+00 -0.00000000000E+00 -0.67349400236E+03  0.67349400236E+03  0.00000000000E+00 0.  1.
         25    2    1    2    0    0  0.25274017555E+01  0.75355086732E+02 -0.53077105893E+03  0.55049980079E+03  0.12508931537E+03 0.  0.
          5    1    3    3  502    0 -0.42311350883E+02 -0.14581572263E+02 -0.14308996032E+03  0.14998360513E+03  0.41800000000E+01 0.  1.
         -5    1    3    3    0  502  0.44838752639E+02  0.89936658995E+02 -0.38768109861E+03  0.40051619566E+03  0.41800000000E+01 0.  1.
        -11    1    1    2    0    0 -0.27713321510E+02 -0.59371071922E+02 -0.10845839479E+03  0.12671296607E+03  0.00000000000E+00 0.  1.
         11    1    1    2    0    0  0.25185919754E+02 -0.15984014809E+02 -0.70755502467E+00  0.29838229127E+02  0.00000000000E+00 0. -1.
</event>
<event>
 7    1  0.2384639E-009  0.1082016E+03  0.7561462E-02  0.1263937E+00
          2   -1    0    0  501    0  0.00000000000E+00  0.00000000000E+00  0.89124137057E+03  0.89124137057E+03  0.00000000000E+00 0. -1.
         -2   -1    0    0    0  501 -0.00000000000E+00 -0.00000000000E+00 -0.16105562893E+02  0.16105562893E+02  0.00000000000E+00 0.  1.
         25    2    1    2    0    0 -0.89668974490E+01 -0.34655410905E+00  0.68208158909E+03  0.69351480995E+03  0.12508785751E+03 0.  0.
          5    1    3    3  502    0 -0.35337725158E+01 -0.62504960162E+02  0.35738668051E+03  0.36285268278E+03  0.41800000000E+01 0.  1.
         -5    1    3    3    0  502 -0.54331249332E+01  0.62158406053E+02  0.32469490857E+03  0.33066212717E+03  0.41800000000E+01 0.  1.
        -11    1    1    2    0    0  0.43525876210E+02 -0.23183360554E+02  0.11856296539E+03  0.12841007308E+03  0.00000000000E+00 0.  1.
         11    1    1    2    0    0 -0.34558978761E+02  0.23529914663E+02  0.74491253201E+02  0.85422050435E+02  0.00000000000E+00 0. -1.
</event>
<event>
 7    1  0.2384639E-009  0.9311566E+02  0.7561462E-02  0.1295477E+00
          2   -1    0    0  501    0  0.00000000000E+00  0.00000000000E+00  0.68634495409E+03  0.68634495409E+03  0.00000000000E+00 0. -1.
         -2   -1    0    0    0  501 -0.00000000000E+00 -0.00000000000E+00 -0.19929353639E+02  0.19929353639E+02  0.00000000000E+00 0.  1.
         25    2    1    2    0    0  0.29947062337E+02 -0.26088049648E+01  0.46408835293E+03  0.48158897380E+03  0.12508520277E+03 0.  0.
          5    1    3    3  502    0  0.56955694551E+02 -0.23691557619E+02  0.42486680269E+03  0.42934195401E+03  0.41800000000E+01 0.  1.
         -5    1    3    3    0  502 -0.27008632214E+02  0.21082752654E+02  0.39221550242E+02  0.52247019790E+02  0.41800000000E+01 0.  1.
        -11    1    1    2    0    0  0.20834065711E+02  0.26546660964E+02  0.36959335416E+02  0.50047736979E+02  0.00000000000E+00 0.  1.
         11    1    1    2    0    0 -0.50781128047E+02 -0.23937855999E+02  0.16536791211E+03  0.17463759696E+03  0.00000000000E+00 0. -1.
</event>
<event>
 7    1  0.2384639E-009  0.8809713E+02  0.7561462E-02  0.1307526E+00
          1   -1    0    0  501    0  0.00000000000E+00  0.00000000000E+00  0.82579785914E+02  0.82579785914E+02  0.00000000000E+00 0. -1.
         -1   -1    0    0    0  501 -0.00000000000E+00 -0.00000000000E+00 -0.24004882068E+03  0.24004882068E+03  0.00000000000E+00 0.  1.
         25    2    1    2    0    0  0.37830991153E+02  0.45895105341E+02 -0.10110735189E+02  0.13888995379E+03  0.12510254878E+03 0.  0.
          5    1    3    3  502    0  0.47117076151E+02  0.12094361627E+01 -0.56487979514E+02  0.73687487611E+02  0.41800000000E+01 0.  1.
         -5    1    3    3    0  502 -0.92860849982E+01  0.44685669178E+02  0.46377244325E+02  0.65202466178E+02  0.41800000000E+01 0.  1.
        -11    1    1    2    0    0 -0.82887448949E+01  0.13994954082E+02  0.53048030778E+01  0.17108564154E+02  0.00000000000E+00 0. -1.
         11    1    1    2    0    0 -0.29542246258E+02 -0.59890059423E+02 -0.15266310265E+03  0.16663008865E+03  0.00000000000E+00 0.  1.
</event>
<event>
 7    1  0.2384639E-009  0.1049215E+03  0.7561462E-02  0.1270274E+00
         -2   -1    0    0    0  501 -0.00000000000E+00  0.00000000000E+00  0.77677866931E+02  0.77677866931E+02  0.00000000000E+00 0.  1.
          2   -1    0    0  501    0  0.00000000000E+00 -0.00000000000E+00 -0.22547079115E+03  0.22547079115E+03  0.00000000000E+00 0. -1.
         25    2    1    2    0    0  0.73977823319E+02 -0.16500862008E+02 -0.79809009271E+02  0.16661894908E+03  0.12508956568E+03 0.  0.
          5    1    3    3  502    0 -0.27851359707E+02 -0.11966198161E+02  0.84259664300E+01  0.31738894849E+02  0.41800000000E+01 0. -1.
         -5    1    3    3    0  502  0.10182918303E+03 -0.45346638469E+01 -0.88234975701E+02  0.13488005423E+03  0.41800000000E+01 0. -1.
        -11    1    1    2    0    0 -0.35030233613E+02  0.26547567850E+00  0.18999478781E+02  0.39851824779E+02  0.00000000000E+00 0.  1.
         11    1    1    2    0    0 -0.38947589707E+02  0.16235386329E+02 -0.86983393727E+02  0.96677884221E+02  0.00000000000E+00 0. -1.
</event>
<event>
 7    1  0.2384639E-009  0.8189749E+02  0.7561462E-02  0.1323751E+00
          2   -1    0    0  501    0  0.00000000000E+00  0.00000000000E+00  0.19284069774E+03  0.19284069774E+03  0.00000000000E+00 0. -1.
         -2   -1    0    0    0  501 -0.00000000000E+00 -0.00000000000E+00 -0.85902132231E+02  0.85902132231E+02  0.00000000000E+00 0.  1.
         25    2    1    2    0    0  0.31447050790E+02 -0.54596263043E+02  0.94081819510E+02  0.16872381729E+03  0.12508664524E+03 0.  0.
          5    1    3    3  502    0 -0.15385423550E+02 -0.18890328607E+02  0.10570006369E+03  0.10855197666E+03  0.41800000000E+01 0. -1.
         -5    1    3    3    0  502  0.46832474340E+02 -0.35705934435E+02 -0.11618244181E+02  0.60171840628E+02  0.41800000000E+01 0. -1.
        -11    1    1    2    0    0 -0.21387982442E+02  0.63249335850E+02 -0.23918982230E+02  0.70922788928E+02  0.00000000000E+00 0.  1.
         11    1    1    2    0    0 -0.10059068348E+02 -0.86530728078E+01  0.36775728228E+02  0.39096223753E+02  0.00000000000E+00 0. -1.
</event>
<event>
 7    1  0.2384639E-009  0.1093034E+03  0.7561462E-02  0.1261865E+00
         -2   -1    0    0    0  501 -0.00000000000E+00  0.00000000000E+00  0.29046739125E+02  0.29046739125E+02  0.00000000000E+00 0.  1.
          2   -1    0    0  501    0  0.00000000000E+00 -0.00000000000E+00 -0.44083841637E+03  0.44083841637E+03  0.00000000000E+00 0. -1.
         25    2    1    2    0    0  0.25246920952E+02  0.23257226104E+02 -0.18325797807E+03  0.22452076369E+03  0.12509109168E+03 0.  0.
          5    1    3    3  502    0  0.56332104234E+02  0.59045144066E+02 -0.10700489010E+03  0.13463711937E+03  0.41800000000E+01 0.  1.
         -5    1    3    3    0  502 -0.31085183283E+02 -0.35787917963E+02 -0.76253087965E+02  0.89883644319E+02  0.41800000000E+01 0.  1.
        -11    1    1    2    0    0 -0.28581943742E+01  0.30728891118E+02 -0.79873968698E+02  0.85628762107E+02  0.00000000000E+00 0. -1.
         11    1    1    2    0    0 -0.22388726578E+02 -0.53986117221E+02 -0.14865973048E+03  0.15973562970E+03  0.00000000000E+00 0.  1.
</event>
<event>
 7    1  0.2384639E-009  0.9379934E+02  0.7561462E-02  0.1293903E+00
          1   -1    0    0  501    0  0.00000000000E+00  0.00000000000E+00  0.70669005552E+03  0.70669005552E+03  0.00000000000E+00 0. -1.
         -1   -1    0    0    0  501 -0.00000000000E+00 -0.00000000000E+00 -0.23583838639E+02  0.23583838639E+02  0.00000000000E+00 0.  1.
         25    2    1    2    0    0  0.42784525960E+02  0.31272694204E+02  0.51597775569E+03  0.53356245889E+03  0.12508939245E+03 0.  0.
          5    1    3    3  502    0  0.87019502932E+01  0.54898617742E+02  0.46207274149E+03  0.46542268208E+03  0.41800000000E+01 0. -1.
         -5    1    3    3    0  502  0.34082575667E+02 -0.23625923538E+02  0.53905014200E+02  0.68139776805E+02  0.41800000000E+01 0. -1.
        -11    1    1    2    0    0  0.19387166262E+02 -0.18313276439E+02  0.10323679350E+03  0.10662585916E+03  0.00000000000E+00 0. -1.
         11    1    1    2    0    0 -0.62171692222E+02 -0.12959417765E+02  0.63891667686E+02  0.90085576105E+02  0.00000000000E+00 0.  1.
</event>
<event>
 7    1  0.2384639E-009  0.1038457E+03  0.7561462E-02  0.1272411E+00
         -4   -1    0    0    0  501 -0.00000000000E+00  0.00000000000E+00  0.32418366080E+03  0.32418366080E+03  0.00000000000E+00 0.  1.
          4   -1    0    0  501    0  0.00000000000E+00 -0.00000000000E+00 -0.44798207425E+02  0.44798207425E+02  0.00000000000E+00 0. -1.
         25    2    1    2    0    0 -0.44642031295E+02  0.17096595097E+02  0.12630072362E+03  0.18407892294E+03  0.12509185649E+03 0.  0.
          5    1    3    3  502    0 -0.38333355702E+02  0.54461239838E+02  0.17782747225E+02  0.69059186955E+02  0.41800000000E+01 0. -1.
         -5    1    3    3    0  502 -0.63086755926E+01 -0.37364644741E+02  0.10851797640E+03  0.11501973598E+03  0.41800000000E+01 0. -1.
        -11    1    1    2    0    0 -0.25955004528E+02  0.91484491584E+01  0.52129529228E+02  0.58947809116E+02  0.00000000000E+00 0.  1.
         11    1    1    2    0    0  0.70597035823E+02 -0.26245044255E+02  0.10095520053E+03  0.12595513617E+03  0.00000000000E+00 0. -1.
</event>
<event>
 7    1  0.2384639E-009  0.1383922E+03  0.7561462E-02  0.1215509E+00
          2   -1    0    0  501    0  0.00000000000E+00  0.00000000000E+00  0.37822568726E+03  0.37822568726E+03  0.00000000000E+00 0. -1.
         -2   -1    0    0    0  501 -0.00000000000E+00 -0.00000000000E+00 -0.66809382699E+02  0.66809382699E+02  0.00000000000E+00 0.  1.
         25    2    1    2    0    0 -0.40371331138E+02  0.10823777068E+03  0.15152802908E+03  0.22793280890E+03  0.12508941760E+03 0.  0.
          5    1    3    3  502    0 -0.74346505674E+02  0.57289108578E+02  0.13480583118E+03  0.16431533522E+03  0.41800000000E+01 0.  1.
         -5    1    3    3    0  502  0.33975174536E+02  0.50948662106E+02  0.16722197904E+02  0.63617473683E+02  0.41800000000E+01 0.  1.
        -11    1    1    2    0    0  0.40646143204E+02 -0.55907843595E+02  0.14813502585E+03  0.16346798407E+03  0.00000000000E+00 0. -1.
         11    1    1    2    0    0 -0.27481206540E+00 -0.52329927088E+02  0.11753249623E+02  0.53634276982E+02  0.00000000000E+00 0.  1.
</event>
<event>
 7    1  0.2384639E-009  0.1093576E+03  0.7561462E-02  0.1261764E+00
         -1   -1    0    0    0  501 -0.00000000000E+00  0.00000000000E+00  0.80532167202E+02  0.80532167202E+02  0.00000000000E+00 0.  1.
          1   -1    0    0  501    0  0.00000000000E+00 -0.00000000000E+00 -0.16000782013E+03  0.16000782013E+03  0.00000000000E+00 0. -1.
         25    2    1    2    0    0  0.22828750265E+02  0.31047182062E+02 -0.25303370281E+02  0.13331666648E+03  0.12509194084E+03 0.  0.
          5    1    3    3  502    0  0.13639568502E+02 -0.46703520010E+02 -0.25114106365E+02  0.54913089047E+02  0.41800000000E+01 0. -1.
         -5    1    3    3    0  502  0.91891817629E+01  0.77750702072E+02 -0.18926391626E+00  0.78403577437E+02  0.41800000000E+01 0. -1.
        -11    1    1    2    0    0 -0.47847927665E+02  0.44451535881E+01 -0.20367366029E+02  0.52192079583E+02  0.00000000000E+00 0.  1.
         11    1    1    2    0    0  0.25019177400E+02 -0.35492335650E+02 -0.33804916621E+02  0.55031241268E+02  0.00000000000E+00 0. -1.
</event>
<event>
 7    1  0.2384639E-009  0.6605049E+02  0.7561462E-02  0.1374063E+00
         -3   -1    0    0    0  501 -0.00000000000E+00  0.00000000000E+00  0.42190635719E+03  0.42190635719E+03  0.00000000000E+00 0.  1.
          3   -1    0    0  501    0  0.00000000000E+00 -0.00000000000E+00 -0.36664476979E+02  0.36664476979E+02  0.00000000000E+00 0. -1.
         25    2    1    2    0    0  0.25389940179E+02  0.40162372823E+02  0.28683121512E+03  0.31650801209E+03  0.12509000958E+03 0.  0.
          5    1    3    3  502    0 -0.59866668746E+01 -0.16907393080E+02 -0.36597246693E+01  0.18776743745E+02  0.41800000000E+01 0. -1.
         -5    1    3    3    0  502  0.31376607054E+02  0.57069765903E+02  0.29049093979E+03  0.29773126834E+03  0.41800000000E+01 0. -1.
        -11    1    1    2    0    0 -0.92835935414E+01 -0.23415872639E+02  0.11223462923E+03  0.11502651955E+03  0.00000000000E+00 0.  1.
         11    1    1    2    0    0 -0.16106346638E+02 -0.16746500184E+02 -0.13823964135E+02  0.27036302536E+02  0.00000000000E+00 0. -1.
</event>
<event>
 7    1  0.2384639E-009  0.9123349E+02  0.7561462E-02  0.1299892E+00
         -2   -1    0    0    0  501 -0.00000000000E+00  0.00000000000E+00  0.87874138519E+02  0.87874138519E+02  0.00000000000E+00 0.  1.
          2   -1    0    0  501    0  0.00000000000E+00 -0.00000000000E+00 -0.21059772033E+03  0.21059772033E+03  0.00000000000E+00 0. -1.
         25    2    1    2    0    0 -0.67201420951E+02 -0.27258041226E+02 -0.11171165782E+03  0.18272395805E+03  0.12509803581E+03 0.  0.
          5    1    3    3  502    0 -0.23065496981E+02 -0.48801970221E+02 -0.12100515938E+03  0.13256458971E+03  0.41800000000E+01 0. -1.
         -5    1    3    3    0  502 -0.44135923970E+02  0.21543928995E+02  0.92935015595E+01  0.50159368342E+02  0.41800000000E+01 0. -1.
        -11    1    1    2    0    0  0.31252309096E+02 -0.38599359478E+01 -0.46681079912E+02  0.56309227939E+02  0.00000000000E+00 0. -1.
         11    1    1    2    0    0  0.35949111856E+02  0.31117977174E+02  0.35669155923E+02  0.59438672856E+02  0.00000000000E+00 0.  1.
</event>
<event>
 7    1  0.2384639E-009  0.1122138E+03  0.7561462E-02  0.1256524E+00
         -2   -1    0    0    0  501 -0.00000000000E+00  0.00000000000E+00  0.18125057293E+03  0.18125057293E+03  0.00000000000E+00 0.  1.
          2   -1    0    0  501    0  0.00000000000E+00 -0.00000000000E+00 -0.77308610857E+02  0.77308610857E+02  0.00000000000E+00 0. -1.
         25    2    1    2    0    0 -0.33722051362E+02 -0.33129378572E+02  0.52459215263E+02  0.14364709938E+03  0.12509111648E+03 0.  0.
          5    1    3    3  502    0  0.29899312907E+02  0.22477384943E+02 -0.94582946948E+01  0.38808935630E+02  0.41800000000E+01 0.  1.
         -5    1    3    3    0  502 -0.63621364268E+02 -0.55606763516E+02  0.61917509958E+02  0.10483816375E+03  0.41800000000E+01 0.  1.
        -11    1    1    2    0    0 -0.30748804698E+02  0.26120949847E+01  0.10218457114E+02  0.32507366802E+02  0.00000000000E+00 0.  1.
         11    1    1    2    0    0  0.64470856060E+02  0.30517283587E+02  0.41264289695E+02  0.82404717600E+02  0.00000000000E+00 0. -1.
</event>
<event>
 7    1  0.2762898E-009  0.1033436E+03  0.7561462E-02  0.1273418E+00
         -1   -1    0    0    0  501 -0.00000000000E+00  0.00000000000E+00  0.19234544848E+03  0.19234544848E+03  0.00000000000E+00 0.  1.
          1   -1    0    0  501    0  0.00000000000E+00 -0.00000000000E+00 -0.67451623041E+02  0.67451623041E+02  0.00000000000E+00 0. -1.
         25    2    1    2    0    0  0.20595000217E+02 -0.17708144149E+02  0.95907268749E+02  0.15994580480E+03  0.12508686530E+03 0.  0.
          5    1    3    3  502    0 -0.42055696298E+02  0.20795168034E+02  0.12622773625E+02  0.48763997157E+02  0.41800000000E+01 0.  1.
         -5    1    3    3    0  502  0.62650696516E+02 -0.38503312183E+02  0.83284495124E+02  0.11118180764E+03  0.41800000000E+01 0.  1.
        -11    1    1    2    0    0 -0.48249702229E+02 -0.71115385628E+01  0.37748661857E+02  0.61673083415E+02  0.00000000000E+00 0.  1.
         11    1    1    2    0    0  0.27654702012E+02  0.24819682712E+02 -0.87621051695E+01  0.38178183303E+02  0.00000000000E+00 0. -1.
</event>
